 ANIMSTEPS   7
 CRYSTAL 
 PRIMVEC 
  6.3501265308  0.0000000000  0.0000000000
  0.0000000000  2.6458860545  0.0000000000
  0.0000000000  0.0000000000  2.6458860545
 PRIMCOORD   1
    3  1
 H   -2.4165936167    0.0000000000    0.0000000000    0.0128716176    0.0000000000    0.0000000000
 H    0.0000000000    0.0000000000    0.0000000000    0.0000000000    0.0000000000    0.0000000000
 H    0.8243346693    0.0000000000    0.0000000000   -0.0205935429    0.0000000000    0.0000000000
 PRIMCOORD   2
    3  1
 H   -2.0142044148    0.0000000000    0.0000000000    0.0126486213    0.0000000000    0.0000000000
 H    0.0000000000    0.0000000000    0.0000000000    0.0000000000    0.0000000000    0.0000000000
 H    0.8094571777    0.0000000000    0.0000000000   -0.0014578708    0.0000000000    0.0000000000
 PRIMCOORD   3
    3  1
 H   -1.5219977230    0.0000000000    0.0000000000    0.0036933034    0.0000000000    0.0000000000
 H    0.0000000000    0.0000000000    0.0000000000    0.0000000000    0.0000000000    0.0000000000
 H    0.8333644270    0.0000000000    0.0000000000   -0.0006799033    0.0000000000    0.0000000000
 PRIMCOORD   4
    3  1
 H   -1.0170281971    0.0000000000    0.0000000000    0.0000898706    0.0000000000    0.0000000000
 H    0.0000000000    0.0000000000    0.0000000000    0.0000000000    0.0000000000    0.0000000000
 H    1.0170274400    0.0000000000    0.0000000000   -0.0000898706    0.0000000000    0.0000000000
 PRIMCOORD   5
    3  1
 H   -0.8333645061    0.0000000000    0.0000000000    0.0006798896    0.0000000000    0.0000000000
 H    0.0000000000    0.0000000000    0.0000000000    0.0000000000    0.0000000000    0.0000000000
 H    1.5219967565    0.0000000000    0.0000000000   -0.0036932843    0.0000000000    0.0000000000
 PRIMCOORD   6
    3  1
 H   -0.8094572046    0.0000000000    0.0000000000    0.0014578871    0.0000000000    0.0000000000
 H    0.0000000000    0.0000000000    0.0000000000    0.0000000000    0.0000000000    0.0000000000
 H    2.0142040467    0.0000000000    0.0000000000   -0.0126486176    0.0000000000    0.0000000000
 PRIMCOORD   7
    3  1
 H   -0.8243346693    0.0000000000    0.0000000000    0.0205928477    0.0000000000    0.0000000000
 H    0.0000000000    0.0000000000    0.0000000000    0.0000000000    0.0000000000    0.0000000000
 H    2.4165936167    0.0000000000    0.0000000000   -0.0128735184    0.0000000000    0.0000000000
