
     Program PWSCF v.6.8 starts on  4Jan2022 at  9:56:29 

     This program is part of the open-source Quantum ESPRESSO suite
     for quantum simulation of materials; please cite
         "P. Giannozzi et al., J. Phys.:Condens. Matter 21 395502 (2009);
         "P. Giannozzi et al., J. Phys.:Condens. Matter 29 465901 (2017);
         "P. Giannozzi et al., J. Chem. Phys. 152 154105 (2020);
          URL http://www.quantum-espresso.org", 
     in publications or presentations arising from this work. More details at
     http://www.quantum-espresso.org/quote

     Parallel version (MPI), running on    16 processors

     MPI processes distributed on     1 nodes
     R & G space division:  proc/nbgrp/npool/nimage =      16
     61259 MiB available memory on the printing compute node when the environment starts
 
     Waiting for input...
     Reading input from standard input
Warning: card &CELL ignored
Warning: card / ignored

     Current dimensions of program PWSCF are:
     Max number of different atomic species (ntypx) = 10
     Max number of k-points (npk) =  40000
     Max angular momentum in pseudopotentials (lmaxx) =  4
 
     Reading input from environ.in:
     * using electronic solvent mode
     * setting boundary derivatives method to SCCS default
 
     file Si.pbe-n-kjpaw_psl.1.0.0.UPF: wavefunction(s)  3S 3P renormalized
     Message from routine setup:
     using ibrav=0 with symmetry is DISCOURAGED, use correct ibrav instead

     Subspace diagonalization in iterative solution of the eigenvalue problem:
     a serial algorithm will be used

 
     Parallelization info
     --------------------
     sticks:   dense  smooth     PW     G-vecs:    dense   smooth      PW
     Min          21      21      5                 2497     2497     303
     Max          22      22      6                 2522     2522     324
     Sum         341     341     89                40125    40125    5049
 
     Using Slab Decomposition
 


     bravais-lattice index     =            0
     lattice parameter (alat)  =       7.3075  a.u.
     unit-cell volume          =    3311.1351 (a.u.)^3
     number of atoms/cell      =            4
     number of atomic types    =            1
     number of electrons       =        16.00
     number of Kohn-Sham states=           12
     kinetic-energy cutoff     =      20.0000  Ry
     charge density cutoff     =      80.0000  Ry
     scf convergence threshold =      1.0E-08
     mixing beta               =       0.7000
     number of iterations used =            8  local-TF  mixing
     Exchange-correlation= SLA  PW   PBX  PBC
                           (   1   4   3   4   0   0   0)

     ================================================================================
 
                                  Environ Setup Summary

     ================================================================================
 
     Please cite
         "O. Andreussi, I. Dabo and N. Marzari, J. Chem. Phys. 136, 064102 (2012)"
     in publications or presentations arising from this work.

     Parameters
     ==========

     compensation onset threshold      =               0.1000E+03

     Electrostatic Setup
     ===================

     electrostatic problem to solve    =                  poisson
     numerical solver adopted          =                   direct
     type of auxiliary density adopted =                     none
     numerical core for poisson        =                      fft
     type of pbc corrections           =                       ms
     numerical core for corrections    =                      1da

     ================================================================================
 

     celldm(1)=   7.307524  celldm(2)=   0.000000  celldm(3)=   0.000000
     celldm(4)=   0.000000  celldm(5)=   0.000000  celldm(6)=   0.000000

     crystal axes: (cart. coord. in units of alat)
               a(1) = (   1.000000   0.000000   0.000000 )  
               a(2) = (   0.000000   1.000000   0.000000 )  
               a(3) = (   0.000000   0.000000   8.485281 )  

     reciprocal axes: (cart. coord. in units 2 pi/alat)
               b(1) = (  1.000000  0.000000  0.000000 )  
               b(2) = (  0.000000  1.000000  0.000000 )  
               b(3) = (  0.000000  0.000000  0.117851 )  


     PseudoPot. # 1 for Si read from file:
     /ascldap/users/qcampbe/Pseudos/pslibrary.1.0.0/pbe/PSEUDOPOTENTIALS/Si.pbe-n-kjpaw_psl.1.0.0.UPF
     MD5 check sum: f6fdc0b5ea41c4765647ac85391047bf
     Pseudo is Projector augmented-wave + core cor, Zval =  4.0
     Generated using &quot;atomic&quot; code by A. Dal Corso  v.6.4.1
     Shape of augmentation charge: PSQ
     Using radial grid of 1141 points,  6 beta functions with: 
                l(1) =   0
                l(2) =   0
                l(3) =   1
                l(4) =   1
                l(5) =   2
                l(6) =   2
     Q(r) pseudized with 0 coefficients 


     atomic species   valence    mass     pseudopotential
        Si             4.00    28.08550     Si( 1.00)

      8 Sym. Ops., with inversion, found ( 4 have fractional translation)


                                    s                        frac. trans.

      isym =  1     identity                                     

 cryst.   s( 1) = (     1          0          0      )
                  (     0          1          0      )
                  (     0          0          1      )

 cart.    s( 1) = (  1.0000000  0.0000000  0.0000000 )
                  (  0.0000000  1.0000000  0.0000000 )
                  (  0.0000000  0.0000000  1.0000000 )


      isym =  2     180 deg rotation - cart. axis [0,0,1]        

 cryst.   s( 2) = (    -1          0          0      )
                  (     0         -1          0      )
                  (     0          0          1      )

 cart.    s( 2) = ( -1.0000000  0.0000000  0.0000000 )
                  (  0.0000000 -1.0000000  0.0000000 )
                  (  0.0000000  0.0000000  1.0000000 )


      isym =  3     180 deg rotation - cart. axis [0,1,0]        

 cryst.   s( 3) = (    -1          0          0      )    f =(  0.5000000 )
                  (     0          1          0      )       (  0.0000000 )
                  (     0          0         -1      )       (  0.0000000 )

 cart.    s( 3) = ( -1.0000000  0.0000000  0.0000000 )    f =(  0.5000000 )
                  (  0.0000000  1.0000000  0.0000000 )       (  0.0000000 )
                  (  0.0000000  0.0000000 -1.0000000 )       (  0.0000000 )


      isym =  4     180 deg rotation - cart. axis [1,0,0]        

 cryst.   s( 4) = (     1          0          0      )    f =(  0.5000000 )
                  (     0         -1          0      )       (  0.0000000 )
                  (     0          0         -1      )       (  0.0000000 )

 cart.    s( 4) = (  1.0000000  0.0000000  0.0000000 )    f =(  0.5000000 )
                  (  0.0000000 -1.0000000  0.0000000 )       (  0.0000000 )
                  (  0.0000000  0.0000000 -1.0000000 )       (  0.0000000 )


      isym =  5     inversion                                    

 cryst.   s( 5) = (    -1          0          0      )    f =(  0.5000000 )
                  (     0         -1          0      )       (  0.0000000 )
                  (     0          0         -1      )       (  0.0000000 )

 cart.    s( 5) = ( -1.0000000  0.0000000  0.0000000 )    f =(  0.5000000 )
                  (  0.0000000 -1.0000000  0.0000000 )       (  0.0000000 )
                  (  0.0000000  0.0000000 -1.0000000 )       (  0.0000000 )


      isym =  6     inv. 180 deg rotation - cart. axis [0,0,1]   

 cryst.   s( 6) = (     1          0          0      )    f =(  0.5000000 )
                  (     0          1          0      )       (  0.0000000 )
                  (     0          0         -1      )       (  0.0000000 )

 cart.    s( 6) = (  1.0000000  0.0000000  0.0000000 )    f =(  0.5000000 )
                  (  0.0000000  1.0000000  0.0000000 )       (  0.0000000 )
                  (  0.0000000  0.0000000 -1.0000000 )       (  0.0000000 )


      isym =  7     inv. 180 deg rotation - cart. axis [0,1,0]   

 cryst.   s( 7) = (     1          0          0      )
                  (     0         -1          0      )
                  (     0          0          1      )

 cart.    s( 7) = (  1.0000000  0.0000000  0.0000000 )
                  (  0.0000000 -1.0000000  0.0000000 )
                  (  0.0000000  0.0000000  1.0000000 )


      isym =  8     inv. 180 deg rotation - cart. axis [1,0,0]   

 cryst.   s( 8) = (    -1          0          0      )
                  (     0          1          0      )
                  (     0          0          1      )

 cart.    s( 8) = ( -1.0000000  0.0000000  0.0000000 )
                  (  0.0000000  1.0000000  0.0000000 )
                  (  0.0000000  0.0000000  1.0000000 )


   Cartesian axes

     site n.     atom                  positions (alat units)
         1           Si  tau(   1) = (   1.0000000   0.5000000   4.7729703  )
         2           Si  tau(   2) = (   0.5000000   0.5000000   3.7123103  )
         3           Si  tau(   3) = (   0.5000000   1.0000000   4.0658665  )
         4           Si  tau(   4) = (   1.0000000   0.0000000   4.4194142  )

   Crystallographic axes

     site n.     atom                  positions (cryst. coord.)
         1           Si  tau(   1) = (  1.0000000  0.5000000  0.5625000  )
         2           Si  tau(   2) = (  0.5000000  0.5000000  0.4375000  )
         3           Si  tau(   3) = (  0.5000000  1.0000000  0.4791670  )
         4           Si  tau(   4) = (  1.0000000  0.0000000  0.5208330  )

     number of k points=     1  Marzari-Vanderbilt smearing, width (Ry)=  0.0001
                       cart. coord. in units 2pi/alat
        k(    1) = (   0.0000000   0.0000000   0.0000000), wk =   2.0000000

                       cryst. coord.
        k(    1) = (   0.0000000   0.0000000   0.0000000), wk =   2.0000000

     Dense  grid:    40125 G-vectors     FFT dimensions: (  24,  24, 180)

     Dynamical RAM for                 wfc:       0.06 MB

     Dynamical RAM for     wfc (w. buffer):       0.06 MB

     Dynamical RAM for           str. fact:       0.04 MB

     Dynamical RAM for           local pot:       0.00 MB

     Dynamical RAM for          nlocal pot:       0.34 MB

     Dynamical RAM for                qrad:       0.72 MB

     Dynamical RAM for          rho,v,vnew:       0.27 MB

     Dynamical RAM for               rhoin:       0.09 MB

     Dynamical RAM for            rho*nmix:       0.61 MB

     Dynamical RAM for           G-vectors:       0.16 MB

     Dynamical RAM for          h,s,v(r/c):       0.03 MB

     Dynamical RAM for          <psi|beta>:       0.01 MB

     Dynamical RAM for                 psi:       0.11 MB

     Dynamical RAM for                hpsi:       0.11 MB

     Dynamical RAM for                spsi:       0.11 MB

     Dynamical RAM for      wfcinit/wfcrot:       0.16 MB

     Dynamical RAM for           addusdens:       7.25 MB

     Dynamical RAM for          addusforce:       7.51 MB

     Estimated static dynamical RAM per process >       2.02 MB

     Estimated max dynamical RAM per process >      10.15 MB

     Estimated total dynamical RAM >     162.37 MB

     Check: negative core charge=   -0.000003

     Initial potential from superposition of free atoms

     starting charge   15.99776, renormalised to   15.99900

     negative rho (up, down):  3.080E-03 0.000E+00
     Starting wfcs are   16 randomized atomic wfcs
     Checking if some PAW data can be deallocated... 

     total cpu time spent up to now is        0.4 secs

     Self-consistent Calculation

     iteration #  1     ecut=    20.00 Ry     beta= 0.70
     Davidson diagonalization with overlap

---- Real-time Memory Report at c_bands before calling an iterative solver
            91 MiB given to the printing process from OS
             0 MiB allocation reported by mallinfo(arena+hblkhd)
         60959 MiB available memory on the node where the printing process lives
------------------
     ethr =  1.00E-02,  avg # of iterations =  3.0

     negative rho (up, down):  5.937E-03 0.000E+00

     add environment contribution to local potential

     total cpu time spent up to now is        0.5 secs

     total energy              =    -186.07461848 Ry
     estimated scf accuracy    <       0.27008790 Ry
     electrostatic embedding   =       0.00000759 Ry
     correction to one-el term =       0.00000000 Ry

     iteration #  2     ecut=    20.00 Ry     beta= 0.70
     Davidson diagonalization with overlap

---- Real-time Memory Report at c_bands before calling an iterative solver
            98 MiB given to the printing process from OS
             0 MiB allocation reported by mallinfo(arena+hblkhd)
         60837 MiB available memory on the node where the printing process lives
------------------
     ethr =  1.69E-03,  avg # of iterations =  1.0

     negative rho (up, down):  1.047E-02 0.000E+00

     add environment contribution to local potential

     total cpu time spent up to now is        0.7 secs

     total energy              =    -186.06097955 Ry
     estimated scf accuracy    <       0.07711830 Ry
     electrostatic embedding   =       0.00015827 Ry
     correction to one-el term =       2.54259570 Ry

     iteration #  3     ecut=    20.00 Ry     beta= 0.70
     Davidson diagonalization with overlap

---- Real-time Memory Report at c_bands before calling an iterative solver
            99 MiB given to the printing process from OS
             0 MiB allocation reported by mallinfo(arena+hblkhd)
         60835 MiB available memory on the node where the printing process lives
------------------
     ethr =  4.82E-04,  avg # of iterations =  2.0

     negative rho (up, down):  1.069E-02 0.000E+00

     add environment contribution to local potential

     total cpu time spent up to now is        0.8 secs

     total energy              =    -186.07502166 Ry
     estimated scf accuracy    <       0.00335301 Ry
     electrostatic embedding   =       0.00015831 Ry
     correction to one-el term =       2.55337010 Ry

     iteration #  4     ecut=    20.00 Ry     beta= 0.70
     Davidson diagonalization with overlap

---- Real-time Memory Report at c_bands before calling an iterative solver
           101 MiB given to the printing process from OS
             0 MiB allocation reported by mallinfo(arena+hblkhd)
         60834 MiB available memory on the node where the printing process lives
------------------
     ethr =  2.10E-05,  avg # of iterations = 10.0

     negative rho (up, down):  1.077E-02 0.000E+00

     add environment contribution to local potential

     total cpu time spent up to now is        1.0 secs

     total energy              =    -186.07700303 Ry
     estimated scf accuracy    <       0.00359547 Ry
     electrostatic embedding   =       0.00015813 Ry
     correction to one-el term =       2.55398645 Ry

     iteration #  5     ecut=    20.00 Ry     beta= 0.70
     Davidson diagonalization with overlap

---- Real-time Memory Report at c_bands before calling an iterative solver
           103 MiB given to the printing process from OS
             0 MiB allocation reported by mallinfo(arena+hblkhd)
         60823 MiB available memory on the node where the printing process lives
------------------
     ethr =  2.10E-05,  avg # of iterations =  1.0

     negative rho (up, down):  1.156E-02 0.000E+00

     add environment contribution to local potential

     total cpu time spent up to now is        1.2 secs

     total energy              =    -186.07617076 Ry
     estimated scf accuracy    <       0.00264648 Ry
     electrostatic embedding   =       0.00015802 Ry
     correction to one-el term =       2.55381235 Ry

     iteration #  6     ecut=    20.00 Ry     beta= 0.70
     Davidson diagonalization with overlap

---- Real-time Memory Report at c_bands before calling an iterative solver
           104 MiB given to the printing process from OS
             0 MiB allocation reported by mallinfo(arena+hblkhd)
         60823 MiB available memory on the node where the printing process lives
------------------
     ethr =  1.65E-05,  avg # of iterations =  3.0

     negative rho (up, down):  1.133E-02 0.000E+00

     add environment contribution to local potential

     total cpu time spent up to now is        1.3 secs

     total energy              =    -186.07713681 Ry
     estimated scf accuracy    <       0.00260720 Ry
     electrostatic embedding   =       0.00015749 Ry
     correction to one-el term =       2.55949595 Ry

     iteration #  7     ecut=    20.00 Ry     beta= 0.70
     Davidson diagonalization with overlap

---- Real-time Memory Report at c_bands before calling an iterative solver
           105 MiB given to the printing process from OS
             0 MiB allocation reported by mallinfo(arena+hblkhd)
         60819 MiB available memory on the node where the printing process lives
------------------
     ethr =  1.63E-05,  avg # of iterations =  1.0

     negative rho (up, down):  1.032E-02 0.000E+00

     add environment contribution to local potential

     total cpu time spent up to now is        1.5 secs

     total energy              =    -186.07651648 Ry
     estimated scf accuracy    <       0.00139164 Ry
     electrostatic embedding   =       0.00015765 Ry
     correction to one-el term =       2.56092514 Ry

     iteration #  8     ecut=    20.00 Ry     beta= 0.70
     Davidson diagonalization with overlap

---- Real-time Memory Report at c_bands before calling an iterative solver
           106 MiB given to the printing process from OS
             0 MiB allocation reported by mallinfo(arena+hblkhd)
         60818 MiB available memory on the node where the printing process lives
------------------
     ethr =  8.70E-06,  avg # of iterations =  3.0

     negative rho (up, down):  9.498E-03 0.000E+00

     add environment contribution to local potential

     total cpu time spent up to now is        1.6 secs

     total energy              =    -186.07703469 Ry
     estimated scf accuracy    <       0.00031919 Ry
     electrostatic embedding   =       0.00015832 Ry
     correction to one-el term =       2.57470994 Ry

     iteration #  9     ecut=    20.00 Ry     beta= 0.70
     Davidson diagonalization with overlap

---- Real-time Memory Report at c_bands before calling an iterative solver
           107 MiB given to the printing process from OS
             0 MiB allocation reported by mallinfo(arena+hblkhd)
         60816 MiB available memory on the node where the printing process lives
------------------
     ethr =  2.00E-06,  avg # of iterations =  4.0

     negative rho (up, down):  8.140E-03 0.000E+00

     add environment contribution to local potential

     total cpu time spent up to now is        1.8 secs

     total energy              =    -186.07647223 Ry
     estimated scf accuracy    <       0.00158633 Ry
     electrostatic embedding   =       0.00015904 Ry
     correction to one-el term =       2.58877795 Ry

     iteration # 10     ecut=    20.00 Ry     beta= 0.70
     Davidson diagonalization with overlap

---- Real-time Memory Report at c_bands before calling an iterative solver
           109 MiB given to the printing process from OS
             0 MiB allocation reported by mallinfo(arena+hblkhd)
         60811 MiB available memory on the node where the printing process lives
------------------
     ethr =  2.00E-06,  avg # of iterations =  3.0

     negative rho (up, down):  7.381E-03 0.000E+00

     add environment contribution to local potential

     total cpu time spent up to now is        1.9 secs

     total energy              =    -186.07695450 Ry
     estimated scf accuracy    <       0.00016387 Ry
     electrostatic embedding   =       0.00016113 Ry
     correction to one-el term =       2.62792038 Ry

     iteration # 11     ecut=    20.00 Ry     beta= 0.70
     Davidson diagonalization with overlap

---- Real-time Memory Report at c_bands before calling an iterative solver
           110 MiB given to the printing process from OS
             0 MiB allocation reported by mallinfo(arena+hblkhd)
         60810 MiB available memory on the node where the printing process lives
------------------
     ethr =  1.02E-06,  avg # of iterations =  4.0

     negative rho (up, down):  5.903E-03 0.000E+00

     add environment contribution to local potential

     total cpu time spent up to now is        2.1 secs

     total energy              =    -186.07662588 Ry
     estimated scf accuracy    <       0.00139935 Ry
     electrostatic embedding   =       0.00016251 Ry
     correction to one-el term =       2.64900883 Ry

     iteration # 12     ecut=    20.00 Ry     beta= 0.70
     Davidson diagonalization with overlap

---- Real-time Memory Report at c_bands before calling an iterative solver
           111 MiB given to the printing process from OS
             0 MiB allocation reported by mallinfo(arena+hblkhd)
         60810 MiB available memory on the node where the printing process lives
------------------
     ethr =  1.02E-06,  avg # of iterations =  4.0

     negative rho (up, down):  4.666E-03 0.000E+00

     add environment contribution to local potential

     total cpu time spent up to now is        2.2 secs

     total energy              =    -186.07674794 Ry
     estimated scf accuracy    <       0.00005438 Ry
     electrostatic embedding   =       0.00016497 Ry
     correction to one-el term =       2.67958908 Ry

     iteration # 13     ecut=    20.00 Ry     beta= 0.70
     Davidson diagonalization with overlap

---- Real-time Memory Report at c_bands before calling an iterative solver
           111 MiB given to the printing process from OS
             0 MiB allocation reported by mallinfo(arena+hblkhd)
         60810 MiB available memory on the node where the printing process lives
------------------
     ethr =  3.40E-07,  avg # of iterations =  3.0

     negative rho (up, down):  3.791E-03 0.000E+00

     add environment contribution to local potential

     total cpu time spent up to now is        2.4 secs

     total energy              =    -186.07677781 Ry
     estimated scf accuracy    <       0.00002850 Ry
     electrostatic embedding   =       0.00016759 Ry
     correction to one-el term =       2.70810742 Ry

     iteration # 14     ecut=    20.00 Ry     beta= 0.70
     Davidson diagonalization with overlap

---- Real-time Memory Report at c_bands before calling an iterative solver
           113 MiB given to the printing process from OS
             0 MiB allocation reported by mallinfo(arena+hblkhd)
         60804 MiB available memory on the node where the printing process lives
------------------
     ethr =  1.78E-07,  avg # of iterations =  3.0

     negative rho (up, down):  3.715E-03 0.000E+00

     add environment contribution to local potential

     total cpu time spent up to now is        2.5 secs

     total energy              =    -186.07674922 Ry
     estimated scf accuracy    <       0.00009470 Ry
     electrostatic embedding   =       0.00017001 Ry
     correction to one-el term =       2.73389197 Ry

     iteration # 15     ecut=    20.00 Ry     beta= 0.70
     Davidson diagonalization with overlap

---- Real-time Memory Report at c_bands before calling an iterative solver
           114 MiB given to the printing process from OS
             0 MiB allocation reported by mallinfo(arena+hblkhd)
         60804 MiB available memory on the node where the printing process lives
------------------
     ethr =  1.78E-07,  avg # of iterations =  3.0

     negative rho (up, down):  3.733E-03 0.000E+00

     add environment contribution to local potential

     total cpu time spent up to now is        2.7 secs

     total energy              =    -186.07676443 Ry
     estimated scf accuracy    <       0.00000026 Ry
     electrostatic embedding   =       0.00017059 Ry
     correction to one-el term =       2.73961211 Ry

     iteration # 16     ecut=    20.00 Ry     beta= 0.70
     Davidson diagonalization with overlap

---- Real-time Memory Report at c_bands before calling an iterative solver
           115 MiB given to the printing process from OS
             0 MiB allocation reported by mallinfo(arena+hblkhd)
         60802 MiB available memory on the node where the printing process lives
------------------
     ethr =  1.61E-09,  avg # of iterations =  6.0

     negative rho (up, down):  3.749E-03 0.000E+00

     add environment contribution to local potential

     total cpu time spent up to now is        2.9 secs

     total energy              =    -186.07676487 Ry
     estimated scf accuracy    <       0.00000063 Ry
     electrostatic embedding   =       0.00017072 Ry
     correction to one-el term =       2.74042424 Ry

     iteration # 17     ecut=    20.00 Ry     beta= 0.70
     Davidson diagonalization with overlap

---- Real-time Memory Report at c_bands before calling an iterative solver
           116 MiB given to the printing process from OS
             0 MiB allocation reported by mallinfo(arena+hblkhd)
         60802 MiB available memory on the node where the printing process lives
------------------
     ethr =  1.61E-09,  avg # of iterations =  3.0

     negative rho (up, down):  3.446E-03 0.000E+00

     the potential shift due to the Gaussian-smeared nuclei is    -0.1033 ev

     total cpu time spent up to now is        3.0 secs

     End of self-consistent calculation

          k = 0.0000 0.0000 0.0000 (  5049 PWs)   bands (ev):

   -17.6659 -15.4422 -12.1861  -8.7426  -8.7277  -8.2513  -7.3172  -6.1898
    -5.6277  -5.1819  -4.8956  -3.8225

     occupation numbers 
     1.0000   1.0000   1.0000   1.0000   1.0000   1.0000   1.0000   1.0000
     0.0000   0.0000   0.0000   0.0000

     the Fermi energy is    -6.1802 ev

     WARNING: integrated charge=    16.00000000, expected=    15.99900000

!    total energy              =    -186.07676515 Ry

     total all-electron energy =     -2319.460225 Ry
     estimated scf accuracy    <          2.7E-09 Ry
     smearing contrib. (-TS)   =       0.00000000 Ry
     internal energy E=F+TS    =    -186.07676515 Ry

     The total energy is F=E-TS. E is the sum of the following terms:
     one-electron contribution =    -418.63727489 Ry
     hartree contribution      =     210.10953374 Ry
     xc contribution           =     -24.23234779 Ry
     ewald contribution        =     186.30364135 Ry
     one-center paw contrib.   =    -142.36061974 Ry
      -> PAW hartree energy AE =       2.57512677 Ry
      -> PAW hartree energy PS =      -2.56379010 Ry
      -> PAW xc energy AE      =     -40.72293049 Ry
      -> PAW xc energy PS      =       5.12511133 Ry
      -> total E_H with PAW    =     210.12087041 Ry
      -> total E_XC with PAW   =     -59.83016695 Ry
     electrostatic embedding   =       0.00017071 Ry
     correction to one-el term =       2.74013147 Ry

     WARNING: you are using the parabolic pbc correction;
              the potential shift above must be added to 
              band and Fermi energies.

     convergence has been achieved in  17 iterations

     negative rho (up, down):  3.446E-03 0.000E+00
     The global environment contribution to forces
     atom    1 type  1   force =     0.00000000    0.00000000    0.00011596
     atom    2 type  1   force =     0.00000000    0.00000000   -0.00011936
     atom    3 type  1   force =     0.00000000    0.00000000   -0.00004092
     atom    4 type  1   force =     0.00000000    0.00000000    0.00003752
 

     Forces acting on atoms (cartesian axes, Ry/au):

     atom    1 type  1   force =     0.00000000    0.00000000    0.00496763
     atom    2 type  1   force =     0.00000000    0.00000000   -0.00496763
     atom    3 type  1   force =     0.00000000    0.00000000    0.00050672
     atom    4 type  1   force =     0.00000000    0.00000000   -0.00050672
     The non-local contrib.  to forces
     atom    1 type  1   force =     0.00000000    0.00000000   -0.01517943
     atom    2 type  1   force =     0.00000000    0.00000000    0.01517943
     atom    3 type  1   force =     0.00000000    0.00000000   -0.05443784
     atom    4 type  1   force =     0.00000000    0.00000000    0.05443784
     The ionic contribution  to forces
     atom    1 type  1   force =    -0.00000000   -0.00000000    8.79312658
     atom    2 type  1   force =    -0.00000000   -0.00000000   -8.79312658
     atom    3 type  1   force =     0.00000000    0.00000000   -2.98930598
     atom    4 type  1   force =    -0.00000000    0.00000000    2.98930598
     The local contribution  to forces
     atom    1 type  1   force =     0.00000000   -0.00000000   -8.77264619
     atom    2 type  1   force =     0.00000000    0.00000000    8.77264619
     atom    3 type  1   force =    -0.00000000    0.00000000    3.03883877
     atom    4 type  1   force =     0.00000000    0.00000000   -3.03883877
     The core correction contribution to forces
     atom    1 type  1   force =     0.00000000    0.00000000   -0.00046539
     atom    2 type  1   force =     0.00000000    0.00000000    0.00046539
     atom    3 type  1   force =    -0.00000000   -0.00000000    0.00546783
     atom    4 type  1   force =     0.00000000    0.00000000   -0.00546783
     The Hubbard contrib.    to forces
     atom    1 type  1   force =     0.00000000    0.00000000    0.00000000
     atom    2 type  1   force =     0.00000000    0.00000000    0.00000000
     atom    3 type  1   force =     0.00000000    0.00000000    0.00000000
     atom    4 type  1   force =     0.00000000    0.00000000    0.00000000
     The SCF correction term to forces
     atom    1 type  1   force =     0.00000000    0.00000000    0.00001419
     atom    2 type  1   force =    -0.00000001    0.00000000   -0.00001460
     atom    3 type  1   force =     0.00000001   -0.00000000   -0.00001703
     atom    4 type  1   force =    -0.00000000   -0.00000000    0.00001665

     Total force =     0.007062     Total SCF correction =     0.000031

     Writing output data file /ascldap/users/qcampbe/Codes/espresso/skybridge/q-e-qe-6.8/tempdir/scf.save/
 
     init_run     :      0.18s CPU      0.22s WALL (       1 calls)
     electrons    :      2.57s CPU      2.67s WALL (       1 calls)
     forces       :      0.06s CPU      0.06s WALL (       1 calls)

     Called by init_run:
     wfcinit      :      0.00s CPU      0.01s WALL (       1 calls)
     wfcinit:atom :      0.00s CPU      0.00s WALL (       1 calls)
     wfcinit:wfcr :      0.00s CPU      0.01s WALL (       1 calls)
     potinit      :      0.08s CPU      0.09s WALL (       1 calls)
     hinit0       :      0.07s CPU      0.07s WALL (       1 calls)

     Called by electrons:
     c_bands      :      0.22s CPU      0.23s WALL (      17 calls)
     sum_band     :      0.20s CPU      0.21s WALL (      17 calls)
     v_of_rho     :      0.07s CPU      0.07s WALL (      18 calls)
     v_h          :      0.00s CPU      0.00s WALL (      18 calls)
     v_xc         :      0.07s CPU      0.07s WALL (      19 calls)
     newd         :      0.15s CPU      0.16s WALL (      18 calls)
     PAW_pot      :      1.20s CPU      1.23s WALL (      18 calls)
     mix_rho      :      0.76s CPU      0.79s WALL (      17 calls)

     Called by c_bands:
     init_us_2    :      0.01s CPU      0.01s WALL (      35 calls)
     cegterg      :      0.18s CPU      0.19s WALL (      17 calls)

     Called by sum_band:
     sum_band:wei :      0.00s CPU      0.00s WALL (      17 calls)
     sum_band:loo :      0.03s CPU      0.03s WALL (      17 calls)
     sum_band:buf :      0.00s CPU      0.00s WALL (      17 calls)
     sum_band:ini :      0.00s CPU      0.00s WALL (      17 calls)
     sum_band:cal :      0.00s CPU      0.00s WALL (      17 calls)
     sum_band:bec :      0.00s CPU      0.00s WALL (      17 calls)
     addusdens    :      0.16s CPU      0.16s WALL (      17 calls)
     addusd:skk   :      0.00s CPU      0.00s WALL (      17 calls)
     addusd:dgemm :      0.05s CPU      0.05s WALL (      17 calls)
     addusd:qvan2 :      0.09s CPU      0.09s WALL (      17 calls)

     Called by *egterg:
     cdiaghg      :      0.02s CPU      0.02s WALL (      74 calls)
     cegterg:over :      0.01s CPU      0.01s WALL (      57 calls)
     cegterg:upda :      0.00s CPU      0.00s WALL (      57 calls)
     cegterg:last :      0.00s CPU      0.00s WALL (      38 calls)
     h_psi        :      0.14s CPU      0.14s WALL (      75 calls)
     s_psi        :      0.01s CPU      0.01s WALL (      75 calls)
     g_psi        :      0.00s CPU      0.00s WALL (      57 calls)

     Called by h_psi:
     h_psi:calbec :      0.01s CPU      0.01s WALL (      75 calls)
     vloc_psi     :      0.11s CPU      0.12s WALL (      75 calls)
     add_vuspsi   :      0.01s CPU      0.01s WALL (      75 calls)

     General routines
     calbec       :      0.02s CPU      0.02s WALL (      96 calls)
     fft          :      0.03s CPU      0.03s WALL (     209 calls)
     ffts         :      0.38s CPU      0.39s WALL (    3047 calls)
     fftw         :      0.12s CPU      0.13s WALL (    1380 calls)
 
     Parallel routines

     PAW routines
     PAW_pot      :      1.20s CPU      1.23s WALL (      18 calls)
     PAW_symme    :      0.00s CPU      0.00s WALL (      35 calls)
 
     Environ routines
 
     PWSCF        :      2.93s CPU      3.18s WALL

 
   This run was terminated on:   9:56:32   4Jan2022            

=------------------------------------------------------------------------------=
   JOB DONE.
=------------------------------------------------------------------------------=
