
     Program PWSCF v.6.7MaX starts on  1Oct2021 at 21: 6:47 

     This program is part of the open-source Quantum ESPRESSO suite
     for quantum simulation of materials; please cite
         "P. Giannozzi et al., J. Phys.:Condens. Matter 21 395502 (2009);
         "P. Giannozzi et al., J. Phys.:Condens. Matter 29 465901 (2017);
          URL http://www.quantum-espresso.org", 
     in publications or presentations arising from this work. More details at
     http://www.quantum-espresso.org/quote

     Parallel version (MPI), running on     1 processors

     MPI processes distributed on     1 nodes
     Reading input from cation.in

     Current dimensions of program PWSCF are:
     Max number of different atomic species (ntypx) = 10
     Max number of k-points (npk) =  40000
     Max angular momentum in pseudopotentials (lmaxx) =  3

     Reading input from environ.in

     ================================================================================

     Reading ENVIRON namelist

     Reading BOUNDARY namelist

     Checking boundary derivatives
     derivatives               = lowmem         ! SSCS default

     Setting up water-cation environment (solvent mode = ionic)
     env_static_permittivity   = 78.3D0         
     env_optical_permittivity  = 1.D0           
     radius_mode               = uff            
     softness                  = 0.5D0          
     env_surface_tension       = 50.D0          
     env_pressure              = -0.35D0        
     alpha                     = 1.10D0         

     Reading ELECTROSTATIC namelist

     Setting up electrostatic problem
     problem                   = generalized    
     solver                    = cg             

     Checking PBC correction
     pbc_correction            = none           ! default

     ================================================================================
 
     file C.pbe-rrkjus.UPF: wavefunction(s)  2S 2P renormalized
     file H.pbe-rrkjus.UPF: wavefunction(s)  1S renormalized
     file N.pbe-rrkjus.UPF: wavefunction(s)  2S renormalized
     file O.pbe-rrkjus.UPF: wavefunction(s)  2S renormalized

     gamma-point specific algorithms are used

     Subspace diagonalization in iterative solution of the eigenvalue problem:
     a serial algorithm will be used

 
     G-vector sticks info
     --------------------
     sticks:   dense  smooth     PW     G-vecs:    dense   smooth      PW
     Sum        9549    3809    949               701475   177509   22119
 


     bravais-lattice index     =            1
     lattice parameter (alat)  =      20.0000  a.u.
     unit-cell volume          =    8000.0000 (a.u.)^3
     number of atoms/cell      =           10
     number of atomic types    =            4
     number of electrons       =        24.00
     number of Kohn-Sham states=           12
     kinetic-energy cutoff     =      30.0000  Ry
     charge density cutoff     =     300.0000  Ry
     scf convergence threshold =      1.0E-03
     mixing beta               =       0.7000
     number of iterations used =            8  plain     mixing
     Exchange-correlation= SLA  PW   PBE  PBE
                           (   1   4   3   4   0   0   0)
 

     Environ Module
     ==============

     Please cite
         O. Andreussi, I. Dabo and N. Marzari, J. Chem. Phys. 136, 064102 (2012)         
     in publications or presentations arising from this work.

     compensation onset threshold      =               0.1000E+03
     static permittivity               =                    78.30
     epsilon calculation mode          =                    ionic
     surface tension in input (dyn/cm) =                    50.00
     surface tension in internal units =               0.6423E-04
     external pressure in input (GPa)  =                    -0.35
     external pressure in inter. units =              -0.2379E-04

     Electrostatic Setup
     -------------------
     electrostatic problem to solve    = generalized             
     numerical solver adopted          = cg                      
     type of auxiliary density adopted = none                    
     type of core tool for poisson     = fft                     



     celldm(1)=  20.000000  celldm(2)=   0.000000  celldm(3)=   0.000000
     celldm(4)=   0.000000  celldm(5)=   0.000000  celldm(6)=   0.000000

     crystal axes: (cart. coord. in units of alat)
               a(1) = (   1.000000   0.000000   0.000000 )  
               a(2) = (   0.000000   1.000000   0.000000 )  
               a(3) = (   0.000000   0.000000   1.000000 )  

     reciprocal axes: (cart. coord. in units 2 pi/alat)
               b(1) = (  1.000000  0.000000  0.000000 )  
               b(2) = (  0.000000  1.000000  0.000000 )  
               b(3) = (  0.000000  0.000000  1.000000 )  


     PseudoPot. # 1 for C  read from file:
     /home/simplogic86/Work/QE1/Environ/tests/../..//pseudo/C.pbe-rrkjus.UPF
     MD5 check sum: c9ac5a99bc85b198593446162950cd17
     Pseudo is Ultrasoft, Zval =  4.0
     Generated by new atomic code, or converted to UPF format
     Using radial grid of  627 points,  4 beta functions with: 
                l(1) =   0
                l(2) =   0
                l(3) =   1
                l(4) =   1
     Q(r) pseudized with 0 coefficients 


     PseudoPot. # 2 for H  read from file:
     /home/simplogic86/Work/QE1/Environ/tests/../..//pseudo/H.pbe-rrkjus.UPF
     MD5 check sum: 2d52a7f45632fd764c17cc6affed14c8
     Pseudo is Ultrasoft, Zval =  1.0
     Generated by new atomic code, or converted to UPF format
     Using radial grid of 1061 points,  2 beta functions with: 
                l(1) =   0
                l(2) =   0
     Q(r) pseudized with 0 coefficients 


     PseudoPot. # 3 for N  read from file:
     /home/simplogic86/Work/QE1/Environ/tests/../..//pseudo/N.pbe-rrkjus.UPF
     MD5 check sum: 28c76d763763edb36c62a6ca2be9aebd
     Pseudo is Ultrasoft, Zval =  5.0
     Generated by new atomic code, or converted to UPF format
     Using radial grid of 1257 points,  4 beta functions with: 
                l(1) =   0
                l(2) =   0
                l(3) =   1
                l(4) =   1
     Q(r) pseudized with 0 coefficients 


     PseudoPot. # 4 for O  read from file:
     /home/simplogic86/Work/QE1/Environ/tests/../..//pseudo/O.pbe-rrkjus.UPF
     MD5 check sum: fadcf19ee70a498d3030e2e79cf929a4
     Pseudo is Ultrasoft, Zval =  6.0
     Generated by new atomic code, or converted to UPF format
     Using radial grid of 1269 points,  4 beta functions with: 
                l(1) =   0
                l(2) =   0
                l(3) =   1
                l(4) =   1
     Q(r) pseudized with 0 coefficients 


     atomic species   valence    mass     pseudopotential
        C              4.00    12.00000     C ( 1.00)
        H              1.00     1.00000     H ( 1.00)
        N              5.00    14.00000     N ( 1.00)
        O              6.00    16.00000     O ( 1.00)

     No symmetry found



   Cartesian axes

     site n.     atom                  positions (alat units)
         1           C   tau(   1) = (   0.0000000   0.0000000   0.0000000  )
         2           C   tau(   2) = (   0.0000000   0.0000000   0.1455089  )
         3           N   tau(   3) = (   0.1170969   0.0000000  -0.0545024  )
         4           H   tau(   4) = (   0.0476617  -0.0825466   0.1792090  )
         5           H   tau(   5) = (  -0.0953183  -0.0000030   0.1792090  )
         6           H   tau(   6) = (   0.0476566   0.0825496   0.1792090  )
         7           O   tau(   7) = (  -0.0984002  -0.0000019  -0.0641310  )
         8           H   tau(   8) = (   0.1263131  -0.0000015  -0.1475548  )
         9           H   tau(   9) = (   0.1944645   0.0000134  -0.0025716  )
        10           H   tau(  10) = (  -0.0770366  -0.0000045  -0.1522861  )

     number of k points=     1
                       cart. coord. in units 2pi/alat
        k(    1) = (   0.0000000   0.0000000   0.0000000), wk =   2.0000000

     Dense  grid:   350738 G-vectors     FFT dimensions: ( 120, 120, 120)

     Smooth grid:    88755 G-vectors     FFT dimensions: (  72,  72,  72)

     Estimated max dynamical RAM per process >     624.11 MB

     Initial potential from superposition of free atoms

     starting charge   24.42266, renormalised to   24.00000

     negative rho (up, down):  4.438E-04 0.000E+00
     Starting wfcs are   22 randomized atomic wfcs

     total cpu time spent up to now is       13.0 secs

     Self-consistent Calculation

     iteration #  1     ecut=    30.00 Ry     beta= 0.70
     Davidson diagonalization with overlap
     ethr =  1.00E-02,  avg # of iterations =  2.0

     negative rho (up, down):  1.234E-04 0.000E+00

     add environment contribution to local potential
     Polarization accuracy = 5.2E-06, # of iterations =  17

     total cpu time spent up to now is       17.5 secs

     total energy              =     -80.28575979 Ry
     estimated scf accuracy    <       3.64924908 Ry
     electrostatic embedding   =       0.00000000 Ry
     cavitation energy         =       0.02741319 Ry
     PV energy                 =      -0.01754709 Ry
     correction to one-el term =       0.00000000 Ry

     iteration #  2     ecut=    30.00 Ry     beta= 0.70
     Davidson diagonalization with overlap
     ethr =  1.00E-02,  avg # of iterations =  5.0

     negative rho (up, down):  6.327E-04 0.000E+00

     add environment contribution to local potential
     Polarization accuracy = 5.1E-06, # of iterations =  17

     total cpu time spent up to now is       21.1 secs

     total energy              =     -81.05341425 Ry
     estimated scf accuracy    <       1.29857500 Ry
     electrostatic embedding   =      -0.16694273 Ry
     cavitation energy         =       0.02741319 Ry
     PV energy                 =      -0.01754709 Ry
     correction to one-el term =      -4.75973643 Ry

     iteration #  3     ecut=    30.00 Ry     beta= 0.70
     Davidson diagonalization with overlap
     ethr =  5.41E-03,  avg # of iterations =  4.0

     negative rho (up, down):  2.485E-04 0.000E+00

     add environment contribution to local potential
     Polarization accuracy = 5.7E-06, # of iterations =  17

     total cpu time spent up to now is       24.5 secs

     total energy              =     -81.30965168 Ry
     estimated scf accuracy    <       0.14698899 Ry
     electrostatic embedding   =      -0.13605515 Ry
     cavitation energy         =       0.02741319 Ry
     PV energy                 =      -0.01754709 Ry
     correction to one-el term =      -4.16780723 Ry

     iteration #  4     ecut=    30.00 Ry     beta= 0.70
     Davidson diagonalization with overlap
     ethr =  6.12E-04,  avg # of iterations =  5.0

     negative rho (up, down):  1.072E-04 0.000E+00

     add environment contribution to local potential
     Polarization accuracy = 4.3E-06, # of iterations =  17

     total cpu time spent up to now is       28.7 secs

     total energy              =     -81.35335233 Ry
     estimated scf accuracy    <       0.01990944 Ry
     electrostatic embedding   =      -0.10673105 Ry
     cavitation energy         =       0.02741319 Ry
     PV energy                 =      -0.01754709 Ry
     correction to one-el term =      -3.84768666 Ry

     iteration #  5     ecut=    30.00 Ry     beta= 0.70
     Davidson diagonalization with overlap
     ethr =  8.30E-05,  avg # of iterations =  4.0

     negative rho (up, down):  7.424E-05 0.000E+00

     add environment contribution to local potential
     Polarization accuracy = 4.2E-06, # of iterations =  17

     total cpu time spent up to now is       33.1 secs

     total energy              =     -81.35762120 Ry
     estimated scf accuracy    <       0.00167702 Ry
     electrostatic embedding   =      -0.09366649 Ry
     cavitation energy         =       0.02741319 Ry
     PV energy                 =      -0.01754709 Ry
     correction to one-el term =      -3.50820054 Ry

     iteration #  6     ecut=    30.00 Ry     beta= 0.70
     Davidson diagonalization with overlap
     ethr =  6.99E-06,  avg # of iterations =  2.0

     negative rho (up, down):  2.797E-04 0.000E+00

     the potential shift due to the Gaussian-smeared nuclei is    -0.0668 ev

     total cpu time spent up to now is       34.4 secs

     End of self-consistent calculation

          k = 0.0000 0.0000 0.0000 ( 11060 PWs)   bands (ev):

   -29.4569 -23.5111 -18.9329 -16.4823 -15.0850 -13.8395 -12.0400 -11.3418
    -9.8283  -9.8265  -9.6604  -7.7562

     highest occupied level (ev):    -7.7562

!    total energy              =     -81.35798311 Ry
     estimated scf accuracy    <       0.00020821 Ry

     The total energy is the sum of the following terms:
     one-electron contribution =    -242.06586342 Ry
     hartree contribution      =     122.88079314 Ry
     xc contribution           =     -22.92801000 Ry
     ewald contribution        =      64.30784069 Ry
     electrostatic embedding   =      -0.09264554 Ry
     cavitation energy         =       0.02741319 Ry
     PV energy                 =      -0.01754709 Ry
     correction to one-el term =      -3.46996407 Ry

     convergence has been achieved in   6 iterations

     Forces acting on atoms (cartesian axes, Ry/au):

     atom    1 type  1   force =     0.22699705   -0.00001291    0.10432188
     atom    2 type  1   force =    -0.03285937   -0.00001311   -0.08367094
     atom    3 type  3   force =    -0.14303244   -0.00003031    0.04512968
     atom    4 type  2   force =     0.01984579   -0.02966804    0.00750741
     atom    5 type  2   force =    -0.03191834    0.00001416    0.01061457
     atom    6 type  2   force =     0.01984562    0.02970002    0.00751271
     atom    7 type  4   force =    -0.09926261   -0.00004142   -0.00685488
     atom    8 type  2   force =     0.00999322    0.00001680   -0.05421347
     atom    9 type  2   force =     0.04266522    0.00001785    0.03495319
     atom   10 type  2   force =    -0.01227416    0.00001695   -0.06530015

     Total force =     0.342310     Total SCF correction =     0.016482

     Writing output data file /home/simplogic86/Work/QE1/Environ/tests/../..//tempdir/pwscf.save/
 
     init_run     :     11.95s CPU     12.94s WALL (       1 calls)
     electrons    :     19.55s CPU     21.41s WALL (       1 calls)
     forces       :     17.02s CPU     17.14s WALL (       1 calls)

     Called by init_run:
     wfcinit      :      0.18s CPU      0.18s WALL (       1 calls)
     potinit      :      0.56s CPU      0.60s WALL (       1 calls)
     hinit0       :     10.41s CPU     11.17s WALL (       1 calls)

     Called by electrons:
     c_bands      :      1.25s CPU      1.33s WALL (       6 calls)
     sum_band     :      2.58s CPU      3.04s WALL (       6 calls)
     v_of_rho     :      3.05s CPU      3.40s WALL (       7 calls)
     newd         :      1.85s CPU      2.37s WALL (       7 calls)
     mix_rho      :      0.33s CPU      0.38s WALL (       6 calls)

     Called by c_bands:
     init_us_2    :      0.04s CPU      0.04s WALL (      13 calls)
     regterg      :      1.16s CPU      1.24s WALL (       6 calls)

     Called by *egterg:
     rdiaghg      :      0.01s CPU      0.01s WALL (      28 calls)
     h_psi        :      1.20s CPU      1.29s WALL (      29 calls)
     s_psi        :      0.03s CPU      0.03s WALL (      29 calls)
     g_psi        :      0.00s CPU      0.00s WALL (      22 calls)

     Called by h_psi:
     h_psi:calbec :      0.03s CPU      0.03s WALL (      29 calls)
     vloc_psi     :      1.14s CPU      1.23s WALL (      29 calls)
     add_vuspsi   :      0.03s CPU      0.03s WALL (      29 calls)

     General routines
     calbec       :      0.04s CPU      0.04s WALL (      39 calls)
     fft          :      1.36s CPU      1.69s WALL (      77 calls)
     ffts         :      0.04s CPU      0.04s WALL (      13 calls)
     fftw         :      0.94s CPU      1.00s WALL (     282 calls)
     interpolate  :      0.17s CPU      0.17s WALL (       7 calls)
 
     Parallel routines
 
     Environ routines
 
     PWSCF        :     48.62s CPU     51.60s WALL

 
   This run was terminated on:  21: 7:39   1Oct2021            

=------------------------------------------------------------------------------=
   JOB DONE.
=------------------------------------------------------------------------------=

%%%% CELL %%%%%%%%%%%%%%%%%%%%%%%%%%%%%%%%%%%%%%%%%%%%%%%%%%%%%%%%%%%%%%%%%%%%%%

 cell label                 = system         

 cell volume                =    8000.000000

%%%% IONS %%%%%%%%%%%%%%%%%%%%%%%%%%%%%%%%%%%%%%%%%%%%%%%%%%%%%%%%%%%%%%%%%%%%%%

 total charge               =    -25.0000000
 center of charge           =      0.1910593    -0.0000030     0.1279620
 dipole                     =      0.0000000     0.0000000     0.0000000
 quadrupole (pc)            =    -79.0828051    -5.4513517  -105.8059620
 quadrupole (gauss)         =    -82.2078051    -8.5763517  -108.9309620

   i | type | coordinates
 -----------------------------------------------------------------------
   1 |    1 |                      0.0000000     0.0000000     0.0000000
   2 |    1 |                      0.0000000     0.0000000     2.9101782
   3 |    3 |                      2.3419379     0.0000000    -1.0900479
   4 |    2 |                      0.9532347    -1.6509323     3.5841800
   5 |    2 |                     -1.9063663    -0.0000596     3.5841809
   6 |    2 |                      0.9531315     1.6509919     3.5841800
   7 |    4 |                     -1.9680045    -0.0000375    -1.2826193
   8 |    2 |                      2.5262613    -0.0000303    -2.9510950
   9 |    2 |                      3.8892907     0.0002681    -0.0514326
  10 |    2 |                     -1.5407317    -0.0000890    -3.0457220

%%%% SYSTEM %%%%%%%%%%%%%%%%%%%%%%%%%%%%%%%%%%%%%%%%%%%%%%%%%%%%%%%%%%%%%%%%%%%%

 system is built from all present ionic types

 system defined dimension   =              0
 system defined axis        =              3

 system center              =      0.1910593    -0.0000030     0.1279620
 system width               =      4.0428509

%%%% IONS %%%%%%%%%%%%%%%%%%%%%%%%%%%%%%%%%%%%%%%%%%%%%%%%%%%%%%%%%%%%%%%%%%%%%%

 total charge               =    -25.0000000
 center of charge           =      0.1910593    -0.0000030     0.1279620
 dipole                     =      0.0000000     0.0000000     0.0000000
 quadrupole (pc)            =    -79.0828051    -5.4513517  -105.8059620
 quadrupole (gauss)         =    -82.2078051    -8.5763517  -108.9309620

   i | type | coordinates
 -----------------------------------------------------------------------
   1 |    1 |                      0.0000000     0.0000000     0.0000000
   2 |    1 |                      0.0000000     0.0000000     2.9101782
   3 |    3 |                      2.3419379     0.0000000    -1.0900479
   4 |    2 |                      0.9532347    -1.6509323     3.5841800
   5 |    2 |                     -1.9063663    -0.0000596     3.5841809
   6 |    2 |                      0.9531315     1.6509919     3.5841800
   7 |    4 |                     -1.9680045    -0.0000375    -1.2826193
   8 |    2 |                      2.5262613    -0.0000303    -2.9510950
   9 |    2 |                      3.8892907     0.0002681    -0.0514326
  10 |    2 |                     -1.5407317    -0.0000890    -3.0457220

%%%% SYSTEM %%%%%%%%%%%%%%%%%%%%%%%%%%%%%%%%%%%%%%%%%%%%%%%%%%%%%%%%%%%%%%%%%%%%

 system is built from all present ionic types

 system defined dimension   =              0
 system defined axis        =              3

 system center              =      0.1910593    -0.0000030     0.1279620
 system width               =      4.0428509

%%%% BOUNDARY %%%%%%%%%%%%%%%%%%%%%%%%%%%%%%%%%%%%%%%%%%%%%%%%%%%%%%%%%%%%%%%%%%

 boundary label             = solvent             
 boundary mode              = ionic               

 boundary is built from soft-spheres centered on ionic positions:
 solvent-dependent scaling  =      1.1000000
 softness parameter         =      0.5000000

 volume of the QM region    =    737.5043987

 surface of the QM region   =    426.7939613

%%%% CHARGES %%%%%%%%%%%%%%%%%%%%%%%%%%%%%%%%%%%%%%%%%%%%%%%%%%%%%%%%%%%%%%%%%%%

 total number of charges    =             11

 total charge               =    -25.0000000

%%%% CHARGES %%%%%%%%%%%%%%%%%%%%%%%%%%%%%%%%%%%%%%%%%%%%%%%%%%%%%%%%%%%%%%%%%%%

 total number of charges    =             11

 total charge               =    -25.0000000

%%%% CELL %%%%%%%%%%%%%%%%%%%%%%%%%%%%%%%%%%%%%%%%%%%%%%%%%%%%%%%%%%%%%%%%%%%%%%

 cell label                 = system         

 cell volume                =    8000.000000

%%%% ELECTRONS %%%%%%%%%%%%%%%%%%%%%%%%%%%%%%%%%%%%%%%%%%%%%%%%%%%%%%%%%%%%%%%%%

 number of electrons        =             24

 total electronic charge    =     24.0000000

%%%% ELECTRONS %%%%%%%%%%%%%%%%%%%%%%%%%%%%%%%%%%%%%%%%%%%%%%%%%%%%%%%%%%%%%%%%%

 number of electrons        =             24

 total electronic charge    =     24.0000000

%%%% CHARGES %%%%%%%%%%%%%%%%%%%%%%%%%%%%%%%%%%%%%%%%%%%%%%%%%%%%%%%%%%%%%%%%%%%

 total number of charges    =             34

 total charge               =     -1.0000000

%%%% CHARGES %%%%%%%%%%%%%%%%%%%%%%%%%%%%%%%%%%%%%%%%%%%%%%%%%%%%%%%%%%%%%%%%%%%

 total number of charges    =             34

 total charge               =     -1.0000000

%%%% DENSITY %%%%%%%%%%%%%%%%%%%%%%%%%%%%%%%%%%%%%%%%%%%%%%%%%%%%%%%%%%%%%%%%%%%

 density label              = dvtot                                             

 integral of density        =    0.000000000    

%%%% DENSITY %%%%%%%%%%%%%%%%%%%%%%%%%%%%%%%%%%%%%%%%%%%%%%%%%%%%%%%%%%%%%%%%%%%

 density label              = vreference                                        

 integral of density        =    0.000000000    

%%%% DENSITY %%%%%%%%%%%%%%%%%%%%%%%%%%%%%%%%%%%%%%%%%%%%%%%%%%%%%%%%%%%%%%%%%%%

 density label              = velectrostatic                                    

 integral of density        =    0.000000000    

%%%% CHARGES %%%%%%%%%%%%%%%%%%%%%%%%%%%%%%%%%%%%%%%%%%%%%%%%%%%%%%%%%%%%%%%%%%%

 total number of charges    =             34

 total charge               =     -1.0000000

%%%% ELECTRONS %%%%%%%%%%%%%%%%%%%%%%%%%%%%%%%%%%%%%%%%%%%%%%%%%%%%%%%%%%%%%%%%%

 number of electrons        =             24

 total electronic charge    =     24.0000000

%%%% ELECTRONS %%%%%%%%%%%%%%%%%%%%%%%%%%%%%%%%%%%%%%%%%%%%%%%%%%%%%%%%%%%%%%%%%

 number of electrons        =             24

 total electronic charge    =     24.0000000

%%%% CHARGES %%%%%%%%%%%%%%%%%%%%%%%%%%%%%%%%%%%%%%%%%%%%%%%%%%%%%%%%%%%%%%%%%%%

 total number of charges    =             34

 total charge               =     -1.0000000

%%%% CHARGES %%%%%%%%%%%%%%%%%%%%%%%%%%%%%%%%%%%%%%%%%%%%%%%%%%%%%%%%%%%%%%%%%%%

 total number of charges    =             34

 total charge               =     -1.0000000

%%%% DENSITY %%%%%%%%%%%%%%%%%%%%%%%%%%%%%%%%%%%%%%%%%%%%%%%%%%%%%%%%%%%%%%%%%%%

 density label              = vreference                                        

 integral of density        =  -0.6906738556E-12

%%%% COMPUTE ELECTROSTATIC POTENTIAL %%%%%%%%%%%%%%%%%%%%%%%%%%%%%%%%%%%%%%%%%%%

   i |      alpha     |       pAp      |      rzold     |    delta_qm    |    delta_en    |       tol
 ---------------------------------------------------------------------------------------------------------
   1 |   0.961449E+00 |   0.930164E+02 |   0.894305E+02 |   0.228456E-01 |   0.901876E+03 |   0.100000E-04
   2 |   0.997991E-01 |   0.304179E+03 |   0.303568E+02 |   0.310806E-02 |   0.166925E+02 |   0.100000E-04
   3 |   0.194505E+00 |   0.105982E+01 |   0.206140E+00 |   0.143728E-02 |   0.356966E+01 |   0.100000E-04
   4 |   0.165707E+00 |   0.111518E+00 |   0.184792E-01 |   0.112165E-02 |   0.217400E+01 |   0.100000E-04
   5 |   0.270265E+00 |   0.153275E-01 |   0.414248E-02 |   0.768092E-03 |   0.101946E+01 |   0.100000E-04
   6 |   0.373280E+00 |   0.535526E-02 |   0.199901E-02 |   0.400257E-03 |   0.276835E+00 |   0.100000E-04
   7 |   0.299654E+00 |   0.249706E-02 |   0.748253E-03 |   0.262876E-03 |   0.119411E+00 |   0.100000E-04
   8 |   0.251598E+00 |   0.174842E-02 |   0.439898E-03 |   0.197456E-03 |   0.673728E-01 |   0.100000E-04
   9 |   0.512398E+00 |   0.402328E-03 |   0.206152E-03 |   0.106019E-03 |   0.194229E-01 |   0.100000E-04
  10 |   0.332806E+00 |   0.302493E-03 |   0.100671E-03 |   0.505172E-04 |   0.440984E-02 |   0.100000E-04
  11 |   0.333742E+00 |   0.559561E-04 |   0.186749E-04 |   0.356940E-04 |   0.220158E-02 |   0.100000E-04
  12 |   0.381107E+00 |   0.824257E-05 |   0.314130E-05 |   0.232209E-04 |   0.931752E-03 |   0.100000E-04
  13 |   0.482168E+00 |   0.271459E-05 |   0.130889E-05 |   0.135688E-04 |   0.318148E-03 |   0.100000E-04
  14 |   0.359579E+00 |   0.217314E-05 |   0.781413E-06 |   0.822002E-05 |   0.116759E-03 |   0.100000E-04
  15 |   0.364723E+00 |   0.785272E-06 |   0.286407E-06 |   0.505572E-05 |   0.441682E-04 |   0.100000E-04
  16 |   0.444033E+00 |   0.150856E-06 |   0.669850E-07 |   0.292589E-05 |   0.147931E-04 |   0.100000E-04
  17 |   0.362323E+00 |   0.723164E-07 |   0.262019E-07 |   0.173138E-05 |   0.517999E-05 |   0.100000E-04

 Charges are converged, EXIT

%%%% DENSITY %%%%%%%%%%%%%%%%%%%%%%%%%%%%%%%%%%%%%%%%%%%%%%%%%%%%%%%%%%%%%%%%%%%

 density label              = velectrostatic                                    

 integral of density        =   0.1560825543E-11

%%%% CHARGES %%%%%%%%%%%%%%%%%%%%%%%%%%%%%%%%%%%%%%%%%%%%%%%%%%%%%%%%%%%%%%%%%%%

 total number of charges    =             34

 total charge               =     -1.0000000

%%%% DENSITY %%%%%%%%%%%%%%%%%%%%%%%%%%%%%%%%%%%%%%%%%%%%%%%%%%%%%%%%%%%%%%%%%%%

 density label              = dvtot                                             

 integral of density        =   0.1537675337E-11

%%%% ELECTRONS %%%%%%%%%%%%%%%%%%%%%%%%%%%%%%%%%%%%%%%%%%%%%%%%%%%%%%%%%%%%%%%%%

 number of electrons        =             24

 total electronic charge    =     24.0000000

%%%% ELECTRONS %%%%%%%%%%%%%%%%%%%%%%%%%%%%%%%%%%%%%%%%%%%%%%%%%%%%%%%%%%%%%%%%%

 number of electrons        =             24

 total electronic charge    =     24.0000000

%%%% CHARGES %%%%%%%%%%%%%%%%%%%%%%%%%%%%%%%%%%%%%%%%%%%%%%%%%%%%%%%%%%%%%%%%%%%

 total number of charges    =             34

 total charge               =     -1.0000000

%%%% CHARGES %%%%%%%%%%%%%%%%%%%%%%%%%%%%%%%%%%%%%%%%%%%%%%%%%%%%%%%%%%%%%%%%%%%

 total number of charges    =             34

 total charge               =     -1.0000000

%%%% DENSITY %%%%%%%%%%%%%%%%%%%%%%%%%%%%%%%%%%%%%%%%%%%%%%%%%%%%%%%%%%%%%%%%%%%

 density label              = vreference                                        

 integral of density        =  -0.6595547154E-12

%%%% COMPUTE ELECTROSTATIC POTENTIAL %%%%%%%%%%%%%%%%%%%%%%%%%%%%%%%%%%%%%%%%%%%

 Warning: Bad guess with residual norm =   0.802803E+03, reset to no guess

   i |      alpha     |       pAp      |      rzold     |    delta_qm    |    delta_en    |       tol
 ---------------------------------------------------------------------------------------------------------
   1 |   0.969071E+00 |   0.960483E+02 |   0.930776E+02 |   0.209985E-01 |   0.761936E+03 |   0.100000E-04
   2 |   0.995218E-01 |   0.256427E+03 |   0.255201E+02 |   0.277277E-02 |   0.132853E+02 |   0.100000E-04
   3 |   0.173512E+00 |   0.933150E+00 |   0.161913E+00 |   0.138412E-02 |   0.331047E+01 |   0.100000E-04
   4 |   0.156691E+00 |   0.110857E+00 |   0.173703E-01 |   0.113545E-02 |   0.222780E+01 |   0.100000E-04
   5 |   0.338300E+00 |   0.999413E-02 |   0.338102E-02 |   0.726036E-03 |   0.910878E+00 |   0.100000E-04
   6 |   0.362192E+00 |   0.538366E-02 |   0.194992E-02 |   0.379084E-03 |   0.248322E+00 |   0.100000E-04
   7 |   0.276790E+00 |   0.262155E-02 |   0.725620E-03 |   0.274569E-03 |   0.130271E+00 |   0.100000E-04
   8 |   0.297684E+00 |   0.159231E-02 |   0.474003E-03 |   0.187997E-03 |   0.610723E-01 |   0.100000E-04
   9 |   0.476956E+00 |   0.443469E-03 |   0.211515E-03 |   0.100108E-03 |   0.173175E-01 |   0.100000E-04
  10 |   0.323767E+00 |   0.278410E-03 |   0.901401E-04 |   0.482272E-04 |   0.401910E-02 |   0.100000E-04
  11 |   0.348176E+00 |   0.385265E-04 |   0.134140E-04 |   0.354899E-04 |   0.217648E-02 |   0.100000E-04
  12 |   0.415485E+00 |   0.695245E-05 |   0.288864E-05 |   0.220855E-04 |   0.842864E-03 |   0.100000E-04
  13 |   0.561318E+00 |   0.211660E-05 |   0.118809E-05 |   0.115687E-04 |   0.231268E-03 |   0.100000E-04
  14 |   0.365243E+00 |   0.166149E-05 |   0.606847E-06 |   0.712651E-05 |   0.877602E-04 |   0.100000E-04
  15 |   0.297453E+00 |   0.814726E-06 |   0.242343E-06 |   0.482360E-05 |   0.402056E-04 |   0.100000E-04
  16 |   0.451118E+00 |   0.122257E-06 |   0.551521E-07 |   0.270015E-05 |   0.125985E-04 |   0.100000E-04
  17 |   0.293645E+00 |   0.882285E-07 |   0.259078E-07 |   0.171799E-05 |   0.510020E-05 |   0.100000E-04

 Charges are converged, EXIT

%%%% DENSITY %%%%%%%%%%%%%%%%%%%%%%%%%%%%%%%%%%%%%%%%%%%%%%%%%%%%%%%%%%%%%%%%%%%

 density label              = velectrostatic                                    

 integral of density        =   0.9650880917E-12

%%%% CHARGES %%%%%%%%%%%%%%%%%%%%%%%%%%%%%%%%%%%%%%%%%%%%%%%%%%%%%%%%%%%%%%%%%%%

 total number of charges    =             34

 total charge               =     -1.0000000

%%%% DENSITY %%%%%%%%%%%%%%%%%%%%%%%%%%%%%%%%%%%%%%%%%%%%%%%%%%%%%%%%%%%%%%%%%%%

 density label              = dvtot                                             

 integral of density        =   0.7230255489E-12

%%%% ELECTRONS %%%%%%%%%%%%%%%%%%%%%%%%%%%%%%%%%%%%%%%%%%%%%%%%%%%%%%%%%%%%%%%%%

 number of electrons        =             24

 total electronic charge    =     24.0000000

%%%% ELECTRONS %%%%%%%%%%%%%%%%%%%%%%%%%%%%%%%%%%%%%%%%%%%%%%%%%%%%%%%%%%%%%%%%%

 number of electrons        =             24

 total electronic charge    =     24.0000000

%%%% CHARGES %%%%%%%%%%%%%%%%%%%%%%%%%%%%%%%%%%%%%%%%%%%%%%%%%%%%%%%%%%%%%%%%%%%

 total number of charges    =             34

 total charge               =     -1.0000000

%%%% CHARGES %%%%%%%%%%%%%%%%%%%%%%%%%%%%%%%%%%%%%%%%%%%%%%%%%%%%%%%%%%%%%%%%%%%

 total number of charges    =             34

 total charge               =     -1.0000000

%%%% DENSITY %%%%%%%%%%%%%%%%%%%%%%%%%%%%%%%%%%%%%%%%%%%%%%%%%%%%%%%%%%%%%%%%%%%

 density label              = vreference                                        

 integral of density        =  -0.2512558063E-12

%%%% COMPUTE ELECTROSTATIC POTENTIAL %%%%%%%%%%%%%%%%%%%%%%%%%%%%%%%%%%%%%%%%%%%

 Warning: Bad guess with residual norm =   0.612874E+03, reset to no guess

   i |      alpha     |       pAp      |      rzold     |    delta_qm    |    delta_en    |       tol
 ---------------------------------------------------------------------------------------------------------
   1 |   0.976078E+00 |   0.960004E+02 |   0.937039E+02 |   0.184585E-01 |   0.588757E+03 |   0.100000E-04
   2 |   0.987132E-01 |   0.202706E+03 |   0.200098E+02 |   0.259082E-02 |   0.115989E+02 |   0.100000E-04
   3 |   0.184208E+00 |   0.717134E+00 |   0.132102E+00 |   0.129886E-02 |   0.291522E+01 |   0.100000E-04
   4 |   0.156993E+00 |   0.944045E-01 |   0.148209E-01 |   0.106409E-02 |   0.195658E+01 |   0.100000E-04
   5 |   0.319398E+00 |   0.958652E-02 |   0.306191E-02 |   0.705110E-03 |   0.859128E+00 |   0.100000E-04
   6 |   0.394874E+00 |   0.426431E-02 |   0.168386E-02 |   0.363297E-03 |   0.228070E+00 |   0.100000E-04
   7 |   0.428863E+00 |   0.134341E-02 |   0.576137E-03 |   0.223424E-03 |   0.862587E-01 |   0.100000E-04
   8 |   0.385184E+00 |   0.688961E-03 |   0.265377E-03 |   0.151511E-03 |   0.396672E-01 |   0.100000E-04
   9 |   0.252183E+00 |   0.948262E-03 |   0.239136E-03 |   0.924665E-04 |   0.147745E-01 |   0.100000E-04
  10 |   0.297908E+00 |   0.275005E-03 |   0.819262E-04 |   0.467981E-04 |   0.378442E-02 |   0.100000E-04
  11 |   0.323540E+00 |   0.408715E-04 |   0.132236E-04 |   0.352589E-04 |   0.214824E-02 |   0.100000E-04
  12 |   0.382466E+00 |   0.776372E-05 |   0.296936E-05 |   0.225332E-04 |   0.877386E-03 |   0.100000E-04
  13 |   0.487028E+00 |   0.259112E-05 |   0.126195E-05 |   0.126216E-04 |   0.275280E-03 |   0.100000E-04
  14 |   0.355704E+00 |   0.219767E-05 |   0.781722E-06 |   0.765168E-05 |   0.101171E-03 |   0.100000E-04
  15 |   0.363409E+00 |   0.689291E-06 |   0.250495E-06 |   0.467543E-05 |   0.377734E-04 |   0.100000E-04
  16 |   0.424108E+00 |   0.132112E-06 |   0.560296E-07 |   0.283157E-05 |   0.138547E-04 |   0.100000E-04
  17 |   0.299379E+00 |   0.871528E-07 |   0.260917E-07 |   0.181500E-05 |   0.569241E-05 |   0.100000E-04

 Charges are converged, EXIT

%%%% DENSITY %%%%%%%%%%%%%%%%%%%%%%%%%%%%%%%%%%%%%%%%%%%%%%%%%%%%%%%%%%%%%%%%%%%

 density label              = velectrostatic                                    

 integral of density        =   0.7896893016E-12

%%%% CHARGES %%%%%%%%%%%%%%%%%%%%%%%%%%%%%%%%%%%%%%%%%%%%%%%%%%%%%%%%%%%%%%%%%%%

 total number of charges    =             34

 total charge               =     -1.0000000

%%%% DENSITY %%%%%%%%%%%%%%%%%%%%%%%%%%%%%%%%%%%%%%%%%%%%%%%%%%%%%%%%%%%%%%%%%%%

 density label              = dvtot                                             

 integral of density        =   0.2744851671E-12

%%%% ELECTRONS %%%%%%%%%%%%%%%%%%%%%%%%%%%%%%%%%%%%%%%%%%%%%%%%%%%%%%%%%%%%%%%%%

 number of electrons        =             24

 total electronic charge    =     24.0000000

%%%% ELECTRONS %%%%%%%%%%%%%%%%%%%%%%%%%%%%%%%%%%%%%%%%%%%%%%%%%%%%%%%%%%%%%%%%%

 number of electrons        =             24

 total electronic charge    =     24.0000000

%%%% CHARGES %%%%%%%%%%%%%%%%%%%%%%%%%%%%%%%%%%%%%%%%%%%%%%%%%%%%%%%%%%%%%%%%%%%

 total number of charges    =             34

 total charge               =     -1.0000000

%%%% CHARGES %%%%%%%%%%%%%%%%%%%%%%%%%%%%%%%%%%%%%%%%%%%%%%%%%%%%%%%%%%%%%%%%%%%

 total number of charges    =             34

 total charge               =     -1.0000000

%%%% DENSITY %%%%%%%%%%%%%%%%%%%%%%%%%%%%%%%%%%%%%%%%%%%%%%%%%%%%%%%%%%%%%%%%%%%

 density label              = vreference                                        

 integral of density        =   0.1249370977E-12

%%%% COMPUTE ELECTROSTATIC POTENTIAL %%%%%%%%%%%%%%%%%%%%%%%%%%%%%%%%%%%%%%%%%%%

 Warning: Bad guess with residual norm =   0.517775E+03, reset to no guess

   i |      alpha     |       pAp      |      rzold     |    delta_qm    |    delta_en    |       tol
 ---------------------------------------------------------------------------------------------------------
   1 |   0.979623E+00 |   0.954447E+02 |   0.934999E+02 |   0.170174E-01 |   0.500417E+03 |   0.100000E-04
   2 |   0.988931E-01 |   0.170785E+03 |   0.168895E+02 |   0.262046E-02 |   0.118658E+02 |   0.100000E-04
   3 |   0.183062E+00 |   0.774213E+00 |   0.141729E+00 |   0.124637E-02 |   0.268436E+01 |   0.100000E-04
   4 |   0.154920E+00 |   0.995281E-01 |   0.154189E-01 |   0.102368E-02 |   0.181081E+01 |   0.100000E-04
   5 |   0.305386E+00 |   0.972017E-02 |   0.296840E-02 |   0.695970E-03 |   0.837000E+00 |   0.100000E-04
   6 |   0.405673E+00 |   0.381871E-02 |   0.154915E-02 |   0.366558E-03 |   0.232182E+00 |   0.100000E-04
   7 |   0.390381E+00 |   0.154979E-02 |   0.605010E-03 |   0.230838E-03 |   0.920785E-01 |   0.100000E-04
   8 |   0.257845E+00 |   0.133139E-02 |   0.343294E-03 |   0.170439E-03 |   0.501977E-01 |   0.100000E-04
   9 |   0.370661E+00 |   0.585109E-03 |   0.216877E-03 |   0.944654E-04 |   0.154202E-01 |   0.100000E-04
  10 |   0.343210E+00 |   0.218342E-03 |   0.749373E-04 |   0.455202E-04 |   0.358056E-02 |   0.100000E-04
  11 |   0.325908E+00 |   0.384864E-04 |   0.125430E-04 |   0.343348E-04 |   0.203710E-02 |   0.100000E-04
  12 |   0.370515E+00 |   0.787063E-05 |   0.291618E-05 |   0.221270E-04 |   0.846036E-03 |   0.100000E-04
  13 |   0.492500E+00 |   0.243055E-05 |   0.119704E-05 |   0.123550E-04 |   0.263772E-03 |   0.100000E-04
  14 |   0.361737E+00 |   0.204366E-05 |   0.739266E-06 |   0.749676E-05 |   0.971162E-04 |   0.100000E-04
  15 |   0.360020E+00 |   0.685422E-06 |   0.246766E-06 |   0.453183E-05 |   0.354887E-04 |   0.100000E-04
  16 |   0.442665E+00 |   0.118674E-06 |   0.525329E-07 |   0.269488E-05 |   0.125494E-04 |   0.100000E-04
  17 |   0.393196E+00 |   0.507836E-07 |   0.199679E-07 |   0.158464E-05 |   0.433915E-05 |   0.100000E-04

 Charges are converged, EXIT

%%%% DENSITY %%%%%%%%%%%%%%%%%%%%%%%%%%%%%%%%%%%%%%%%%%%%%%%%%%%%%%%%%%%%%%%%%%%

 density label              = velectrostatic                                    

 integral of density        =  -0.8465327205E-12

%%%% CHARGES %%%%%%%%%%%%%%%%%%%%%%%%%%%%%%%%%%%%%%%%%%%%%%%%%%%%%%%%%%%%%%%%%%%

 total number of charges    =             34

 total charge               =     -1.0000000

%%%% DENSITY %%%%%%%%%%%%%%%%%%%%%%%%%%%%%%%%%%%%%%%%%%%%%%%%%%%%%%%%%%%%%%%%%%%

 density label              = dvtot                                             

 integral of density        =  -0.7018079533E-12

%%%% ELECTRONS %%%%%%%%%%%%%%%%%%%%%%%%%%%%%%%%%%%%%%%%%%%%%%%%%%%%%%%%%%%%%%%%%

 number of electrons        =             24

 total electronic charge    =     24.0000000

%%%% ELECTRONS %%%%%%%%%%%%%%%%%%%%%%%%%%%%%%%%%%%%%%%%%%%%%%%%%%%%%%%%%%%%%%%%%

 number of electrons        =             24

 total electronic charge    =     24.0000000

%%%% CHARGES %%%%%%%%%%%%%%%%%%%%%%%%%%%%%%%%%%%%%%%%%%%%%%%%%%%%%%%%%%%%%%%%%%%

 total number of charges    =             34

 total charge               =     -1.0000000

%%%% CHARGES %%%%%%%%%%%%%%%%%%%%%%%%%%%%%%%%%%%%%%%%%%%%%%%%%%%%%%%%%%%%%%%%%%%

 total number of charges    =             34

 total charge               =     -1.0000000

%%%% DENSITY %%%%%%%%%%%%%%%%%%%%%%%%%%%%%%%%%%%%%%%%%%%%%%%%%%%%%%%%%%%%%%%%%%%

 density label              = vreference                                        

 integral of density        =   0.2806643806E-12

%%%% COMPUTE ELECTROSTATIC POTENTIAL %%%%%%%%%%%%%%%%%%%%%%%%%%%%%%%%%%%%%%%%%%%

 Warning: Bad guess with residual norm =   0.509618E+03, reset to no guess

   i |      alpha     |       pAp      |      rzold     |    delta_qm    |    delta_en    |       tol
 ---------------------------------------------------------------------------------------------------------
   1 |   0.979909E+00 |   0.954179E+02 |   0.935009E+02 |   0.168871E-01 |   0.492780E+03 |   0.100000E-04
   2 |   0.989481E-01 |   0.168028E+03 |   0.166261E+02 |   0.264202E-02 |   0.120619E+02 |   0.100000E-04
   3 |   0.183069E+00 |   0.794587E+00 |   0.145464E+00 |   0.124450E-02 |   0.267627E+01 |   0.100000E-04
   4 |   0.154949E+00 |   0.999622E-01 |   0.154890E-01 |   0.102285E-02 |   0.180786E+01 |   0.100000E-04
   5 |   0.300974E+00 |   0.996503E-02 |   0.299921E-02 |   0.698187E-03 |   0.842339E+00 |   0.100000E-04
   6 |   0.411197E+00 |   0.374670E-02 |   0.154063E-02 |   0.366138E-03 |   0.231650E+00 |   0.100000E-04
   7 |   0.403857E+00 |   0.147724E-02 |   0.596594E-03 |   0.227515E-03 |   0.894463E-01 |   0.100000E-04
   8 |   0.279526E+00 |   0.111321E-02 |   0.311171E-03 |   0.167205E-03 |   0.483103E-01 |   0.100000E-04
   9 |   0.333291E+00 |   0.680724E-03 |   0.226879E-03 |   0.952109E-04 |   0.156645E-01 |   0.100000E-04
  10 |   0.334972E+00 |   0.230837E-03 |   0.773238E-04 |   0.456462E-04 |   0.360042E-02 |   0.100000E-04
  11 |   0.325193E+00 |   0.397824E-04 |   0.129370E-04 |   0.343598E-04 |   0.204007E-02 |   0.100000E-04
  12 |   0.375975E+00 |   0.774792E-05 |   0.291303E-05 |   0.221110E-04 |   0.844811E-03 |   0.100000E-04
  13 |   0.491925E+00 |   0.242518E-05 |   0.119301E-05 |   0.124204E-04 |   0.266571E-03 |   0.100000E-04
  14 |   0.358532E+00 |   0.208351E-05 |   0.747004E-06 |   0.749596E-05 |   0.970952E-04 |   0.100000E-04
  15 |   0.362236E+00 |   0.687106E-06 |   0.248895E-06 |   0.454929E-05 |   0.357627E-04 |   0.100000E-04
  16 |   0.444878E+00 |   0.117842E-06 |   0.524252E-07 |   0.269018E-05 |   0.125056E-04 |   0.100000E-04
  17 |   0.400603E+00 |   0.494160E-07 |   0.197962E-07 |   0.156704E-05 |   0.424330E-05 |   0.100000E-04

 Charges are converged, EXIT

%%%% DENSITY %%%%%%%%%%%%%%%%%%%%%%%%%%%%%%%%%%%%%%%%%%%%%%%%%%%%%%%%%%%%%%%%%%%

 density label              = velectrostatic                                    

 integral of density        =   0.1118446899E-13

%%%% CHARGES %%%%%%%%%%%%%%%%%%%%%%%%%%%%%%%%%%%%%%%%%%%%%%%%%%%%%%%%%%%%%%%%%%%

 total number of charges    =             34

 total charge               =     -1.0000000

%%%% DENSITY %%%%%%%%%%%%%%%%%%%%%%%%%%%%%%%%%%%%%%%%%%%%%%%%%%%%%%%%%%%%%%%%%%%

 density label              = dvtot                                             

 integral of density        =   0.7077754021E-12

%%%% ELECTRONS %%%%%%%%%%%%%%%%%%%%%%%%%%%%%%%%%%%%%%%%%%%%%%%%%%%%%%%%%%%%%%%%%

 number of electrons        =             24

 total electronic charge    =     24.0000000

%%%% ELECTRONS %%%%%%%%%%%%%%%%%%%%%%%%%%%%%%%%%%%%%%%%%%%%%%%%%%%%%%%%%%%%%%%%%

 number of electrons        =             24

 total electronic charge    =     24.0000000

%%%% CHARGES %%%%%%%%%%%%%%%%%%%%%%%%%%%%%%%%%%%%%%%%%%%%%%%%%%%%%%%%%%%%%%%%%%%

 total number of charges    =             34

 total charge               =     -1.0000000

%%%% CHARGES %%%%%%%%%%%%%%%%%%%%%%%%%%%%%%%%%%%%%%%%%%%%%%%%%%%%%%%%%%%%%%%%%%%

 total number of charges    =             34

 total charge               =     -1.0000000

%%%% DENSITY %%%%%%%%%%%%%%%%%%%%%%%%%%%%%%%%%%%%%%%%%%%%%%%%%%%%%%%%%%%%%%%%%%%

 density label              = dvtot                                             

 integral of density        =   0.7077754021E-12

%%%% DENSITY %%%%%%%%%%%%%%%%%%%%%%%%%%%%%%%%%%%%%%%%%%%%%%%%%%%%%%%%%%%%%%%%%%%

 density label              = vreference                                        

 integral of density        =   0.2806643806E-12

%%%% DENSITY %%%%%%%%%%%%%%%%%%%%%%%%%%%%%%%%%%%%%%%%%%%%%%%%%%%%%%%%%%%%%%%%%%%

 density label              = velectrostatic                                    

 integral of density        =   0.1118446899E-13

%%%% CHARGES %%%%%%%%%%%%%%%%%%%%%%%%%%%%%%%%%%%%%%%%%%%%%%%%%%%%%%%%%%%%%%%%%%%

 total number of charges    =             34

 total charge               =     -1.0000000
