
     Program PWSCF v.6.7MaX starts on  1Oct2021 at 21: 7:57 

     This program is part of the open-source Quantum ESPRESSO suite
     for quantum simulation of materials; please cite
         "P. Giannozzi et al., J. Phys.:Condens. Matter 21 395502 (2009);
         "P. Giannozzi et al., J. Phys.:Condens. Matter 29 465901 (2017);
          URL http://www.quantum-espresso.org", 
     in publications or presentations arising from this work. More details at
     http://www.quantum-espresso.org/quote

     Parallel version (MPI), running on     1 processors

     MPI processes distributed on     1 nodes
     Reading input from anion.in

     Current dimensions of program PWSCF are:
     Max number of different atomic species (ntypx) = 10
     Max number of k-points (npk) =  40000
     Max angular momentum in pseudopotentials (lmaxx) =  3

     Reading input from environ.in

     ================================================================================

     Reading ENVIRON namelist

     Reading BOUNDARY namelist

     Checking boundary derivatives
     derivatives               = lowmem         ! SSCS default

     Setting up water-anion environment (solvent mode = ionic)
     env_static_permittivity   = 78.3D0         
     env_optical_permittivity  = 1.D0           
     radius_mode               = uff            
     softness                  = 0.5D0          
     env_surface_tension       = 50.D0          
     env_pressure              = -0.35D0        
     alpha                     = 0.98D0         

     Reading ELECTROSTATIC namelist

     Setting up electrostatic problem
     problem                   = generalized    
     solver                    = cg             

     Checking PBC correction
     pbc_correction            = none           ! default

     ================================================================================
 
     file C.pbe-rrkjus.UPF: wavefunction(s)  2S 2P renormalized
     file H.pbe-rrkjus.UPF: wavefunction(s)  1S renormalized

     gamma-point specific algorithms are used

     Subspace diagonalization in iterative solution of the eigenvalue problem:
     a serial algorithm will be used

 
     G-vector sticks info
     --------------------
     sticks:   dense  smooth     PW     G-vecs:    dense   smooth      PW
     Sum        9549    3809    949               701475   177509   22119
 


     bravais-lattice index     =            1
     lattice parameter (alat)  =      20.0000  a.u.
     unit-cell volume          =    8000.0000 (a.u.)^3
     number of atoms/cell      =            4
     number of atomic types    =            2
     number of electrons       =         8.00
     number of Kohn-Sham states=            4
     kinetic-energy cutoff     =      30.0000  Ry
     charge density cutoff     =     300.0000  Ry
     scf convergence threshold =      1.0E-03
     mixing beta               =       0.7000
     number of iterations used =            8  plain     mixing
     Exchange-correlation= SLA  PW   PBE  PBE
                           (   1   4   3   4   0   0   0)
 

     Environ Module
     ==============

     Please cite
         O. Andreussi, I. Dabo and N. Marzari, J. Chem. Phys. 136, 064102 (2012)         
     in publications or presentations arising from this work.

     compensation onset threshold      =               0.1000E+03
     static permittivity               =                    78.30
     epsilon calculation mode          =                    ionic
     surface tension in input (dyn/cm) =                    50.00
     surface tension in internal units =               0.6423E-04
     external pressure in input (GPa)  =                    -0.35
     external pressure in inter. units =              -0.2379E-04

     Electrostatic Setup
     -------------------
     electrostatic problem to solve    = generalized             
     numerical solver adopted          = cg                      
     type of auxiliary density adopted = none                    
     type of core tool for poisson     = fft                     



     celldm(1)=  20.000000  celldm(2)=   0.000000  celldm(3)=   0.000000
     celldm(4)=   0.000000  celldm(5)=   0.000000  celldm(6)=   0.000000

     crystal axes: (cart. coord. in units of alat)
               a(1) = (   1.000000   0.000000   0.000000 )  
               a(2) = (   0.000000   1.000000   0.000000 )  
               a(3) = (   0.000000   0.000000   1.000000 )  

     reciprocal axes: (cart. coord. in units 2 pi/alat)
               b(1) = (  1.000000  0.000000  0.000000 )  
               b(2) = (  0.000000  1.000000  0.000000 )  
               b(3) = (  0.000000  0.000000  1.000000 )  


     PseudoPot. # 1 for C  read from file:
     /home/simplogic86/Work/QE1/Environ/tests/../..//pseudo/C.pbe-rrkjus.UPF
     MD5 check sum: c9ac5a99bc85b198593446162950cd17
     Pseudo is Ultrasoft, Zval =  4.0
     Generated by new atomic code, or converted to UPF format
     Using radial grid of  627 points,  4 beta functions with: 
                l(1) =   0
                l(2) =   0
                l(3) =   1
                l(4) =   1
     Q(r) pseudized with 0 coefficients 


     PseudoPot. # 2 for H  read from file:
     /home/simplogic86/Work/QE1/Environ/tests/../..//pseudo/H.pbe-rrkjus.UPF
     MD5 check sum: 2d52a7f45632fd764c17cc6affed14c8
     Pseudo is Ultrasoft, Zval =  1.0
     Generated by new atomic code, or converted to UPF format
     Using radial grid of 1061 points,  2 beta functions with: 
                l(1) =   0
                l(2) =   0
     Q(r) pseudized with 0 coefficients 


     atomic species   valence    mass     pseudopotential
        C              4.00    12.00000     C ( 1.00)
        H              1.00     1.00000     H ( 1.00)

      2 Sym. Ops. (no inversion) found



   Cartesian axes

     site n.     atom                  positions (alat units)
         1           C   tau(   1) = (   0.0000000   0.0000000   0.0297065  )
         2           H   tau(   2) = (   0.0000000   0.0981713  -0.0066140  )
         3           H   tau(   3) = (   0.0850377  -0.0491140  -0.0066140  )
         4           H   tau(   4) = (  -0.0850377  -0.0491140  -0.0066140  )

     number of k points=     1
                       cart. coord. in units 2pi/alat
        k(    1) = (   0.0000000   0.0000000   0.0000000), wk =   2.0000000

     Dense  grid:   350738 G-vectors     FFT dimensions: ( 120, 120, 120)

     Smooth grid:    88755 G-vectors     FFT dimensions: (  72,  72,  72)

     Estimated max dynamical RAM per process >     547.31 MB

     Initial potential from superposition of free atoms

     starting charge    6.71133, renormalised to    8.00000

     negative rho (up, down):  8.422E-04 0.000E+00
     Starting wfcs are    7 randomized atomic wfcs

     total cpu time spent up to now is        6.2 secs

     Self-consistent Calculation

     iteration #  1     ecut=    30.00 Ry     beta= 0.70
     Davidson diagonalization with overlap
     ethr =  1.00E-02,  avg # of iterations =  2.0

     negative rho (up, down):  2.413E-04 0.000E+00

     add environment contribution to local potential
     Polarization accuracy = 7.1E-06, # of iterations =  11

     total cpu time spent up to now is        9.1 secs

     total energy              =     -14.75865252 Ry
     estimated scf accuracy    <       0.70384899 Ry
     electrostatic embedding   =       0.00000000 Ry
     cavitation energy         =       0.01309546 Ry
     PV energy                 =      -0.00631465 Ry
     correction to one-el term =       0.00000000 Ry

     iteration #  2     ecut=    30.00 Ry     beta= 0.70
     Davidson diagonalization with overlap
     ethr =  8.80E-03,  avg # of iterations =  2.0

     negative rho (up, down):  9.701E-05 0.000E+00

     add environment contribution to local potential
     Polarization accuracy = 8.0E-06, # of iterations =  11

     total cpu time spent up to now is       11.5 secs

     total energy              =     -15.01225919 Ry
     estimated scf accuracy    <       0.13702649 Ry
     electrostatic embedding   =      -0.09208153 Ry
     cavitation energy         =       0.01309546 Ry
     PV energy                 =      -0.00631465 Ry
     correction to one-el term =       1.54813224 Ry

     iteration #  3     ecut=    30.00 Ry     beta= 0.70
     Davidson diagonalization with overlap
     ethr =  1.71E-03,  avg # of iterations =  2.0

     negative rho (up, down):  2.499E-05 0.000E+00

     add environment contribution to local potential
     Polarization accuracy = 7.6E-06, # of iterations =  11

     total cpu time spent up to now is       13.8 secs

     total energy              =     -15.04489661 Ry
     estimated scf accuracy    <       0.00993598 Ry
     electrostatic embedding   =      -0.10840962 Ry
     cavitation energy         =       0.01309546 Ry
     PV energy                 =      -0.00631465 Ry
     correction to one-el term =       1.70212837 Ry

     iteration #  4     ecut=    30.00 Ry     beta= 0.70
     Davidson diagonalization with overlap
     ethr =  1.24E-04,  avg # of iterations =  2.0

     negative rho (up, down):  4.260E-04 0.000E+00

     add environment contribution to local potential
     Polarization accuracy = 7.1E-06, # of iterations =  11

     total cpu time spent up to now is       16.1 secs

     total energy              =     -15.05012643 Ry
     estimated scf accuracy    <       0.00107740 Ry
     electrostatic embedding   =      -0.13719923 Ry
     cavitation energy         =       0.01309546 Ry
     PV energy                 =      -0.00631465 Ry
     correction to one-el term =       1.94196629 Ry

     iteration #  5     ecut=    30.00 Ry     beta= 0.70
     Davidson diagonalization with overlap
     ethr =  1.35E-05,  avg # of iterations =  3.0

     negative rho (up, down):  1.976E-05 0.000E+00

     the potential shift due to the Gaussian-smeared nuclei is    -0.0187 ev

     total cpu time spent up to now is       17.0 secs

     End of self-consistent calculation

          k = 0.0000 0.0000 0.0000 ( 11060 PWs)   bands (ev):

   -14.8261  -8.0666  -8.0648  -3.8062

     highest occupied level (ev):    -3.8062

!    total energy              =     -15.05107006 Ry
     estimated scf accuracy    <       0.00055699 Ry

     The total energy is the sum of the following terms:
     one-electron contribution =     -37.11820921 Ry
     hartree contribution      =      19.78015963 Ry
     xc contribution           =      -5.93454920 Ry
     ewald contribution        =       6.32058455 Ry
     electrostatic embedding   =      -0.15540478 Ry
     cavitation energy         =       0.01309546 Ry
     PV energy                 =      -0.00631465 Ry
     correction to one-el term =       2.04956814 Ry

     convergence has been achieved in   5 iterations

     Forces acting on atoms (cartesian axes, Ry/au):

     atom    1 type  1   force =     0.00000000   -0.00033706    0.00530146
     atom    2 type  2   force =     0.00000000    0.00209886   -0.00185323
     atom    3 type  2   force =     0.00157375   -0.00088090   -0.00172412
     atom    4 type  2   force =    -0.00157375   -0.00088090   -0.00172412

     Total force =     0.006965     Total SCF correction =     0.006946
     SCF correction compared to forces is large: reduce conv_thr to get better values

     Writing output data file /home/simplogic86/Work/QE1/Environ/tests/../..//tempdir/pwscf.save/
 
     init_run     :      5.70s CPU      6.15s WALL (       1 calls)
     electrons    :      9.84s CPU     10.82s WALL (       1 calls)
     forces       :      4.32s CPU      4.42s WALL (       1 calls)

     Called by init_run:
     wfcinit      :      0.04s CPU      0.04s WALL (       1 calls)
     potinit      :      0.59s CPU      0.62s WALL (       1 calls)
     hinit0       :      4.54s CPU      4.78s WALL (       1 calls)

     Called by electrons:
     c_bands      :      0.29s CPU      0.29s WALL (       5 calls)
     sum_band     :      0.90s CPU      1.16s WALL (       5 calls)
     v_of_rho     :      2.31s CPU      2.57s WALL (       6 calls)
     newd         :      0.75s CPU      0.89s WALL (       6 calls)
     mix_rho      :      0.22s CPU      0.23s WALL (       5 calls)

     Called by c_bands:
     init_us_2    :      0.02s CPU      0.02s WALL (      11 calls)
     regterg      :      0.27s CPU      0.27s WALL (       5 calls)

     Called by *egterg:
     rdiaghg      :      0.00s CPU      0.00s WALL (      16 calls)
     h_psi        :      0.28s CPU      0.28s WALL (      17 calls)
     s_psi        :      0.00s CPU      0.00s WALL (      17 calls)
     g_psi        :      0.00s CPU      0.00s WALL (      11 calls)

     Called by h_psi:
     h_psi:calbec :      0.00s CPU      0.00s WALL (      17 calls)
     vloc_psi     :      0.27s CPU      0.27s WALL (      17 calls)
     add_vuspsi   :      0.00s CPU      0.00s WALL (      17 calls)

     General routines
     calbec       :      0.01s CPU      0.01s WALL (      26 calls)
     fft          :      1.04s CPU      1.07s WALL (      66 calls)
     ffts         :      0.03s CPU      0.03s WALL (      11 calls)
     fftw         :      0.22s CPU      0.22s WALL (      78 calls)
     interpolate  :      0.12s CPU      0.14s WALL (       6 calls)
 
     Parallel routines
 
     Environ routines
 
     PWSCF        :     19.90s CPU     21.45s WALL

 
   This run was terminated on:  21: 8:18   1Oct2021            

=------------------------------------------------------------------------------=
   JOB DONE.
=------------------------------------------------------------------------------=

%%%% CELL %%%%%%%%%%%%%%%%%%%%%%%%%%%%%%%%%%%%%%%%%%%%%%%%%%%%%%%%%%%%%%%%%%%%%%

 cell label                 = system         

 cell volume                =    8000.000000

%%%% IONS %%%%%%%%%%%%%%%%%%%%%%%%%%%%%%%%%%%%%%%%%%%%%%%%%%%%%%%%%%%%%%%%%%%%%%

 total charge               =     -7.0000000
 center of charge           =      0.0000000    -0.0001620     0.2828110
 dipole                     =      0.0000000     0.0000000     0.0000000
 quadrupole (pc)            =     -5.7851250    -5.7847859    -0.9045815
 quadrupole (gauss)         =     -6.6601250    -6.6597859    -1.7795815

   i | type | coordinates
 -----------------------------------------------------------------------
   1 |    1 |                      0.0000000     0.0000000     0.5941299
   2 |    2 |                      0.0000000     1.9634254    -0.1322808
   3 |    2 |                      1.7007535    -0.9822796    -0.1322808
   4 |    2 |                     -1.7007535    -0.9822796    -0.1322808

%%%% SYSTEM %%%%%%%%%%%%%%%%%%%%%%%%%%%%%%%%%%%%%%%%%%%%%%%%%%%%%%%%%%%%%%%%%%%%

 system is built from all present ionic types

 system defined dimension   =              0
 system defined axis        =              3

 system center              =      0.0000000    -0.0001620     0.2828110
 system width               =      2.0073412

%%%% IONS %%%%%%%%%%%%%%%%%%%%%%%%%%%%%%%%%%%%%%%%%%%%%%%%%%%%%%%%%%%%%%%%%%%%%%

 total charge               =     -7.0000000
 center of charge           =      0.0000000    -0.0001620     0.2828110
 dipole                     =      0.0000000     0.0000000     0.0000000
 quadrupole (pc)            =     -5.7851250    -5.7847859    -0.9045815
 quadrupole (gauss)         =     -6.6601250    -6.6597859    -1.7795815

   i | type | coordinates
 -----------------------------------------------------------------------
   1 |    1 |                      0.0000000     0.0000000     0.5941299
   2 |    2 |                      0.0000000     1.9634254    -0.1322808
   3 |    2 |                      1.7007535    -0.9822796    -0.1322808
   4 |    2 |                     -1.7007535    -0.9822796    -0.1322808

%%%% SYSTEM %%%%%%%%%%%%%%%%%%%%%%%%%%%%%%%%%%%%%%%%%%%%%%%%%%%%%%%%%%%%%%%%%%%%

 system is built from all present ionic types

 system defined dimension   =              0
 system defined axis        =              3

 system center              =      0.0000000    -0.0001620     0.2828110
 system width               =      2.0073412

%%%% BOUNDARY %%%%%%%%%%%%%%%%%%%%%%%%%%%%%%%%%%%%%%%%%%%%%%%%%%%%%%%%%%%%%%%%%%

 boundary label             = solvent             
 boundary mode              = ionic               

 boundary is built from soft-spheres centered on ionic positions:
 solvent-dependent scaling  =      0.9800000
 softness parameter         =      0.5000000

 volume of the QM region    =    265.4048355

 surface of the QM region   =    203.8822466

%%%% CHARGES %%%%%%%%%%%%%%%%%%%%%%%%%%%%%%%%%%%%%%%%%%%%%%%%%%%%%%%%%%%%%%%%%%%

 total number of charges    =              5

 total charge               =     -7.0000000

%%%% CHARGES %%%%%%%%%%%%%%%%%%%%%%%%%%%%%%%%%%%%%%%%%%%%%%%%%%%%%%%%%%%%%%%%%%%

 total number of charges    =              5

 total charge               =     -7.0000000

%%%% CELL %%%%%%%%%%%%%%%%%%%%%%%%%%%%%%%%%%%%%%%%%%%%%%%%%%%%%%%%%%%%%%%%%%%%%%

 cell label                 = system         

 cell volume                =    8000.000000

%%%% ELECTRONS %%%%%%%%%%%%%%%%%%%%%%%%%%%%%%%%%%%%%%%%%%%%%%%%%%%%%%%%%%%%%%%%%

 number of electrons        =              8

 total electronic charge    =      8.0000000

%%%% ELECTRONS %%%%%%%%%%%%%%%%%%%%%%%%%%%%%%%%%%%%%%%%%%%%%%%%%%%%%%%%%%%%%%%%%

 number of electrons        =              8

 total electronic charge    =      8.0000000

%%%% CHARGES %%%%%%%%%%%%%%%%%%%%%%%%%%%%%%%%%%%%%%%%%%%%%%%%%%%%%%%%%%%%%%%%%%%

 total number of charges    =             12

 total charge               =      1.0000000

%%%% CHARGES %%%%%%%%%%%%%%%%%%%%%%%%%%%%%%%%%%%%%%%%%%%%%%%%%%%%%%%%%%%%%%%%%%%

 total number of charges    =             12

 total charge               =      1.0000000

%%%% DENSITY %%%%%%%%%%%%%%%%%%%%%%%%%%%%%%%%%%%%%%%%%%%%%%%%%%%%%%%%%%%%%%%%%%%

 density label              = dvtot                                             

 integral of density        =    0.000000000    

%%%% DENSITY %%%%%%%%%%%%%%%%%%%%%%%%%%%%%%%%%%%%%%%%%%%%%%%%%%%%%%%%%%%%%%%%%%%

 density label              = vreference                                        

 integral of density        =    0.000000000    

%%%% DENSITY %%%%%%%%%%%%%%%%%%%%%%%%%%%%%%%%%%%%%%%%%%%%%%%%%%%%%%%%%%%%%%%%%%%

 density label              = velectrostatic                                    

 integral of density        =    0.000000000    

%%%% CHARGES %%%%%%%%%%%%%%%%%%%%%%%%%%%%%%%%%%%%%%%%%%%%%%%%%%%%%%%%%%%%%%%%%%%

 total number of charges    =             12

 total charge               =      1.0000000

%%%% ELECTRONS %%%%%%%%%%%%%%%%%%%%%%%%%%%%%%%%%%%%%%%%%%%%%%%%%%%%%%%%%%%%%%%%%

 number of electrons        =              8

 total electronic charge    =      8.0000000

%%%% ELECTRONS %%%%%%%%%%%%%%%%%%%%%%%%%%%%%%%%%%%%%%%%%%%%%%%%%%%%%%%%%%%%%%%%%

 number of electrons        =              8

 total electronic charge    =      8.0000000

%%%% CHARGES %%%%%%%%%%%%%%%%%%%%%%%%%%%%%%%%%%%%%%%%%%%%%%%%%%%%%%%%%%%%%%%%%%%

 total number of charges    =             12

 total charge               =      1.0000000

%%%% CHARGES %%%%%%%%%%%%%%%%%%%%%%%%%%%%%%%%%%%%%%%%%%%%%%%%%%%%%%%%%%%%%%%%%%%

 total number of charges    =             12

 total charge               =      1.0000000

%%%% DENSITY %%%%%%%%%%%%%%%%%%%%%%%%%%%%%%%%%%%%%%%%%%%%%%%%%%%%%%%%%%%%%%%%%%%

 density label              = vreference                                        

 integral of density        =  -0.3200731861E-13

%%%% COMPUTE ELECTROSTATIC POTENTIAL %%%%%%%%%%%%%%%%%%%%%%%%%%%%%%%%%%%%%%%%%%%

   i |      alpha     |       pAp      |      rzold     |    delta_qm    |    delta_en    |       tol
 ---------------------------------------------------------------------------------------------------------
   1 |   0.983252E+00 |   0.206590E+02 |   0.203130E+02 |   0.720291E-02 |   0.896520E+02 |   0.100000E-04
   2 |   0.115006E+00 |   0.185248E+02 |   0.213046E+01 |   0.234836E-02 |   0.952953E+01 |   0.100000E-04
   3 |   0.178910E+00 |   0.109345E+01 |   0.195630E+00 |   0.779747E-03 |   0.105063E+01 |   0.100000E-04
   4 |   0.213084E+00 |   0.417869E-01 |   0.890411E-02 |   0.433185E-03 |   0.324258E+00 |   0.100000E-04
   5 |   0.639805E+00 |   0.758053E-03 |   0.485006E-03 |   0.242274E-03 |   0.101428E+00 |   0.100000E-04
   6 |   0.550512E+00 |   0.368609E-03 |   0.202924E-03 |   0.142581E-03 |   0.351292E-01 |   0.100000E-04
   7 |   0.910458E+00 |   0.514230E-04 |   0.468185E-04 |   0.513926E-04 |   0.456399E-02 |   0.100000E-04
   8 |   0.330341E+00 |   0.572067E-04 |   0.188977E-04 |   0.265760E-04 |   0.122046E-02 |   0.100000E-04
   9 |   0.265190E+00 |   0.333577E-04 |   0.884614E-05 |   0.106159E-04 |   0.194739E-03 |   0.100000E-04
  10 |   0.496217E+00 |   0.600670E-06 |   0.298063E-06 |   0.546058E-05 |   0.515254E-04 |   0.100000E-04
  11 |   0.700214E+00 |   0.791286E-07 |   0.554070E-07 |   0.202953E-05 |   0.711759E-05 |   0.100000E-04

 Charges are converged, EXIT

%%%% DENSITY %%%%%%%%%%%%%%%%%%%%%%%%%%%%%%%%%%%%%%%%%%%%%%%%%%%%%%%%%%%%%%%%%%%

 density label              = velectrostatic                                    

 integral of density        =   0.2667824809E-13

%%%% CHARGES %%%%%%%%%%%%%%%%%%%%%%%%%%%%%%%%%%%%%%%%%%%%%%%%%%%%%%%%%%%%%%%%%%%

 total number of charges    =             12

 total charge               =      1.0000000

%%%% DENSITY %%%%%%%%%%%%%%%%%%%%%%%%%%%%%%%%%%%%%%%%%%%%%%%%%%%%%%%%%%%%%%%%%%%

 density label              = dvtot                                             

 integral of density        =  -0.1497310506E-12

%%%% ELECTRONS %%%%%%%%%%%%%%%%%%%%%%%%%%%%%%%%%%%%%%%%%%%%%%%%%%%%%%%%%%%%%%%%%

 number of electrons        =              8

 total electronic charge    =      8.0000000

%%%% ELECTRONS %%%%%%%%%%%%%%%%%%%%%%%%%%%%%%%%%%%%%%%%%%%%%%%%%%%%%%%%%%%%%%%%%

 number of electrons        =              8

 total electronic charge    =      8.0000000

%%%% CHARGES %%%%%%%%%%%%%%%%%%%%%%%%%%%%%%%%%%%%%%%%%%%%%%%%%%%%%%%%%%%%%%%%%%%

 total number of charges    =             12

 total charge               =      1.0000000

%%%% CHARGES %%%%%%%%%%%%%%%%%%%%%%%%%%%%%%%%%%%%%%%%%%%%%%%%%%%%%%%%%%%%%%%%%%%

 total number of charges    =             12

 total charge               =      1.0000000

%%%% DENSITY %%%%%%%%%%%%%%%%%%%%%%%%%%%%%%%%%%%%%%%%%%%%%%%%%%%%%%%%%%%%%%%%%%%

 density label              = vreference                                        

 integral of density        =   0.9121921325E-13

%%%% COMPUTE ELECTROSTATIC POTENTIAL %%%%%%%%%%%%%%%%%%%%%%%%%%%%%%%%%%%%%%%%%%%

 Warning: Bad guess with residual norm =   0.700407E+02, reset to no guess

   i |      alpha     |       pAp      |      rzold     |    delta_qm    |    delta_en    |       tol
 ---------------------------------------------------------------------------------------------------------
   1 |   0.988561E+00 |   0.217709E+02 |   0.215219E+02 |   0.629859E-02 |   0.685535E+02 |   0.100000E-04
   2 |   0.115665E+00 |   0.133803E+02 |   0.154763E+01 |   0.198467E-02 |   0.680646E+01 |   0.100000E-04
   3 |   0.172493E+00 |   0.826901E+00 |   0.142635E+00 |   0.758066E-03 |   0.993019E+00 |   0.100000E-04
   4 |   0.218131E+00 |   0.289268E-01 |   0.630985E-02 |   0.478928E-03 |   0.396355E+00 |   0.100000E-04
   5 |   0.842768E+00 |   0.500919E-03 |   0.422158E-03 |   0.227397E-03 |   0.893540E-01 |   0.100000E-04
   6 |   0.550511E+00 |   0.356802E-03 |   0.196423E-03 |   0.131759E-03 |   0.299987E-01 |   0.100000E-04
   7 |   0.789287E+00 |   0.705975E-04 |   0.557217E-04 |   0.389725E-04 |   0.262458E-02 |   0.100000E-04
   8 |   0.296063E+00 |   0.497985E-04 |   0.147435E-04 |   0.207850E-04 |   0.746525E-03 |   0.100000E-04
   9 |   0.250233E+00 |   0.203165E-04 |   0.508384E-05 |   0.114620E-04 |   0.227019E-03 |   0.100000E-04
  10 |   0.658262E+00 |   0.346067E-06 |   0.227803E-06 |   0.520155E-05 |   0.467530E-04 |   0.100000E-04
  11 |   0.713880E+00 |   0.779641E-07 |   0.556570E-07 |   0.215051E-05 |   0.799144E-05 |   0.100000E-04

 Charges are converged, EXIT

%%%% DENSITY %%%%%%%%%%%%%%%%%%%%%%%%%%%%%%%%%%%%%%%%%%%%%%%%%%%%%%%%%%%%%%%%%%%

 density label              = velectrostatic                                    

 integral of density        =  -0.7523200170E-13

%%%% CHARGES %%%%%%%%%%%%%%%%%%%%%%%%%%%%%%%%%%%%%%%%%%%%%%%%%%%%%%%%%%%%%%%%%%%

 total number of charges    =             12

 total charge               =      1.0000000

%%%% DENSITY %%%%%%%%%%%%%%%%%%%%%%%%%%%%%%%%%%%%%%%%%%%%%%%%%%%%%%%%%%%%%%%%%%%

 density label              = dvtot                                             

 integral of density        =  -0.1083366935E-12

%%%% ELECTRONS %%%%%%%%%%%%%%%%%%%%%%%%%%%%%%%%%%%%%%%%%%%%%%%%%%%%%%%%%%%%%%%%%

 number of electrons        =              8

 total electronic charge    =      8.0000000

%%%% ELECTRONS %%%%%%%%%%%%%%%%%%%%%%%%%%%%%%%%%%%%%%%%%%%%%%%%%%%%%%%%%%%%%%%%%

 number of electrons        =              8

 total electronic charge    =      8.0000000

%%%% CHARGES %%%%%%%%%%%%%%%%%%%%%%%%%%%%%%%%%%%%%%%%%%%%%%%%%%%%%%%%%%%%%%%%%%%

 total number of charges    =             12

 total charge               =      1.0000000

%%%% CHARGES %%%%%%%%%%%%%%%%%%%%%%%%%%%%%%%%%%%%%%%%%%%%%%%%%%%%%%%%%%%%%%%%%%%

 total number of charges    =             12

 total charge               =      1.0000000

%%%% DENSITY %%%%%%%%%%%%%%%%%%%%%%%%%%%%%%%%%%%%%%%%%%%%%%%%%%%%%%%%%%%%%%%%%%%

 density label              = vreference                                        

 integral of density        =   0.1115157349E-13

%%%% COMPUTE ELECTROSTATIC POTENTIAL %%%%%%%%%%%%%%%%%%%%%%%%%%%%%%%%%%%%%%%%%%%

 Warning: Bad guess with residual norm =   0.110179E+03, reset to no guess

   i |      alpha     |       pAp      |      rzold     |    delta_qm    |    delta_en    |       tol
 ---------------------------------------------------------------------------------------------------------
   1 |   0.982022E+00 |   0.217901E+02 |   0.213984E+02 |   0.785219E-02 |   0.106543E+03 |   0.100000E-04
   2 |   0.112146E+00 |   0.229935E+02 |   0.257862E+01 |   0.237084E-02 |   0.971291E+01 |   0.100000E-04
   3 |   0.174373E+00 |   0.111499E+01 |   0.194425E+00 |   0.801292E-03 |   0.110950E+01 |   0.100000E-04
   4 |   0.219977E+00 |   0.370500E-01 |   0.815015E-02 |   0.480409E-03 |   0.398810E+00 |   0.100000E-04
   5 |   0.856098E+00 |   0.520559E-03 |   0.445649E-03 |   0.238821E-03 |   0.985576E-01 |   0.100000E-04
   6 |   0.556437E+00 |   0.373687E-03 |   0.207933E-03 |   0.139490E-03 |   0.336227E-01 |   0.100000E-04
   7 |   0.765997E+00 |   0.767679E-04 |   0.588039E-04 |   0.419990E-04 |   0.304805E-02 |   0.100000E-04
   8 |   0.289123E+00 |   0.602608E-04 |   0.174228E-04 |   0.223752E-04 |   0.865126E-03 |   0.100000E-04
   9 |   0.258236E+00 |   0.230180E-04 |   0.594409E-05 |   0.124816E-04 |   0.269207E-03 |   0.100000E-04
  10 |   0.694632E+00 |   0.357517E-06 |   0.248343E-06 |   0.555804E-05 |   0.533811E-04 |   0.100000E-04
  11 |   0.768196E+00 |   0.789451E-07 |   0.606453E-07 |   0.209840E-05 |   0.760884E-05 |   0.100000E-04

 Charges are converged, EXIT

%%%% DENSITY %%%%%%%%%%%%%%%%%%%%%%%%%%%%%%%%%%%%%%%%%%%%%%%%%%%%%%%%%%%%%%%%%%%

 density label              = velectrostatic                                    

 integral of density        =  -0.5111960238E-13

%%%% CHARGES %%%%%%%%%%%%%%%%%%%%%%%%%%%%%%%%%%%%%%%%%%%%%%%%%%%%%%%%%%%%%%%%%%%

 total number of charges    =             12

 total charge               =      1.0000000

%%%% DENSITY %%%%%%%%%%%%%%%%%%%%%%%%%%%%%%%%%%%%%%%%%%%%%%%%%%%%%%%%%%%%%%%%%%%

 density label              = dvtot                                             

 integral of density        =  -0.7305981951E-12

%%%% ELECTRONS %%%%%%%%%%%%%%%%%%%%%%%%%%%%%%%%%%%%%%%%%%%%%%%%%%%%%%%%%%%%%%%%%

 number of electrons        =              8

 total electronic charge    =      8.0000000

%%%% ELECTRONS %%%%%%%%%%%%%%%%%%%%%%%%%%%%%%%%%%%%%%%%%%%%%%%%%%%%%%%%%%%%%%%%%

 number of electrons        =              8

 total electronic charge    =      8.0000000

%%%% CHARGES %%%%%%%%%%%%%%%%%%%%%%%%%%%%%%%%%%%%%%%%%%%%%%%%%%%%%%%%%%%%%%%%%%%

 total number of charges    =             12

 total charge               =      1.0000000

%%%% CHARGES %%%%%%%%%%%%%%%%%%%%%%%%%%%%%%%%%%%%%%%%%%%%%%%%%%%%%%%%%%%%%%%%%%%

 total number of charges    =             12

 total charge               =      1.0000000

%%%% DENSITY %%%%%%%%%%%%%%%%%%%%%%%%%%%%%%%%%%%%%%%%%%%%%%%%%%%%%%%%%%%%%%%%%%%

 density label              = vreference                                        

 integral of density        =  -0.4390890943E-12

%%%% COMPUTE ELECTROSTATIC POTENTIAL %%%%%%%%%%%%%%%%%%%%%%%%%%%%%%%%%%%%%%%%%%%

 Warning: Bad guess with residual norm =   0.129840E+03, reset to no guess

   i |      alpha     |       pAp      |      rzold     |    delta_qm    |    delta_en    |       tol
 ---------------------------------------------------------------------------------------------------------
   1 |   0.978661E+00 |   0.218412E+02 |   0.213751E+02 |   0.849766E-02 |   0.124779E+03 |   0.100000E-04
   2 |   0.113363E+00 |   0.266592E+02 |   0.302217E+01 |   0.259436E-02 |   0.116307E+02 |   0.100000E-04
   3 |   0.170789E+00 |   0.137783E+01 |   0.235319E+00 |   0.841546E-03 |   0.122377E+01 |   0.100000E-04
   4 |   0.221350E+00 |   0.433134E-01 |   0.958740E-02 |   0.489591E-03 |   0.414200E+00 |   0.100000E-04
   5 |   0.855495E+00 |   0.557858E-03 |   0.477245E-03 |   0.247577E-03 |   0.105917E+00 |   0.100000E-04
   6 |   0.558349E+00 |   0.390106E-03 |   0.217815E-03 |   0.145387E-03 |   0.365256E-01 |   0.100000E-04
   7 |   0.760774E+00 |   0.816587E-04 |   0.621238E-04 |   0.441735E-04 |   0.337184E-02 |   0.100000E-04
   8 |   0.286106E+00 |   0.682942E-04 |   0.195394E-04 |   0.235490E-04 |   0.958274E-03 |   0.100000E-04
   9 |   0.261630E+00 |   0.252304E-04 |   0.660103E-05 |   0.132793E-04 |   0.304716E-03 |   0.100000E-04
  10 |   0.718234E+00 |   0.372849E-06 |   0.267793E-06 |   0.577413E-05 |   0.576126E-04 |   0.100000E-04
  11 |   0.806560E+00 |   0.798127E-07 |   0.643737E-07 |   0.203209E-05 |   0.713561E-05 |   0.100000E-04

 Charges are converged, EXIT

%%%% DENSITY %%%%%%%%%%%%%%%%%%%%%%%%%%%%%%%%%%%%%%%%%%%%%%%%%%%%%%%%%%%%%%%%%%%

 density label              = velectrostatic                                    

 integral of density        =   0.5454073407E-13

%%%% CHARGES %%%%%%%%%%%%%%%%%%%%%%%%%%%%%%%%%%%%%%%%%%%%%%%%%%%%%%%%%%%%%%%%%%%

 total number of charges    =             12

 total charge               =      1.0000000

%%%% DENSITY %%%%%%%%%%%%%%%%%%%%%%%%%%%%%%%%%%%%%%%%%%%%%%%%%%%%%%%%%%%%%%%%%%%

 density label              = dvtot                                             

 integral of density        =   0.8108071827E-13

%%%% ELECTRONS %%%%%%%%%%%%%%%%%%%%%%%%%%%%%%%%%%%%%%%%%%%%%%%%%%%%%%%%%%%%%%%%%

 number of electrons        =              8

 total electronic charge    =      8.0000000

%%%% ELECTRONS %%%%%%%%%%%%%%%%%%%%%%%%%%%%%%%%%%%%%%%%%%%%%%%%%%%%%%%%%%%%%%%%%

 number of electrons        =              8

 total electronic charge    =      8.0000000

%%%% CHARGES %%%%%%%%%%%%%%%%%%%%%%%%%%%%%%%%%%%%%%%%%%%%%%%%%%%%%%%%%%%%%%%%%%%

 total number of charges    =             12

 total charge               =      1.0000000

%%%% CHARGES %%%%%%%%%%%%%%%%%%%%%%%%%%%%%%%%%%%%%%%%%%%%%%%%%%%%%%%%%%%%%%%%%%%

 total number of charges    =             12

 total charge               =      1.0000000

%%%% DENSITY %%%%%%%%%%%%%%%%%%%%%%%%%%%%%%%%%%%%%%%%%%%%%%%%%%%%%%%%%%%%%%%%%%%

 density label              = dvtot                                             

 integral of density        =   0.8108071827E-13

%%%% DENSITY %%%%%%%%%%%%%%%%%%%%%%%%%%%%%%%%%%%%%%%%%%%%%%%%%%%%%%%%%%%%%%%%%%%

 density label              = vreference                                        

 integral of density        =  -0.4390890943E-12

%%%% DENSITY %%%%%%%%%%%%%%%%%%%%%%%%%%%%%%%%%%%%%%%%%%%%%%%%%%%%%%%%%%%%%%%%%%%

 density label              = velectrostatic                                    

 integral of density        =   0.5454073407E-13

%%%% CHARGES %%%%%%%%%%%%%%%%%%%%%%%%%%%%%%%%%%%%%%%%%%%%%%%%%%%%%%%%%%%%%%%%%%%

 total number of charges    =             12

 total charge               =      1.0000000
