
     Program PWSCF v.6.1 (svn rev. 13369) starts on 10Oct2017 at 12:28:20 

     This program is part of the open-source Quantum ESPRESSO suite
     for quantum simulation of materials; please cite
         "P. Giannozzi et al., J. Phys.:Condens. Matter 21 395502 (2009);
          URL http://www.quantum-espresso.org", 
     in publications or presentations arising from this work. More details at
     http://www.quantum-espresso.org/quote

     Serial version
     Reading input from neutral.in

     Current dimensions of program PWSCF are:
     Max number of different atomic species (ntypx) = 10
     Max number of k-points (npk) =  40000
     Max angular momentum in pseudopotentials (lmaxx) =  3
               file C.pbe-rrkjus.UPF: wavefunction(s)  2S 2P renormalized
               file H.pbe-rrkjus.UPF: wavefunction(s)  1S renormalized
               file N.pbe-rrkjus.UPF: wavefunction(s)  2S renormalized
               file O.pbe-rrkjus.UPF: wavefunction(s)  2S renormalized

     gamma-point specific algorithms are used

     G-vector sticks info
     --------------------
     sticks:   dense  smooth     PW     G-vecs:    dense   smooth      PW
     Sum        9549    3809    949               701475   177509   22119



     bravais-lattice index     =            1
     lattice parameter (alat)  =      20.0000  a.u.
     unit-cell volume          =    8000.0000 (a.u.)^3
     number of atoms/cell      =            9
     number of atomic types    =            4
     number of electrons       =        24.00
     number of Kohn-Sham states=           12
     kinetic-energy cutoff     =      30.0000  Ry
     charge density cutoff     =     300.0000  Ry
     convergence threshold     =      5.0E-03
     mixing beta               =       0.7000
     number of iterations used =            8  plain     mixing
     Exchange-correlation      =  SLA  PW   PBE  PBE ( 1  4  3  4 0 0)


     Environ Module
     ==============

     Plese cite
         O. Andreussi, I. Dabo and N. Marzari, J. Chem. Phys. 136, 064102 (2012)         
     in publications or presentations arising from this work.

     compensation onset threshold      =               0.1000E+03 
     static permittivity               =                    78.30 
     epsilon calculation mode          =                    ionic 
     surface tension in input (dyn/cm) =                    50.00 
     surface tension in internal units =               0.6423E-04 
     external pressure in input (GPa)  =                    -0.35 
     external pressure in inter. units =              -0.2379E-04 

     Electrostatic Setup
     -------------------
     electrostatic problem to solve    = generalized              
     numerical solver adopted          = cg                       
     type of auxiliary density adopted = none                     
     type of core tool for poisson     = fft                      
     type of core tool for s(r) deriv  = analytic                 



     celldm(1)=  20.000000  celldm(2)=   0.000000  celldm(3)=   0.000000
     celldm(4)=   0.000000  celldm(5)=   0.000000  celldm(6)=   0.000000

     crystal axes: (cart. coord. in units of alat)
               a(1) = (   1.000000   0.000000   0.000000 )  
               a(2) = (   0.000000   1.000000   0.000000 )  
               a(3) = (   0.000000   0.000000   1.000000 )  

     reciprocal axes: (cart. coord. in units 2 pi/alat)
               b(1) = (  1.000000  0.000000  0.000000 )  
               b(2) = (  0.000000  1.000000  0.000000 )  
               b(3) = (  0.000000  0.000000  1.000000 )  


     PseudoPot. # 1 for C  read from file:
     /Users/oliviero/PWSCF/espresso-6.1-Environ-1.0/Environ/tests/../..//pseudo/C.pbe-rrkjus.UPF
     MD5 check sum: 00fb224312de0c5b6853bd333518df6f
     Pseudo is Ultrasoft, Zval =  4.0
     Generated by new atomic code, or converted to UPF format
     Using radial grid of  627 points,  4 beta functions with: 
                l(1) =   0
                l(2) =   0
                l(3) =   1
                l(4) =   1
     Q(r) pseudized with 0 coefficients 


     PseudoPot. # 2 for H  read from file:
     /Users/oliviero/PWSCF/espresso-6.1-Environ-1.0/Environ/tests/../..//pseudo/H.pbe-rrkjus.UPF
     MD5 check sum: 7cc9d459525c9a0585f487a71c3c9563
     Pseudo is Ultrasoft, Zval =  1.0
     Generated by new atomic code, or converted to UPF format
     Using radial grid of 1061 points,  2 beta functions with: 
                l(1) =   0
                l(2) =   0
     Q(r) pseudized with 0 coefficients 


     PseudoPot. # 3 for N  read from file:
     /Users/oliviero/PWSCF/espresso-6.1-Environ-1.0/Environ/tests/../..//pseudo/N.pbe-rrkjus.UPF
     MD5 check sum: 0c3fbe5807a93f9ba59d5a7019aa238b
     Pseudo is Ultrasoft, Zval =  5.0
     Generated by new atomic code, or converted to UPF format
     Using radial grid of 1257 points,  4 beta functions with: 
                l(1) =   0
                l(2) =   0
                l(3) =   1
                l(4) =   1
     Q(r) pseudized with 0 coefficients 


     PseudoPot. # 4 for O  read from file:
     /Users/oliviero/PWSCF/espresso-6.1-Environ-1.0/Environ/tests/../..//pseudo/O.pbe-rrkjus.UPF
     MD5 check sum: 390ba29e75625707450f3bd3f0eb6be9
     Pseudo is Ultrasoft, Zval =  6.0
     Generated by new atomic code, or converted to UPF format
     Using radial grid of 1269 points,  4 beta functions with: 
                l(1) =   0
                l(2) =   0
                l(3) =   1
                l(4) =   1
     Q(r) pseudized with 0 coefficients 


     atomic species   valence    mass     pseudopotential
        C              4.00    12.00000     C ( 1.00)
        H              1.00     1.00000     H ( 1.00)
        N              5.00    14.00000     N ( 1.00)
        O              6.00    16.00000     O ( 1.00)

     No symmetry found



   Cartesian axes

     site n.     atom                  positions (alat units)
         1           C   tau(   1) = (   0.0000000   0.0000000   0.0000000  )
         2           C   tau(   2) = (   0.0000000   0.0000000   0.1455089  )
         3           N   tau(   3) = (   0.1170969   0.0000000  -0.0545024  )
         4           H   tau(   4) = (   0.0476617  -0.0825466   0.1792090  )
         5           H   tau(   5) = (  -0.0953183  -0.0000030   0.1792090  )
         6           H   tau(   6) = (   0.0476566   0.0825496   0.1792090  )
         7           O   tau(   7) = (  -0.0984002  -0.0000019  -0.0641310  )
         8           H   tau(   8) = (   0.1263131  -0.0000015  -0.1475548  )
         9           H   tau(   9) = (   0.1944645   0.0000134  -0.0025716  )

     number of k points=     1
                       cart. coord. in units 2pi/alat
        k(    1) = (   0.0000000   0.0000000   0.0000000), wk =   2.0000000

     Dense  grid:   350738 G-vectors     FFT dimensions: ( 120, 120, 120)

     Smooth grid:    88755 G-vectors     FFT dimensions: (  72,  72,  72)

     Estimated max dynamical RAM per process >     298.64MB

     Initial potential from superposition of free atoms
     Check: negative starting charge=   -0.000530

     starting charge   23.51886, renormalised to   24.00000

     negative rho (up, down):  5.411E-04 0.000E+00
     Starting wfc are   21 randomized atomic wfcs

     total cpu time spent up to now is      166.6 secs

     Self-consistent Calculation

     iteration #  1     ecut=    30.00 Ry     beta=0.70
     Davidson diagonalization with overlap
     ethr =  1.00E-02,  avg # of iterations =  2.0

     negative rho (up, down):  1.677E-04 0.000E+00

     add environment contribution to local potential
 Warning: Polarization charge not converged
     polarization accuracy = 9.9E-02, # of iterations = 201

     total cpu time spent up to now is      217.4 secs

     total energy              =     -79.57109873 Ry
     Harris-Foulkes estimate   =     -81.75208041 Ry
     estimated scf accuracy    <       2.90357113 Ry
     electrostatic embedding   =       0.00000000 Ry
     cavitation energy         =       0.02859009 Ry
     PV energy                 =      -0.01896491 Ry
     correction to one-el term =       0.00000000 Ry

     iteration #  2     ecut=    30.00 Ry     beta=0.70
     Davidson diagonalization with overlap
     ethr =  1.00E-02,  avg # of iterations =  4.0

     negative rho (up, down):  1.541E-03 0.000E+00

     add environment contribution to local potential
 Warning: Polarization charge not converged
     polarization accuracy = 1.9E+00, # of iterations = 201

     total cpu time spent up to now is      269.8 secs

     total energy              =     -79.96717143 Ry
     Harris-Foulkes estimate   =     -80.79981083 Ry
     estimated scf accuracy    <       1.89686840 Ry
     electrostatic embedding   =      -0.00392570 Ry
     cavitation energy         =       0.02859009 Ry
     PV energy                 =      -0.01896491 Ry
     correction to one-el term =      -0.17592460 Ry

     iteration #  3     ecut=    30.00 Ry     beta=0.70
     Davidson diagonalization with overlap
     ethr =  7.90E-03,  avg # of iterations =  4.0

     negative rho (up, down):  5.502E-04 0.000E+00

     add environment contribution to local potential
 Warning: Polarization charge not converged
     polarization accuracy = 7.6E+00, # of iterations = 201

     total cpu time spent up to now is      321.7 secs

     total energy              =     -80.41450628 Ry
     Harris-Foulkes estimate   =     -80.61549431 Ry
     estimated scf accuracy    <       0.25687358 Ry
     electrostatic embedding   =      -0.01565268 Ry
     cavitation energy         =       0.02859009 Ry
     PV energy                 =      -0.01896491 Ry
     correction to one-el term =       0.07976057 Ry

     iteration #  4     ecut=    30.00 Ry     beta=0.70
     Davidson diagonalization with overlap
     ethr =  1.07E-03,  avg # of iterations =  3.0

     negative rho (up, down):  2.115E-04 0.000E+00

     add environment contribution to local potential
 Warning: Polarization charge not converged
     polarization accuracy = 1.3E+02, # of iterations = 201

     total cpu time spent up to now is      373.0 secs

     total energy              =     -80.46728487 Ry
     Harris-Foulkes estimate   =     -80.82272943 Ry
     estimated scf accuracy    <       0.03807390 Ry
     electrostatic embedding   =      -0.01719701 Ry
     cavitation energy         =       0.02859009 Ry
     PV energy                 =      -0.01896491 Ry
     correction to one-el term =       0.34454697 Ry

     iteration #  5     ecut=    30.00 Ry     beta=0.70
     Davidson diagonalization with overlap
     ethr =  1.59E-04,  avg # of iterations =  3.0

     negative rho (up, down):  2.326E-04 0.000E+00

     total cpu time spent up to now is      377.3 secs

     End of self-consistent calculation

          k = 0.0000 0.0000 0.0000 ( 11060 PWs)   bands (ev):

   -25.7086 -22.3830 -18.2121 -14.5226 -13.1211 -11.3891 -10.9363  -9.7069
    -9.5633  -8.9384  -6.3696  -5.8215

     highest occupied level (ev):    -5.8215

!    total energy              =     -80.47995450 Ry
     Harris-Foulkes estimate   =     -80.89808614 Ry
     estimated scf accuracy    <       0.00467069 Ry

     The total energy is the sum of the following terms:

     one-electron contribution =    -236.40079733 Ry
     hartree contribution      =     121.41919864 Ry
     xc contribution           =     -22.66061539 Ry
     ewald contribution        =      56.74764018 Ry
     electrostatic embedding   =      -0.02205664 Ry
     cavitation energy         =       0.02859009 Ry
     PV energy                 =      -0.01896491 Ry
     correction to one-el term =       0.42705087 Ry

     convergence has been achieved in   5 iterations

     Forces acting on atoms (cartesian axes, Ry/au):

     atom    1 type  1   force =     0.15132864   -0.00886943    0.11776297
     atom    2 type  1   force =     0.09556386    0.00356954   -0.34172275
     atom    3 type  3   force =    -0.28129866    0.01724796    0.21336799
     atom    4 type  2   force =    -0.23145747    0.02581784   -0.09040338
     atom    5 type  2   force =     0.54092128    0.00268610   -0.20555089
     atom    6 type  2   force =    -0.22704626   -0.00861770   -0.08923558
     atom    7 type  4   force =     0.68785713   -0.05019867    0.23611396
     atom    8 type  2   force =    -0.26097475    0.00704082    0.24253798
     atom    9 type  2   force =    -0.47489376    0.01132353   -0.08287030

     Total force =     1.278863     Total SCF correction =     0.142629
     SCF correction compared to forces is large: reduce conv_thr to get better values

     Writing output data file pwscf.save

     init_run     :    152.27s CPU    166.34s WALL (       1 calls)
     electrons    :    186.93s CPU    210.93s WALL (       1 calls)
     forces       :    191.44s CPU    196.51s WALL (       1 calls)

     Called by init_run:
     wfcinit      :      0.25s CPU      0.26s WALL (       1 calls)
     potinit      :      1.99s CPU      2.18s WALL (       1 calls)

     Called by electrons:
     c_bands      :      2.31s CPU      2.20s WALL (       5 calls)
     sum_band     :      7.30s CPU      7.57s WALL (       5 calls)
     v_of_rho     :      8.20s CPU      8.95s WALL (       6 calls)
     newd         :      3.87s CPU      5.52s WALL (       6 calls)
     mix_rho      :      0.66s CPU      0.76s WALL (       5 calls)

     Called by c_bands:
     init_us_2    :      0.10s CPU      0.14s WALL (      11 calls)
     regterg      :      2.17s CPU      2.03s WALL (       5 calls)

     Called by sum_band:
     sum_band:bec :      0.00s CPU      0.00s WALL (       5 calls)
     addusdens    :      5.75s CPU      5.96s WALL (       5 calls)

     Called by *egterg:
     h_psi        :      2.02s CPU      1.97s WALL (      22 calls)
     s_psi        :      0.11s CPU      0.04s WALL (      22 calls)
     g_psi        :      0.02s CPU      0.02s WALL (      16 calls)
     rdiaghg      :      0.01s CPU      0.01s WALL (      21 calls)

     Called by h_psi:
     h_psi:pot    :      2.00s CPU      1.95s WALL (      22 calls)
     h_psi:calbec :      0.05s CPU      0.05s WALL (      22 calls)
     vloc_psi     :      1.83s CPU      1.86s WALL (      22 calls)
     add_vuspsi   :      0.12s CPU      0.04s WALL (      22 calls)

     General routines
     calbec       :      0.08s CPU      0.10s WALL (      31 calls)
     fft          :    106.17s CPU    108.29s WALL (    1717 calls)
     ffts         :      0.11s CPU      0.12s WALL (      11 calls)
     fftw         :      1.50s CPU      1.53s WALL (     240 calls)
     interpolate  :      0.93s CPU      1.04s WALL (      11 calls)
     davcio       :      0.01s CPU      0.19s WALL (       1 calls)


     Environ routines
     calc_eelect  :      0.03s CPU      0.03s WALL (      10 calls)
     calc_velect  :    165.76s CPU    187.23s WALL (       8 calls)
     dielectric   :      0.25s CPU      0.39s WALL (       2 calls)
     calc_felect  :      0.99s CPU      1.09s WALL (       1 calls)

     PWSCF        :  8m50.94s CPU     9m34.45s WALL


   This run was terminated on:  12:37:54  10Oct2017            

=------------------------------------------------------------------------------=
   JOB DONE.
=------------------------------------------------------------------------------=

%%%% IONS %%%%%%%%%%%%%%%%%%%%%%%%%%%%%%%%%%%%%%%%%%%%%%%%%%%%%%%%%%%%%%%%%%%%%%
 number of ions             =          9
 ionic center of charge     =      0.0131609     0.0000000     0.0130099
 total ionic charge         =    -24.0000000
 ionic dipole               =      0.0000000     0.0000000     0.0000000
 ionic quadrupole (pc)      =    -75.9587432    -5.4513517   -95.3140149
 ionic quadrupole (gauss)   =    -78.9587432    -8.4513517   -98.3140149
 ion   1 type =  1 coordinates =      0.0000000     0.0000000     0.0000000
 ion   2 type =  1 coordinates =      0.0000000     0.0000000     2.9101782
 ion   3 type =  3 coordinates =      2.3419379     0.0000000    -1.0900479
 ion   4 type =  2 coordinates =      0.9532347    -1.6509323     3.5841800
 ion   5 type =  2 coordinates =     -1.9063663    -0.0000596     3.5841809
 ion   6 type =  2 coordinates =      0.9531315     1.6509919     3.5841800
 ion   7 type =  4 coordinates =     -1.9680045    -0.0000375    -1.2826193
 ion   8 type =  2 coordinates =      2.5262613    -0.0000303    -2.9510950
 ion   9 type =  2 coordinates =      3.8892907     0.0002681    -0.0514326

%%%% SYSTEM %%%%%%%%%%%%%%%%%%%%%%%%%%%%%%%%%%%%%%%%%%%%%%%%%%%%%%%%%%%%%%%%%%%%
 system is built from all present ionic types
 system defined dimension   =  0 
 system defined axis        =  3 
 system center              =      0.0131609     0.0000000     0.0130099 
 system width               =      0.4839110 

%%%% BOUNDARY %%%%%%%%%%%%%%%%%%%%%%%%%%%%%%%%%%%%%%%%%%%%%%%%%%%%%%%%%%%%%%%%%%
 boundary mode              = ionic                
 boundary is built from soft-spheres centered on ionic positions
 solvent-dependent scaling  =      1.1600000 
 softness parameter         =      0.5000000 

%%%% DIELECTRIC %%%%%%%%%%%%%%%%%%%%%%%%%%%%%%%%%%%%%%%%%%%%%%%%%%%%%%%%%%%%%%%%%
 dielectric build on homogeneous background
 environment bulk permitt.  =     78.3000000 
 dielectric flags
 need gradient              =  F 
 need factor depend. sqrt   =  T 
 need gradient of logarithm =  T 

%%%% ELECTRONS %%%%%%%%%%%%%%%%%%%%%%%%%%%%%%%%%%%%%%%%%%%%%%%%%%%%%%%%%%%%%%%%%
 number of electrons        =         24
 total electronic charge    =     24.0000000
 number of spin components  =  1

%%%% COMPUTE ELECTROSTATIC POTENTIAL %%%%%%%%%%%%%%%%%%%%%%%%%%%%%%%%%%%%%%%%%%%
 Iteration #          1
  pAp =  88.51839312793982  rzold =  89.31154724218423  alpha =  1.0089603311381627
 delta_qm =   0.181806E-01 delta_en =   0.571164E+03 tol =   0.100000E-03
 Iteration #          2
  pAp =  -323.5896291238037  rzold =  15.654322615141844  alpha =  -0.0483770838315482
 delta_qm =   0.576365E-02 delta_en =   0.574035E+02 tol =   0.100000E-03
 Iteration #          3
  pAp =  -6.043671487877676  rzold =  0.6703000912252189  alpha =  -0.11090941864886251
 delta_qm =   0.282825E-02 delta_en =   0.138222E+02 tol =   0.100000E-03
 Iteration #          4
  pAp =  -0.972716409525874  rzold =  0.09862752660921636  alpha =  -0.10139391670928
 delta_qm =   0.260866E-02 delta_en =   0.117592E+02 tol =   0.100000E-03
 Iteration #          5
  pAp =  -0.20431978466143666  rzold =  0.031418397345017245  alpha =  -0.15377070505961216
 delta_qm =   0.274635E-02 delta_en =   0.130334E+02 tol =   0.100000E-03
 Iteration #          6
  pAp =  -0.07658426064403365  rzold =  0.03480807204242233  alpha =  -0.45450686276402774
 delta_qm =   0.471770E-02 delta_en =   0.384596E+02 tol =   0.100000E-03
 Iteration #          7
  pAp =  0.14764672820249738  rzold =  0.14698726174289262  alpha =  0.9955334840965774
 delta_qm =   0.154416E-01 delta_en =   0.412031E+03 tol =   0.100000E-03
 Iteration #          8
  pAp =  -134.36358962820552  rzold =  3.3572672466260944  alpha =  -0.024986436101595035
 delta_qm =   0.384811E-02 delta_en =   0.255881E+02 tol =   0.100000E-03
 Iteration #          9
  pAp =  -0.2972497713878472  rzold =  0.05615151398838576  alpha =  -0.18890347241048028
 delta_qm =   0.338675E-02 delta_en =   0.198203E+02 tol =   0.100000E-03
 Iteration #         10
  pAp =  -0.09943688731571822  rzold =  0.03339522196453737  alpha =  -0.3358433964098805
 delta_qm =   0.466646E-02 delta_en =   0.376287E+02 tol =   0.100000E-03
 Iteration #         11
  pAp =  0.012426931202471772  rzold =  0.06166306291840129  alpha =  4.9620507198218196
 delta_qm =   0.658555E-01 delta_en =   0.749425E+04 tol =   0.100000E-03
 Iteration #         12
  pAp =  -1421.741137521527  rzold =  19.82878770996623  alpha =  -0.013946834052036424
 delta_qm =   0.331435E-02 delta_en =   0.189819E+02 tol =   0.100000E-03
 Iteration #         13
  pAp =  -0.30188215435365756  rzold =  0.04499766791499788  alpha =  -0.14905706503698368
 delta_qm =   0.238087E-02 delta_en =   0.979526E+01 tol =   0.100000E-03
 Iteration #         14
  pAp =  -0.049537739263427236  rzold =  0.013384778092777718  alpha =  -0.27019355933062217
 delta_qm =   0.259787E-02 delta_en =   0.116622E+02 tol =   0.100000E-03
 Iteration #         15
  pAp =  -0.025468861388682904  rzold =  0.01135606082181771  alpha =  -0.44588019262077333
 delta_qm =   0.431552E-02 delta_en =   0.321818E+02 tol =   0.100000E-03
 Iteration #         16
  pAp =  0.025146546061273544  rzold =  0.06776790159259155  alpha =  2.694918873847101
 delta_qm =   0.706972E-01 delta_en =   0.863670E+04 tol =   0.100000E-03
 Iteration #         17
  pAp =  -1165.0887881062542  rzold =  14.141641159989353  alpha =  -0.01213782271733582
 delta_qm =   0.118277E-02 delta_en =   0.241737E+01 tol =   0.100000E-03
 Iteration #         18
  pAp =  -0.03141723672340379  rzold =  0.00704145420862562  alpha =  -0.22412710164863725
 delta_qm =   0.843746E-03 delta_en =   0.123018E+01 tol =   0.100000E-03
 Iteration #         19
  pAp =  -0.006154695597654081  rzold =  0.0025894913500559592  alpha =  -0.4207342684897313
 delta_qm =   0.965353E-03 delta_en =   0.161033E+01 tol =   0.100000E-03
 Iteration #         20
  pAp =  -0.00574362409881995  rzold =  0.0030608571011636085  alpha =  -0.5329138969579283
 delta_qm =   0.180951E-02 delta_en =   0.565807E+01 tol =   0.100000E-03
 Iteration #         21
  pAp =  0.0026914271802197277  rzold =  0.007906353555618322  alpha =  2.9376063427333183
 delta_qm =   0.160011E-01 delta_en =   0.442432E+03 tol =   0.100000E-03
 Iteration #         22
  pAp =  -29.340194927775805  rzold =  0.7476715915665693  alpha =  -0.025482843362392347
 delta_qm =   0.185102E-02 delta_en =   0.592057E+01 tol =   0.100000E-03
 Iteration #         23
  pAp =  -0.039401065363957564  rzold =  0.008292624371053638  alpha =  -0.21046700880934507
 delta_qm =   0.105336E-02 delta_en =   0.191734E+01 tol =   0.100000E-03
 Iteration #         24
  pAp =  -0.004370754011174542  rzold =  0.0019266047511399516  alpha =  -0.4407945965877452
 delta_qm =   0.119855E-02 delta_en =   0.248229E+01 tol =   0.100000E-03
 Iteration #         25
  pAp =  -0.0017073259121163  rzold =  0.002579616047878339  alpha =  -1.51091014877224
 delta_qm =   0.401024E-02 delta_en =   0.277898E+02 tol =   0.100000E-03
 Iteration #         26
  pAp =  0.1941118018937239  rzold =  0.05512354086265432  alpha =  0.28397830695958626
 delta_qm =   0.941415E-02 delta_en =   0.153146E+03 tol =   0.100000E-03
 Iteration #         27
  pAp =  -11.347114023348741  rzold =  0.328456535565006  alpha =  -0.028946262008925548
 delta_qm =   0.142155E-02 delta_en =   0.349196E+01 tol =   0.100000E-03
 Iteration #         28
  pAp =  -0.055134241557544934  rzold =  0.007349246970311711  alpha =  -0.1332973259937044
 delta_qm =   0.895352E-03 delta_en =   0.138526E+01 tol =   0.100000E-03
 Iteration #         29
  pAp =  -0.0023656678883854023  rzold =  0.0014071583601079109  alpha =  -0.5948249824147184
 delta_qm =   0.113903E-02 delta_en =   0.224190E+01 tol =   0.100000E-03
 Iteration #         30
  pAp =  -0.00023975726249640054  rzold =  0.0019713130047884528  alpha =  -8.222120090389536
 delta_qm =   0.169654E-01 delta_en =   0.497364E+03 tol =   0.100000E-03
 Iteration #         31
  pAp =  32.63251327326497  rzold =  0.7975829404871103  alpha =  0.02444135803479626
 delta_qm =   0.255311E-02 delta_en =   0.112638E+02 tol =   0.100000E-03
 Iteration #         32
  pAp =  -0.6143103797796247  rzold =  0.036793664716237726  alpha =  -0.05989425854962266
 delta_qm =   0.540937E-03 delta_en =   0.505634E+00 tol =   0.100000E-03
 Iteration #         33
  pAp =  -0.0025996746770205977  rzold =  0.0009401747708246184  alpha =  -0.3616509323782474
 delta_qm =   0.439921E-03 delta_en =   0.334421E+00 tol =   0.100000E-03
 Iteration #         34
  pAp =  -0.0005898667774371447  rzold =  0.0004223809867703486  alpha =  -0.7160616649839325
 delta_qm =   0.715321E-03 delta_en =   0.884190E+00 tol =   0.100000E-03
 Iteration #         35
  pAp =  -0.00695471516831567  rzold =  0.0011316339639976462  alpha =  -0.16271463843021933
 delta_qm =   0.102071E-02 delta_en =   0.180032E+01 tol =   0.100000E-03
 Iteration #         36
  pAp =  0.003208736123341836  rzold =  0.0021558244627089577  alpha =  0.6718609383384597
 delta_qm =   0.225372E-02 delta_en =   0.877691E+01 tol =   0.100000E-03
 Iteration #         37
  pAp =  -0.07554981220914403  rzold =  0.008100774175706456  alpha =  -0.10722427943673954
 delta_qm =   0.587026E-03 delta_en =   0.595468E+00 tol =   0.100000E-03
 Iteration #         38
  pAp =  -0.0018959182226720398  rzold =  0.000632382389798648  alpha =  -0.33354940220332435
 delta_qm =   0.439322E-03 delta_en =   0.333510E+00 tol =   0.100000E-03
 Iteration #         39
  pAp =  -0.000978292282586808  rzold =  0.0004797301148736446  alpha =  -0.49037503761671153
 delta_qm =   0.581066E-03 delta_en =   0.583437E+00 tol =   0.100000E-03
 Iteration #         40
  pAp =  -0.0024659148557856954  rzold =  0.0008496121068459888  alpha =  -0.34454235305512343
 delta_qm =   0.102416E-02 delta_en =   0.181251E+01 tol =   0.100000E-03
 Iteration #         41
  pAp =  0.0022840220961406216  rzold =  0.003901488237764479  alpha =  1.7081657153654235
 delta_qm =   0.113403E-01 delta_en =   0.222226E+03 tol =   0.100000E-03
 Iteration #         42
  pAp =  -9.905648136081624  rzold =  0.24337914322636545  alpha =  -0.02456973434578698
 delta_qm =   0.586706E-03 delta_en =   0.594818E+00 tol =   0.100000E-03
 Iteration #         43
  pAp =  -0.0011256816965110987  rzold =  0.0004988470024085852  alpha =  -0.4431510292427206
 delta_qm =   0.498992E-03 delta_en =   0.430261E+00 tol =   0.100000E-03
 Iteration #         44
  pAp =  -0.000698491978316728  rzold =  0.00036840977557451215  alpha =  -0.5274359434482416
 delta_qm =   0.713085E-03 delta_en =   0.878671E+00 tol =   0.100000E-03
 Iteration #         45
  pAp =  -0.0005517631436598928  rzold =  0.0008622834375876531  alpha =  -1.5627782455131964
 delta_qm =   0.348139E-02 delta_en =   0.209435E+02 tol =   0.100000E-03
 Iteration #         46
  pAp =  0.2520447318004134  rzold =  0.023556338595054228  alpha =  0.09346094412204488
 delta_qm =   0.136741E-02 delta_en =   0.323102E+01 tol =   0.100000E-03
 Iteration #         47
  pAp =  -0.05032425732782907  rzold =  0.005074913957929353  alpha =  -0.10084428916396448
 delta_qm =   0.416137E-03 delta_en =   0.299237E+00 tol =   0.100000E-03
 Iteration #         48
  pAp =  -0.0053789788424986025  rzold =  0.0005565501787950505  alpha =  -0.1034676274235959
 delta_qm =   0.346199E-03 delta_en =   0.207108E+00 tol =   0.100000E-03
 Iteration #         49
  pAp =  -0.002174324168061056  rzold =  0.0005393251121317651  alpha =  -0.2480426424237863
 delta_qm =   0.317478E-03 delta_en =   0.174169E+00 tol =   0.100000E-03
 Iteration #         50
  pAp =  -0.0003968282134589361  rzold =  0.0001845894284683526  alpha =  -0.4651620580587927
 delta_qm =   0.471584E-03 delta_en =   0.384292E+00 tol =   0.100000E-03
 Iteration #         51
  pAp =  -0.0013817782137560894  rzold =  0.0006046719623305669  alpha =  -0.43760420906252845
 delta_qm =   0.122390E-02 delta_en =   0.258842E+01 tol =   0.100000E-03
 Iteration #         52
  pAp =  0.00774299904527849  rzold =  0.0019568549361234536  alpha =  0.2527257106297463
 delta_qm =   0.572986E-03 delta_en =   0.567326E+00 tol =   0.100000E-03
 Iteration #         53
  pAp =  -0.0011420719388654252  rzold =  0.00038019120878447587  alpha =  -0.3328960250631596
 delta_qm =   0.352330E-03 delta_en =   0.214508E+00 tol =   0.100000E-03
 Iteration #         54
  pAp =  -0.008254050880549514  rzold =  0.0006647852232330169  alpha =  -0.08054048040817974
 delta_qm =   0.304045E-03 delta_en =   0.159742E+00 tol =   0.100000E-03
 Iteration #         55
  pAp =  -0.0002807425028311916  rzold =  0.00019323560043466785  alpha =  -0.6883019082823344
 delta_qm =   0.441168E-03 delta_en =   0.336319E+00 tol =   0.100000E-03
 Iteration #         56
  pAp =  0.00020167027801283843  rzold =  0.00032359541037649595  alpha =  1.6045766067516192
 delta_qm =   0.100915E-02 delta_en =   0.175977E+01 tol =   0.100000E-03
 Iteration #         57
  pAp =  -0.011295376027996894  rzold =  0.0018024177343274183  alpha =  -0.15957129093001576
 delta_qm =   0.399011E-03 delta_en =   0.275114E+00 tol =   0.100000E-03
 Iteration #         58
  pAp =  -0.0009984005776765977  rzold =  0.00030449608702745373  alpha =  -0.30498388506149904
 delta_qm =   0.342663E-03 delta_en =   0.202898E+00 tol =   0.100000E-03
 Iteration #         59
  pAp =  -0.00023869740164625573  rzold =  0.00014837746794913785  alpha =  -0.6216132514464064
 delta_qm =   0.536894E-03 delta_en =   0.498105E+00 tol =   0.100000E-03
 Iteration #         60
  pAp =  -0.0018685897010690875  rzold =  0.0007463270551261575  alpha =  -0.39940659776683823
 delta_qm =   0.134733E-02 delta_en =   0.313682E+01 tol =   0.100000E-03
 Iteration #         61
  pAp =  0.0005323958735459544  rzold =  0.003217536892974186  alpha =  6.043504566525271
 delta_qm =   0.637729E-01 delta_en =   0.702775E+04 tol =   0.100000E-03
 Iteration #         62
  pAp =  -1877.579923249197  rzold =  5.9649999367177315  alpha =  -0.003176961930012096
 delta_qm =   0.493918E-03 delta_en =   0.421554E+00 tol =   0.100000E-03
 Iteration #         63
  pAp =  -0.00088640685726861  rzold =  0.00030673371655301143  alpha =  -0.34604167830806976
 delta_qm =   0.351537E-03 delta_en =   0.213544E+00 tol =   0.100000E-03
 Iteration #         64
  pAp =  -0.002073958133870693  rzold =  0.0004122929058122787  alpha =  -0.19879519218780153
 delta_qm =   0.331432E-03 delta_en =   0.189816E+00 tol =   0.100000E-03
 Iteration #         65
  pAp =  -0.0001622440774528385  rzold =  0.0001907920145707894  alpha =  -1.1759567286901385
 delta_qm =   0.812993E-03 delta_en =   0.114214E+01 tol =   0.100000E-03
 Iteration #         66
  pAp =  -0.0020094765017137956  rzold =  0.00194749708448754  alpha =  -0.9691564359307532
 delta_qm =   0.596168E-02 delta_en =   0.614160E+02 tol =   0.100000E-03
 Iteration #         67
  pAp =  4.32439550249112  rzold =  0.1003003609980192  alpha =  0.02319407670742419
 delta_qm =   0.571993E-03 delta_en =   0.565360E+00 tol =   0.100000E-03
 Iteration #         68
  pAp =  -0.0018458279403217978  rzold =  0.0005418800109047421  alpha =  -0.29357016386384954
 delta_qm =   0.348591E-03 delta_en =   0.209979E+00 tol =   0.100000E-03
 Iteration #         69
  pAp =  -0.0002644668590275173  rzold =  0.000163469211342238  alpha =  -0.6181084917155133
 delta_qm =   0.454941E-03 delta_en =   0.357647E+00 tol =   0.100000E-03
 Iteration #         70
  pAp =  -0.008217271243417082  rzold =  0.001003722652424758  alpha =  -0.12214792754089113
 delta_qm =   0.682229E-03 delta_en =   0.804275E+00 tol =   0.100000E-03
 Iteration #         71
  pAp =  -0.00038073147430711695  rzold =  0.0007178639471962499  alpha =  -1.8854862170317581
 delta_qm =   0.450788E-02 delta_en =   0.351146E+02 tol =   0.100000E-03
 Iteration #         72
  pAp =  1.138259107142689  rzold =  0.044488173207715684  alpha =  0.03908439908677029
 delta_qm =   0.624576E-03 delta_en =   0.674084E+00 tol =   0.100000E-03
 Iteration #         73
  pAp =  -0.002032039657565945  rzold =  0.0005407247283725883  alpha =  -0.266099495823959
 delta_qm =   0.389966E-03 delta_en =   0.262783E+00 tol =   0.100000E-03
 Iteration #         74
  pAp =  -0.0003939362526759106  rzold =  0.00023718178119072066  alpha =  -0.6020816301612356
 delta_qm =   0.435741E-03 delta_en =   0.328095E+00 tol =   0.100000E-03
 Iteration #         75
  pAp =  -0.0004210533197639075  rzold =  0.00023923545371843665  alpha =  -0.5681832739202257
 delta_qm =   0.785974E-03 delta_en =   0.106748E+01 tol =   0.100000E-03
 Iteration #         76
  pAp =  0.0010233915877875491  rzold =  0.00245811608989875  alpha =  2.4019311075371497
 delta_qm =   0.164307E-01 delta_en =   0.466506E+03 tol =   0.100000E-03
 Iteration #         77
  pAp =  -31.808635017509452  rzold =  0.4198797308425437  alpha =  -0.013200180724869701
 delta_qm =   0.549890E-03 delta_en =   0.522511E+00 tol =   0.100000E-03
 Iteration #         78
  pAp =  -0.0028860367182926786  rzold =  0.0005425200531376326  alpha =  -0.18798099473196467
 delta_qm =   0.387381E-03 delta_en =   0.259310E+00 tol =   0.100000E-03
 Iteration #         79
  pAp =  -0.00026180059868035596  rzold =  0.00019471483327504813  alpha =  -0.7437524369941727
 delta_qm =   0.515805E-03 delta_en =   0.459742E+00 tol =   0.100000E-03
 Iteration #         80
  pAp =  -0.00007632596582823507  rzold =  0.00030371084535104866  alpha =  -3.9791287546170517
 delta_qm =   0.420694E-02 delta_en =   0.305828E+02 tol =   0.100000E-03
 Iteration #         81
  pAp =  0.47631441990031637  rzold =  0.02758960948172975  alpha =  0.05792310358251118
 delta_qm =   0.940343E-03 delta_en =   0.152798E+01 tol =   0.100000E-03
 Iteration #         82
  pAp =  -0.016846816310043058  rzold =  0.0018022054709467721  alpha =  -0.10697602667350303
 delta_qm =   0.454398E-03 delta_en =   0.356793E+00 tol =   0.100000E-03
 Iteration #         83
  pAp =  -0.0009361222017358119  rzold =  0.00031811557407295427  alpha =  -0.3398226999456759
 delta_qm =   0.386188E-03 delta_en =   0.257716E+00 tol =   0.100000E-03
 Iteration #         84
  pAp =  -0.0008504881885819194  rzold =  0.0003010362798171478  alpha =  -0.3539570376857171
 delta_qm =   0.456546E-03 delta_en =   0.360175E+00 tol =   0.100000E-03
 Iteration #         85
  pAp =  -0.0005463033958239053  rzold =  0.0003241480672589873  alpha =  -0.5933480731345715
 delta_qm =   0.925119E-03 delta_en =   0.147890E+01 tol =   0.100000E-03
 Iteration #         86
  pAp =  -0.00019049311552918184  rzold =  0.0029461701710481714  alpha =  -15.466019141236863
 delta_qm =   0.133025E+00 delta_en =   0.305783E+05 tol =   0.100000E-03
 Iteration #         87
  pAp =  5916.029137746183  rzold =  16.500428838197077  alpha =  0.0027891054039810245
 delta_qm =   0.835091E-03 delta_en =   0.120507E+01 tol =   0.100000E-03
 Iteration #         88
  pAp =  -0.016925406593722908  rzold =  0.0016284657377966063  alpha =  -0.09621427578587992
 delta_qm =   0.454919E-03 delta_en =   0.357612E+00 tol =   0.100000E-03
 Iteration #         89
  pAp =  -0.00028049870826893456  rzold =  0.00020085640285527707  alpha =  -0.7160689048974207
 delta_qm =   0.522868E-03 delta_en =   0.472419E+00 tol =   0.100000E-03
 Iteration #         90
  pAp =  0.000022441932062828696  rzold =  0.00025264110740016765  alpha =  11.257547108371536
 delta_qm =   0.809660E-02 delta_en =   0.113279E+03 tol =   0.100000E-03
 Iteration #         91
  pAp =  -31.98041341398004  rzold =  0.27817120833148395  alpha =  -0.008698174245924012
 delta_qm =   0.872334E-03 delta_en =   0.131495E+01 tol =   0.100000E-03
 Iteration #         92
  pAp =  -0.008528645485684385  rzold =  0.0014012205402433038  alpha =  -0.1642957891256354
 delta_qm =   0.371132E-03 delta_en =   0.238013E+00 tol =   0.100000E-03
 Iteration #         93
  pAp =  -0.0029134184565039714  rzold =  0.0004211823476034743  alpha =  -0.14456637585418555
 delta_qm =   0.321741E-03 delta_en =   0.178877E+00 tol =   0.100000E-03
 Iteration #         94
  pAp =  -0.002178481482517177  rzold =  0.00032970083083720415  alpha =  -0.1513443347961093
 delta_qm =   0.344107E-03 delta_en =   0.204612E+00 tol =   0.100000E-03
 Iteration #         95
  pAp =  -0.00017012862058139256  rzold =  0.00017894974768903582  alpha =  -1.0518497538950131
 delta_qm =   0.875691E-03 delta_en =   0.132509E+01 tol =   0.100000E-03
 Iteration #         96
  pAp =  0.0010207417256570268  rzold =  0.0006600027614465155  alpha =  0.6465913412344221
 delta_qm =   0.987798E-03 delta_en =   0.168609E+01 tol =   0.100000E-03
 Iteration #         97
  pAp =  -0.0027563450198454663  rzold =  0.0006934132705174848  alpha =  -0.25156983814615513
 delta_qm =   0.504255E-03 delta_en =   0.439384E+00 tol =   0.100000E-03
 Iteration #         98
  pAp =  -0.00469742985960552  rzold =  0.00040796485533932966  alpha =  -0.08684852515788062
 delta_qm =   0.453224E-03 delta_en =   0.354952E+00 tol =   0.100000E-03
 Iteration #         99
  pAp =  -0.00043861865256257255  rzold =  0.00025876314268178123  alpha =  -0.5899501564057779
 delta_qm =   0.548165E-03 delta_en =   0.519237E+00 tol =   0.100000E-03
 Iteration #        100
  pAp =  0.00009215827378838502  rzold =  0.0003406420614938632  alpha =  3.6962721575715465
 delta_qm =   0.282811E-02 delta_en =   0.138209E+02 tol =   0.100000E-03
 Iteration #        101
  pAp =  -0.09247302946946016  rzold =  0.009477134462671927  alpha =  -0.10248538970816148
 delta_qm =   0.594187E-03 delta_en =   0.610084E+00 tol =   0.100000E-03
 Iteration #        102
  pAp =  -0.009749311686978108  rzold =  0.0011932841388920382  alpha =  -0.12239675755631811
 delta_qm =   0.368015E-03 delta_en =   0.234032E+00 tol =   0.100000E-03
 Iteration #        103
  pAp =  -0.00021299961972337801  rzold =  0.0001767090857980729  alpha =  -0.8296216022712364
 delta_qm =   0.541273E-03 delta_en =   0.506262E+00 tol =   0.100000E-03
 Iteration #        104
  pAp =  -0.0004309738274942809  rzold =  0.00032809106494866036  alpha =  -0.7612783979394065
 delta_qm =   0.135167E-02 delta_en =   0.315707E+01 tol =   0.100000E-03
 Iteration #        105
  pAp =  0.010473288514697195  rzold =  0.002774991043701221  alpha =  0.2649589037681019
 delta_qm =   0.145033E-02 delta_en =   0.363479E+01 tol =   0.100000E-03
 Iteration #        106
  pAp =  -0.02104206837976182  rzold =  0.002381445872392377  alpha =  -0.11317546495014921
 delta_qm =   0.609420E-03 delta_en =   0.641767E+00 tol =   0.100000E-03
 Iteration #        107
  pAp =  -0.010055604674048542  rzold =  0.0009160311617506396  alpha =  -0.09109657663001894
 delta_qm =   0.424142E-03 delta_en =   0.310861E+00 tol =   0.100000E-03
 Iteration #        108
  pAp =  -0.0005202510468682884  rzold =  0.0002180658746581554  alpha =  -0.4191550905487423
 delta_qm =   0.420531E-03 delta_en =   0.305590E+00 tol =   0.100000E-03
 Iteration #        109
  pAp =  -0.0006557319473595668  rzold =  0.00033525084646103895  alpha =  -0.5112620298751528
 delta_qm =   0.682860E-03 delta_en =   0.805762E+00 tol =   0.100000E-03
 Iteration #        110
  pAp =  0.0005627770367492667  rzold =  0.0005540262890432762  alpha =  0.984450773335499
 delta_qm =   0.968311E-03 delta_en =   0.162022E+01 tol =   0.100000E-03
 Iteration #        111
  pAp =  -0.0030826110913006206  rzold =  0.000979898722596938  alpha =  -0.3178794514047821
 delta_qm =   0.402342E-03 delta_en =   0.279727E+00 tol =   0.100000E-03
 Iteration #        112
  pAp =  -0.0007878428849410084  rzold =  0.00016861265533027123  alpha =  -0.21401812284297841
 delta_qm =   0.441518E-03 delta_en =   0.336852E+00 tol =   0.100000E-03
 Iteration #        113
  pAp =  -0.001250938766387493  rzold =  0.0004983860403195209  alpha =  -0.3984096214067923
 delta_qm =   0.889419E-03 delta_en =   0.136696E+01 tol =   0.100000E-03
 Iteration #        114
  pAp =  0.00012730571247888356  rzold =  0.001901504671275601  alpha =  14.936522754947127
 delta_qm =   0.790147E-01 delta_en =   0.107884E+05 tol =   0.100000E-03
 Iteration #        115
  pAp =  -2577.1117350464842  rzold =  8.485380877849819  alpha =  -0.0032925933177269727
 delta_qm =   0.755731E-03 delta_en =   0.986911E+00 tol =   0.100000E-03
 Iteration #        116
  pAp =  -0.009039152161588699  rzold =  0.0011564542389454681  alpha =  -0.1279383528755879
 delta_qm =   0.452747E-03 delta_en =   0.354205E+00 tol =   0.100000E-03
 Iteration #        117
  pAp =  -0.0006432079073486426  rzold =  0.00022549226112155322  alpha =  -0.3505744543021111
 delta_qm =   0.491942E-03 delta_en =   0.418189E+00 tol =   0.100000E-03
 Iteration #        118
  pAp =  -0.0004701598407918909  rzold =  0.00047309811601252487  alpha =  -1.0062495240250315
 delta_qm =   0.134567E-02 delta_en =   0.312912E+01 tol =   0.100000E-03
 Iteration #        119
  pAp =  -0.0130508844387629  rzold =  0.003612848898484492  alpha =  -0.2768278974070018
 delta_qm =   0.363222E-02 delta_en =   0.227976E+02 tol =   0.100000E-03
 Iteration #        120
  pAp =  0.23265656446023472  rzold =  0.020911761318962482  alpha =  0.08988253294067998
 delta_qm =   0.106619E-02 delta_en =   0.196432E+01 tol =   0.100000E-03
 Iteration #        121
  pAp =  -0.04295793256544514  rzold =  0.0030366686065794626  alpha =  -0.07068935642918076
 delta_qm =   0.621095E-03 delta_en =   0.666592E+00 tol =   0.100000E-03
 Iteration #        122
  pAp =  -0.0029121437867310287  rzold =  0.0005647997583112911  alpha =  -0.19394638440751452
 delta_qm =   0.528665E-03 delta_en =   0.482954E+00 tol =   0.100000E-03
 Iteration #        123
  pAp =  -0.0037356067855719368  rzold =  0.0006668871226526984  alpha =  -0.17852176659182165
 delta_qm =   0.559715E-03 delta_en =   0.541350E+00 tol =   0.100000E-03
 Iteration #        124
  pAp =  -0.00012072598994877064  rzold =  0.00032367112761741705  alpha =  -2.6810393334091938
 delta_qm =   0.246762E-02 delta_en =   0.105220E+02 tol =   0.100000E-03
 Iteration #        125
  pAp =  0.0440722576657685  rzold =  0.007651351519792453  alpha =  0.1736092481991309
 delta_qm =   0.995177E-03 delta_en =   0.171137E+01 tol =   0.100000E-03
 Iteration #        126
  pAp =  -0.006755640892057227  rzold =  0.0013736569081888722  alpha =  -0.20333480274298096
 delta_qm =   0.508232E-03 delta_en =   0.446342E+00 tol =   0.100000E-03
 Iteration #        127
  pAp =  -0.0002938622396242429  rzold =  0.0002638062069422017  alpha =  -0.8977206710175715
 delta_qm =   0.667303E-03 delta_en =   0.769466E+00 tol =   0.100000E-03
 Iteration #        128
  pAp =  -0.0007330838980237288  rzold =  0.0005804530060226149  alpha =  -0.7917961471905451
 delta_qm =   0.161657E-02 delta_en =   0.451576E+01 tol =   0.100000E-03
 Iteration #        129
  pAp =  0.017975215509486994  rzold =  0.007377728921645256  alpha =  0.4104389690210626
 delta_qm =   0.552226E-02 delta_en =   0.526960E+02 tol =   0.100000E-03
 Iteration #        130
  pAp =  -1.502104498585112  rzold =  0.05752865019845933  alpha =  -0.03829870042506876
 delta_qm =   0.606513E-03 delta_en =   0.635659E+00 tol =   0.100000E-03
 Iteration #        131
  pAp =  -0.0012014691466520385  rzold =  0.0005126152447452318  alpha =  -0.4266570191782811
 delta_qm =   0.439609E-03 delta_en =   0.333947E+00 tol =   0.100000E-03
 Iteration #        132
  pAp =  -0.00035967699906720344  rzold =  0.00023207460576159483  alpha =  -0.6452305995753516
 delta_qm =   0.666155E-03 delta_en =   0.766822E+00 tol =   0.100000E-03
 Iteration #        133
  pAp =  -0.00034372750821953904  rzold =  0.00045887031612536824  alpha =  -1.3349828138639617
 delta_qm =   0.259658E-02 delta_en =   0.116505E+02 tol =   0.100000E-03
 Iteration #        134
  pAp =  0.07621339470549932  rzold =  0.008770115422376087  alpha =  0.11507315028106554
 delta_qm =   0.911632E-03 delta_en =   0.143609E+01 tol =   0.100000E-03
 Iteration #        135
  pAp =  -0.013907116484436207  rzold =  0.001124951272547812  alpha =  -0.08089033221277554
 delta_qm =   0.690500E-03 delta_en =   0.823895E+00 tol =   0.100000E-03
 Iteration #        136
  pAp =  -0.002990374577673597  rzold =  0.0007503317012628247  alpha =  -0.25091562336868034
 delta_qm =   0.393154E-03 delta_en =   0.267097E+00 tol =   0.100000E-03
 Iteration #        137
  pAp =  -0.00023398328496035327  rzold =  0.00015215079029042442  alpha =  -0.6502635020112879
 delta_qm =   0.537187E-03 delta_en =   0.498649E+00 tol =   0.100000E-03
 Iteration #        138
  pAp =  -0.00021448325585201895  rzold =  0.00042665716807161575  alpha =  -1.989232988732624
 delta_qm =   0.295700E-02 delta_en =   0.151094E+02 tol =   0.100000E-03
 Iteration #        139
  pAp =  0.10244229142980929  rzold =  0.010931227860590786  alpha =  0.10670620217511018
 delta_qm =   0.754152E-03 delta_en =   0.982793E+00 tol =   0.100000E-03
 Iteration #        140
  pAp =  -0.005968485482830392  rzold =  0.0010309389658929096  alpha =  -0.1727304135795627
 delta_qm =   0.370319E-03 delta_en =   0.236972E+00 tol =   0.100000E-03
 Iteration #        141
  pAp =  -0.004097943814419581  rzold =  0.0003675360690583912  alpha =  -0.08968792294446032
 delta_qm =   0.325283E-03 delta_en =   0.182838E+00 tol =   0.100000E-03
 Iteration #        142
  pAp =  -0.0006463712322628404  rzold =  0.00023332264631471713  alpha =  -0.3609731291689646
 delta_qm =   0.418442E-03 delta_en =   0.302562E+00 tol =   0.100000E-03
 Iteration #        143
  pAp =  -0.0008136372481319732  rzold =  0.00027695859217367056  alpha =  -0.3403956650332059
 delta_qm =   0.693745E-03 delta_en =   0.831655E+00 tol =   0.100000E-03
 Iteration #        144
  pAp =  0.0017272959704581537  rzold =  0.0008128308055908773  alpha =  0.4705799234715283
 delta_qm =   0.867189E-03 delta_en =   0.129948E+01 tol =   0.100000E-03
 Iteration #        145
  pAp =  -0.0033612734081997333  rzold =  0.0008384052245034679  alpha =  -0.2494308325107388
 delta_qm =   0.293648E-03 delta_en =   0.149004E+00 tol =   0.100000E-03
 Iteration #        146
  pAp =  -0.0006721614112730071  rzold =  0.00012692912903949956  alpha =  -0.1888372746645904
 delta_qm =   0.299204E-03 delta_en =   0.154695E+00 tol =   0.100000E-03
 Iteration #        147
  pAp =  -0.0007958610502074735  rzold =  0.00021165894662552348  alpha =  -0.26594962345543355
 delta_qm =   0.410461E-03 delta_en =   0.291130E+00 tol =   0.100000E-03
 Iteration #        148
  pAp =  -0.00019677136963382479  rzold =  0.0002312621892658662  alpha =  -1.1752837300275236
 delta_qm =   0.152550E-02 delta_en =   0.402130E+01 tol =   0.100000E-03
 Iteration #        149
  pAp =  0.05277211714868127  rzold =  0.005235598814179816  alpha =  0.09921146046555096
 delta_qm =   0.784430E-03 delta_en =   0.106329E+01 tol =   0.100000E-03
 Iteration #        150
  pAp =  -0.007718554981249352  rzold =  0.0009528598955914569  alpha =  -0.123450554916851
 delta_qm =   0.385025E-03 delta_en =   0.256166E+00 tol =   0.100000E-03
 Iteration #        151
  pAp =  -0.003897062736819897  rzold =  0.00036614485254073576  alpha =  -0.09395405649525657
 delta_qm =   0.306640E-03 delta_en =   0.162480E+00 tol =   0.100000E-03
 Iteration #        152
  pAp =  -0.00019171198473451147  rzold =  0.00012068460869216176  alpha =  -0.6295099853005509
 delta_qm =   0.370857E-03 delta_en =   0.237660E+00 tol =   0.100000E-03
 Iteration #        153
  pAp =  -0.0008797672181348456  rzold =  0.00027123385175899424  alpha =  -0.3083018395866406
 delta_qm =   0.578500E-03 delta_en =   0.578297E+00 tol =   0.100000E-03
 Iteration #        154
  pAp =  0.0006636831256788905  rzold =  0.0005242305713441306  alpha =  0.7898808197178255
 delta_qm =   0.103746E-02 delta_en =   0.185989E+01 tol =   0.100000E-03
 Iteration #        155
  pAp =  -0.009848282696844101  rzold =  0.0014587784630437563  alpha =  -0.14812516130464293
 delta_qm =   0.390334E-03 delta_en =   0.263279E+00 tol =   0.100000E-03
 Iteration #        156
  pAp =  -0.002907339849537065  rzold =  0.0003695835753561795  alpha =  -0.12712087147810677
 delta_qm =   0.308101E-03 delta_en =   0.164032E+00 tol =   0.100000E-03
 Iteration #        157
  pAp =  -0.0002160743772243008  rzold =  0.0001114948162601252  alpha =  -0.5160020252858836
 delta_qm =   0.410453E-03 delta_en =   0.291119E+00 tol =   0.100000E-03
 Iteration #        158
  pAp =  -0.0018191852780967738  rzold =  0.00041901882586037613  alpha =  -0.23033323263189134
 delta_qm =   0.679324E-03 delta_en =   0.797439E+00 tol =   0.100000E-03
 Iteration #        159
  pAp =  0.0018716589050068743  rzold =  0.0015304323779950092  alpha =  0.8176876533971814
 delta_qm =   0.370332E-02 delta_en =   0.236989E+02 tol =   0.100000E-03
 Iteration #        160
  pAp =  -0.11324319788487892  rzold =  0.011037969655768191  alpha =  -0.09747137013023247
 delta_qm =   0.337437E-03 delta_en =   0.196756E+00 tol =   0.100000E-03
 Iteration #        161
  pAp =  -0.00012143906109001731  rzold =  0.00009344480808841268  alpha =  -0.7694790065870671
 delta_qm =   0.395675E-03 delta_en =   0.270533E+00 tol =   0.100000E-03
 Iteration #        162
  pAp =  -0.0006384982464220721  rzold =  0.0002802316005138814  alpha =  -0.4388917308453145
 delta_qm =   0.704256E-03 delta_en =   0.857049E+00 tol =   0.100000E-03
 Iteration #        163
  pAp =  0.001421562079426604  rzold =  0.0008703714688520097  alpha =  0.6122641293323465
 delta_qm =   0.113125E-02 delta_en =   0.221139E+01 tol =   0.100000E-03
 Iteration #        164
  pAp =  -0.012462682671880582  rzold =  0.0017829354672038796  alpha =  -0.14306193250243768
 delta_qm =   0.429935E-03 delta_en =   0.319410E+00 tol =   0.100000E-03
 Iteration #        165
  pAp =  -0.0064900300772786175  rzold =  0.0005038845457847936  alpha =  -0.07763978591545775
 delta_qm =   0.364249E-03 delta_en =   0.229266E+00 tol =   0.100000E-03
 Iteration #        166
  pAp =  -0.0006931576096841134  rzold =  0.00020870462373849153  alpha =  -0.3010925954251626
 delta_qm =   0.378763E-03 delta_en =   0.247901E+00 tol =   0.100000E-03
 Iteration #        167
  pAp =  -0.00016382726796386167  rzold =  0.00015157009330075125  alpha =  -0.9251823288305449
 delta_qm =   0.828178E-03 delta_en =   0.118520E+01 tol =   0.100000E-03
 Iteration #        168
  pAp =  0.0020465374333945552  rzold =  0.0009206609154476129  alpha =  0.4498627293225363
 delta_qm =   0.942257E-03 delta_en =   0.153420E+01 tol =   0.100000E-03
 Iteration #        169
  pAp =  -0.002774083448554932  rzold =  0.00079191254087948  alpha =  -0.28546817554893705
 delta_qm =   0.300392E-03 delta_en =   0.155927E+00 tol =   0.100000E-03
 Iteration #        170
  pAp =  -0.002430375007234226  rzold =  0.0001990912115898488  alpha =  -0.08191789785413206
 delta_qm =   0.280768E-03 delta_en =   0.136219E+00 tol =   0.100000E-03
 Iteration #        171
  pAp =  -0.00006107847552397836  rzold =  0.00009470080024298543  alpha =  -1.5504774706730773
 delta_qm =   0.663901E-03 delta_en =   0.761641E+00 tol =   0.100000E-03
 Iteration #        172
  pAp =  0.0008287838458289042  rzold =  0.0005048354131873101  alpha =  0.609127959875233
 delta_qm =   0.626377E-03 delta_en =   0.677977E+00 tol =   0.100000E-03
 Iteration #        173
  pAp =  -0.002176067112367897  rzold =  0.0005056097595984771  alpha =  -0.23235026012056015
 delta_qm =   0.307857E-03 delta_en =   0.163773E+00 tol =   0.100000E-03
 Iteration #        174
  pAp =  -0.00048599722332918333  rzold =  0.00014179144343975245  alpha =  -0.29175360811416
 delta_qm =   0.300907E-03 delta_en =   0.156461E+00 tol =   0.100000E-03
 Iteration #        175
  pAp =  -0.000991127218596992  rzold =  0.00015504277079001193  alpha =  -0.15643074660938636
 delta_qm =   0.350179E-03 delta_en =   0.211896E+00 tol =   0.100000E-03
 Iteration #        176
  pAp =  -0.000314109277872133  rzold =  0.00019062594452719882  alpha =  -0.6068777904892019
 delta_qm =   0.834537E-03 delta_en =   0.120347E+01 tol =   0.100000E-03
 Iteration #        177
  pAp =  0.0026309271483667108  rzold =  0.0009399625700202384  alpha =  0.35727426759185277
 delta_qm =   0.919956E-03 delta_en =   0.146244E+01 tol =   0.100000E-03
 Iteration #        178
  pAp =  -0.025878667692230736  rzold =  0.0015124007852099718  alpha =  -0.058441987941443486
 delta_qm =   0.523471E-03 delta_en =   0.473510E+00 tol =   0.100000E-03
 Iteration #        179
  pAp =  -0.002829713379681482  rzold =  0.00048172172293515684  alpha =  -0.1702369315543118
 delta_qm =   0.261016E-03 delta_en =   0.117728E+00 tol =   0.100000E-03
 Iteration #        180
  pAp =  -0.00020982658055222398  rzold =  0.00006723924875449901  alpha =  -0.32045152991359815
 delta_qm =   0.294457E-03 delta_en =   0.149826E+00 tol =   0.100000E-03
 Iteration #        181
  pAp =  -0.00019424855847578962  rzold =  0.00016716372486063808  alpha =  -0.8605661023810002
 delta_qm =   0.825455E-03 delta_en =   0.117742E+01 tol =   0.100000E-03
 Iteration #        182
  pAp =  0.003024837510154531  rzold =  0.0010013493644265793  alpha =  0.33104236543781257
 delta_qm =   0.758815E-03 delta_en =   0.994982E+00 tol =   0.100000E-03
 Iteration #        183
  pAp =  -0.0031613499869288745  rzold =  0.000696201517838497  alpha =  -0.22022285438722622
 delta_qm =   0.239974E-03 delta_en =   0.995114E-01 tol =   0.100000E-03
 Iteration #        184
  pAp =  -0.0001223126662029208  rzold =  0.000059628020404888485  alpha =  -0.48750486974066615
 delta_qm =   0.285273E-03 delta_en =   0.140625E+00 tol =   0.100000E-03
 Iteration #        185
  pAp =  -0.0003584111908970973  rzold =  0.00013395138492076588  alpha =  -0.37373661404234554
 delta_qm =   0.488245E-03 delta_en =   0.411926E+00 tol =   0.100000E-03
 Iteration #        186
  pAp =  0.00003724706570823108  rzold =  0.00038296575412857494  alpha =  10.281769767542919
 delta_qm =   0.215232E-01 delta_en =   0.800490E+03 tol =   0.100000E-03
 Iteration #        187
  pAp =  -235.17515942408872  rzold =  0.9338835717776344  alpha =  -0.003971012814723228
 delta_qm =   0.889501E-03 delta_en =   0.136722E+01 tol =   0.100000E-03
 Iteration #        188
  pAp =  -0.006794385454818858  rzold =  0.0009266893882697196  alpha =  -0.1363904645139721
 delta_qm =   0.320342E-03 delta_en =   0.177326E+00 tol =   0.100000E-03
 Iteration #        189
  pAp =  -0.0005658393869329253  rzold =  0.00011340614663714751  alpha =  -0.20042108989947477
 delta_qm =   0.289294E-03 delta_en =   0.144618E+00 tol =   0.100000E-03
 Iteration #        190
  pAp =  -0.00034282239907588725  rzold =  0.00011148055476174062  alpha =  -0.32518457096808095
 delta_qm =   0.347064E-03 delta_en =   0.208144E+00 tol =   0.100000E-03
 Iteration #        191
  pAp =  -0.00015390899513024976  rzold =  0.00012081934101989996  alpha =  -0.785005066907579
 delta_qm =   0.797521E-03 delta_en =   0.109908E+01 tol =   0.100000E-03
 Iteration #        192
  pAp =  0.0026546320700267176  rzold =  0.0008759861292613446  alpha =  0.32998400763407043
 delta_qm =   0.888344E-03 delta_en =   0.136366E+01 tol =   0.100000E-03
 Iteration #        193
  pAp =  -0.05253453890964283  rzold =  0.0023403554249242344  alpha =  -0.04454889056796608
 delta_qm =   0.326668E-03 delta_en =   0.184399E+00 tol =   0.100000E-03
 Iteration #        194
  pAp =  -0.000584689096541506  rzold =  0.00015922696394055652  alpha =  -0.27232757525734586
 delta_qm =   0.214383E-03 delta_en =   0.794191E-01 tol =   0.100000E-03
 Iteration #        195
  pAp =  -0.00019052061490904308  rzold =  0.00007449419259769815  alpha =  -0.3910033181095002
 delta_qm =   0.242429E-03 delta_en =   0.101558E+00 tol =   0.100000E-03
 Iteration #        196
  pAp =  -0.0001210176685629221  rzold =  0.00008025111626020985  alpha =  -0.6631355339529117
 delta_qm =   0.504821E-03 delta_en =   0.440370E+00 tol =   0.100000E-03
 Iteration #        197
  pAp =  0.0007603495099137663  rzold =  0.0003504463249265203  alpha =  0.4609016253147392
 delta_qm =   0.578051E-03 delta_en =   0.577398E+00 tol =   0.100000E-03
 Iteration #        198
  pAp =  -0.0025105216297191804  rzold =  0.00035635083252001063  alpha =  -0.14194294456641307
 delta_qm =   0.333658E-03 delta_en =   0.192375E+00 tol =   0.100000E-03
 Iteration #        199
  pAp =  -0.0005737603391936781  rzold =  0.00015586688164638044  alpha =  -0.27165851488693804
 delta_qm =   0.234621E-03 delta_en =   0.951209E-01 tol =   0.100000E-03
 Iteration #        200
  pAp =  -0.001299517872511554  rzold =  0.00009606982377684801  alpha =  -0.07392728165498459
 delta_qm =   0.239571E-03 delta_en =   0.991772E-01 tol =   0.100000E-03

%%%% ELECTRONS %%%%%%%%%%%%%%%%%%%%%%%%%%%%%%%%%%%%%%%%%%%%%%%%%%%%%%%%%%%%%%%%%
 number of electrons        =         24
 total electronic charge    =     24.0000000
 number of spin components  =  1

%%%% COMPUTE ELECTROSTATIC POTENTIAL %%%%%%%%%%%%%%%%%%%%%%%%%%%%%%%%%%%%%%%%%%%
 Warning: bad guess with residual norm =   0.176512E+06, reset to no guess
 Iteration #          1
  pAp =  89.600008717266  rzold =  91.15282058286483  alpha =  1.0173304878853167
 delta_qm =   0.260406E-01 delta_en =   0.117178E+04 tol =   0.100000E-03
 Iteration #          2
  pAp =  -621.1440266774382  rzold =  31.393605698392044  alpha =  -0.05054158834355953
 delta_qm =   0.564619E-02 delta_en =   0.550878E+02 tol =   0.100000E-03
 Iteration #          3
  pAp =  -9.765664927790558  rzold =  0.7550328434000543  alpha =  -0.07731504705341936
 delta_qm =   0.281310E-02 delta_en =   0.136746E+02 tol =   0.100000E-03
 Iteration #          4
  pAp =  -1.4489644116762828  rzold =  0.12701634062597963  alpha =  -0.08766008302373456
 delta_qm =   0.273719E-02 delta_en =   0.129466E+02 tol =   0.100000E-03
 Iteration #          5
  pAp =  -0.19484990129664884  rzold =  0.03602415490830438  alpha =  -0.18488156611103168
 delta_qm =   0.278191E-02 delta_en =   0.133730E+02 tol =   0.100000E-03
 Iteration #          6
  pAp =  -0.059284733145780893  rzold =  0.03375970267656096  alpha =  -0.5694501920679309
 delta_qm =   0.503419E-02 delta_en =   0.437929E+02 tol =   0.100000E-03
 Iteration #          7
  pAp =  -0.35507638162795674  rzold =  0.20087502573741783  alpha =  -0.565723422144961
 delta_qm =   0.190844E-01 delta_en =   0.629363E+03 tol =   0.100000E-03
 Iteration #          8
  pAp =  72.10467004657255  rzold =  3.6936366052594747  alpha =  0.051226038519748406
 delta_qm =   0.495547E-02 delta_en =   0.424340E+02 tol =   0.100000E-03
 Iteration #          9
  pAp =  -0.8240346728997844  rzold =  0.11338043652759795  alpha =  -0.13759182745139997
 delta_qm =   0.389585E-02 delta_en =   0.262270E+02 tol =   0.100000E-03
 Iteration #         10
  pAp =  -0.11113622801855778  rzold =  0.03816011749255807  alpha =  -0.3433634393834745
 delta_qm =   0.484492E-02 delta_en =   0.405617E+02 tol =   0.100000E-03
 Iteration #         11
  pAp =  -0.020275918332678625  rzold =  0.05780267801771524  alpha =  -2.8508044404851876
 delta_qm =   0.374799E-01 delta_en =   0.242739E+04 tol =   0.100000E-03
 Iteration #         12
  pAp =  197.37706785727792  rzold =  6.381433808085523  alpha =  0.032331181516486486
 delta_qm =   0.505399E-02 delta_en =   0.441379E+02 tol =   0.100000E-03
 Iteration #         13
  pAp =  -0.6852844634962129  rzold =  0.10431418381230852  alpha =  -0.15222026671977074
 delta_qm =   0.277390E-02 delta_en =   0.132962E+02 tol =   0.100000E-03
 Iteration #         14
  pAp =  -0.06861794304173027  rzold =  0.02033463795206979  alpha =  -0.2963457814482023
 delta_qm =   0.288358E-02 delta_en =   0.143684E+02 tol =   0.100000E-03
 Iteration #         15
  pAp =  -0.03397162957311747  rzold =  0.013579969009017997  alpha =  -0.39974440966364877
 delta_qm =   0.434638E-02 delta_en =   0.326437E+02 tol =   0.100000E-03
 Iteration #         16
  pAp =  -0.019044470064069206  rzold =  0.06948650012118018  alpha =  -3.6486444562339844
 delta_qm =   0.908387E-01 delta_en =   0.142589E+05 tol =   0.100000E-03
 Iteration #         17
  pAp =  2406.8647007341906  rzold =  25.405181798272338  alpha =  0.010555301172734278
 delta_qm =   0.176068E-02 delta_en =   0.535680E+01 tol =   0.100000E-03
 Iteration #         18
  pAp =  -0.04985803979754692  rzold =  0.013559334364265735  alpha =  -0.2719588339077236
 delta_qm =   0.978197E-03 delta_en =   0.165347E+01 tol =   0.100000E-03
 Iteration #         19
  pAp =  -0.008972829402376176  rzold =  0.003602271297154485  alpha =  -0.40146436933265833
 delta_qm =   0.108226E-02 delta_en =   0.202399E+01 tol =   0.100000E-03
 Iteration #         20
  pAp =  -0.003685205642915987  rzold =  0.0030406805188938776  alpha =  -0.8251047060939273
 delta_qm =   0.233227E-02 delta_en =   0.939944E+01 tol =   0.100000E-03
 Iteration #         21
  pAp =  -0.00028137323693796156  rzold =  0.010252905486256484  alpha =  -36.43880845894768
 delta_qm =   0.283912E+00 delta_en =   0.139287E+06 tol =   0.100000E-03
 Iteration #         22
  pAp =  123033.74533645243  rzold =  215.75407327041927  alpha =  0.0017536170477490591
 delta_qm =   0.181584E-02 delta_en =   0.569769E+01 tol =   0.100000E-03
 Iteration #         23
  pAp =  -0.042267397696773804  rzold =  0.00833418383844817  alpha =  -0.19717759532388493
 delta_qm =   0.100751E-02 delta_en =   0.175404E+01 tol =   0.100000E-03
 Iteration #         24
  pAp =  -0.007138123771709282  rzold =  0.0025597742126569046  alpha =  -0.3586060279316151
 delta_qm =   0.101787E-02 delta_en =   0.179033E+01 tol =   0.100000E-03
 Iteration #         25
  pAp =  -0.006842101463988393  rzold =  0.002644107690111689  alpha =  -0.3864467231344429
 delta_qm =   0.156451E-02 delta_en =   0.422961E+01 tol =   0.100000E-03
 Iteration #         26
  pAp =  -0.005105519709844  rzold =  0.004924071333014936  alpha =  -0.9644603513175728
 delta_qm =   0.573692E-02 delta_en =   0.568723E+02 tol =   0.100000E-03
 Iteration #         27
  pAp =  4.29744443052417  rzold =  0.18949013420526414  alpha =  0.04409367875925078
 delta_qm =   0.211077E-02 delta_en =   0.769886E+01 tol =   0.100000E-03
 Iteration #         28
  pAp =  -0.10323083743507763  rzold =  0.012043187760255775  alpha =  -0.11666269556158346
 delta_qm =   0.108394E-02 delta_en =   0.203026E+01 tol =   0.100000E-03
 Iteration #         29
  pAp =  -0.010646617812882857  rzold =  0.002853257232221335  alpha =  -0.2679965865562276
 delta_qm =   0.887371E-03 delta_en =   0.136067E+01 tol =   0.100000E-03
 Iteration #         30
  pAp =  -0.007053079326888346  rzold =  0.0015812333614231035  alpha =  -0.22419049724777543
 delta_qm =   0.104079E-02 delta_en =   0.187185E+01 tol =   0.100000E-03
 Iteration #         31
  pAp =  -0.012633251991679266  rzold =  0.004794314087064941  alpha =  -0.3794996007538404
 delta_qm =   0.227304E-02 delta_en =   0.892804E+01 tol =   0.100000E-03
 Iteration #         32
  pAp =  0.03069312100748601  rzold =  0.010908964061742599  alpha =  0.35542048848932367
 delta_qm =   0.129682E-02 delta_en =   0.290604E+01 tol =   0.100000E-03
 Iteration #         33
  pAp =  -0.07330052870253949  rzold =  0.006541601826528973  alpha =  -0.08924358312714789
 delta_qm =   0.888566E-03 delta_en =   0.136434E+01 tol =   0.100000E-03
 Iteration #         34
  pAp =  -0.018412579555400842  rzold =  0.003471094835095769  alpha =  -0.1885175743383341
 delta_qm =   0.615454E-03 delta_en =   0.654539E+00 tol =   0.100000E-03
 Iteration #         35
  pAp =  -0.0017788615682647318  rzold =  0.0010276566914833398  alpha =  -0.5777047016007054
 delta_qm =   0.787794E-03 delta_en =   0.107243E+01 tol =   0.100000E-03
 Iteration #         36
  pAp =  -0.0005976306098019232  rzold =  0.0009283561363238789  alpha =  -1.5533945569347098
 delta_qm =   0.277111E-02 delta_en =   0.132694E+02 tol =   0.100000E-03
 Iteration #         37
  pAp =  0.047979636420451756  rzold =  0.010649591964257365  alpha =  0.22196066412287108
 delta_qm =   0.121836E-02 delta_en =   0.256506E+01 tol =   0.100000E-03
 Iteration #         38
  pAp =  -0.00853854492438542  rzold =  0.002309462937066513  alpha =  -0.27047499984111656
 delta_qm =   0.586441E-03 delta_en =   0.594282E+00 tol =   0.100000E-03
 Iteration #         39
  pAp =  -0.00268537660127602  rzold =  0.0008794060725410888  alpha =  -0.32747960644448093
 delta_qm =   0.579382E-03 delta_en =   0.580061E+00 tol =   0.100000E-03
 Iteration #         40
  pAp =  -0.006170755666110275  rzold =  0.001088874114509777  alpha =  -0.17645717533265207
 delta_qm =   0.713171E-03 delta_en =   0.878883E+00 tol =   0.100000E-03
 Iteration #         41
  pAp =  -0.003310273524879019  rzold =  0.0016122442804074382  alpha =  -0.4870426169590808
 delta_qm =   0.169677E-02 delta_en =   0.497498E+01 tol =   0.100000E-03
 Iteration #         42
  pAp =  0.017348556453189543  rzold =  0.005867770815417114  alpha =  0.3382281881060093
 delta_qm =   0.145383E-02 delta_en =   0.365236E+01 tol =   0.100000E-03
 Iteration #         43
  pAp =  -0.013984546606748395  rzold =  0.003269528770409473  alpha =  -0.23379583638641002
 delta_qm =   0.665879E-03 delta_en =   0.766186E+00 tol =   0.100000E-03
 Iteration #         44
  pAp =  -0.001315592807358121  rzold =  0.0006297061620971818  alpha =  -0.4786482250246658
 delta_qm =   0.695378E-03 delta_en =   0.835576E+00 tol =   0.100000E-03
 Iteration #         45
  pAp =  -0.004759728207833838  rzold =  0.0012352517486874566  alpha =  -0.25952148836028227
 delta_qm =   0.950518E-03 delta_en =   0.156122E+01 tol =   0.100000E-03
 Iteration #         46
  pAp =  -0.0019845221738146687  rzold =  0.0017290357144961758  alpha =  -0.8712604662776863
 delta_qm =   0.303512E-02 delta_en =   0.159182E+02 tol =   0.100000E-03
 Iteration #         47
  pAp =  0.11586239712720856  rzold =  0.01893699606403145  alpha =  0.16344384833709244
 delta_qm =   0.178094E-02 delta_en =   0.548079E+01 tol =   0.100000E-03
 Iteration #         48
  pAp =  -0.2831527135934983  rzold =  0.013717700632319267  alpha =  -0.048446297611728945
 delta_qm =   0.884526E-03 delta_en =   0.135196E+01 tol =   0.100000E-03
 Iteration #         49
  pAp =  -0.008725198409142975  rzold =  0.0019623860240060966  alpha =  -0.2249101890851844
 delta_qm =   0.474045E-03 delta_en =   0.388314E+00 tol =   0.100000E-03
 Iteration #         50
  pAp =  -0.0008837203039644411  rzold =  0.00042361808621263475  alpha =  -0.47935764778997336
 delta_qm =   0.558430E-03 delta_en =   0.538867E+00 tol =   0.100000E-03
 Iteration #         51
  pAp =  -0.004585211333146584  rzold =  0.0011064334155027182  alpha =  -0.24130478076425596
 delta_qm =   0.853049E-03 delta_en =   0.125745E+01 tol =   0.100000E-03
 Iteration #         52
  pAp =  0.0002480491174181139  rzold =  0.0010916425681365997  alpha =  4.400912930065044
 delta_qm =   0.907251E-02 delta_en =   0.142232E+03 tol =   0.100000E-03
 Iteration #         53
  pAp =  -4.095836255444757  rzold =  0.11994290771863779  alpha =  -0.029284107136654434
 delta_qm =   0.216839E-02 delta_en =   0.812492E+01 tol =   0.100000E-03
 Iteration #         54
  pAp =  -0.09993007795170972  rzold =  0.010000183595616713  alpha =  -0.10007180821423164
 delta_qm =   0.472705E-03 delta_en =   0.386122E+00 tol =   0.100000E-03
 Iteration #         55
  pAp =  -0.0005711144449825169  rzold =  0.0003594941126649941  alpha =  -0.6294607251196369
 delta_qm =   0.467386E-03 delta_en =   0.377480E+00 tol =   0.100000E-03
 Iteration #         56
  pAp =  -0.0002933795043312735  rzold =  0.0004365512439681742  alpha =  -1.4880086629202167
 delta_qm =   0.142136E-02 delta_en =   0.349104E+01 tol =   0.100000E-03
 Iteration #         57
  pAp =  -0.00937793687556292  rzold =  0.007198216110678059  alpha =  -0.7675692645612928
 delta_qm =   0.105151E-01 delta_en =   0.191062E+03 tol =   0.100000E-03
 Iteration #         58
  pAp =  10.763112414901297  rzold =  0.26757469242725224  alpha =  0.02486034541986209
 delta_qm =   0.790058E-03 delta_en =   0.107860E+01 tol =   0.100000E-03
 Iteration #         59
  pAp =  -0.005272356575793571  rzold =  0.001112360571118471  alpha =  -0.2109797687481036
 delta_qm =   0.579296E-03 delta_en =   0.579890E+00 tol =   0.100000E-03
 Iteration #         60
  pAp =  -0.0022215875389760375  rzold =  0.0006284861678488762  alpha =  -0.2828995737609128
 delta_qm =   0.607312E-03 delta_en =   0.637334E+00 tol =   0.100000E-03
 Iteration #         61
  pAp =  -0.0018604764227690468  rzold =  0.0007146807168329198  alpha =  -0.38413855079615694
 delta_qm =   0.917247E-03 delta_en =   0.145384E+01 tol =   0.100000E-03
 Iteration #         62
  pAp =  0.00012077587127551684  rzold =  0.0008794496401170131  alpha =  7.281666700716994
 delta_qm =   0.137984E-01 delta_en =   0.329004E+03 tol =   0.100000E-03
 Iteration #         63
  pAp =  -15.998651094979655  rzold =  0.3003070521210141  alpha =  -0.01877077325695601
 delta_qm =   0.114740E-02 delta_en =   0.227495E+01 tol =   0.100000E-03
 Iteration #         64
  pAp =  -0.010608038753730797  rzold =  0.002145557154935865  alpha =  -0.20225766560112565
 delta_qm =   0.460458E-03 delta_en =   0.366373E+00 tol =   0.100000E-03
 Iteration #         65
  pAp =  -0.0006054960193514393  rzold =  0.0003259033296315125  alpha =  -0.538241902862706
 delta_qm =   0.501614E-03 delta_en =   0.434794E+00 tol =   0.100000E-03
 Iteration #         66
  pAp =  -0.0022702460041275413  rzold =  0.0006701554386972336  alpha =  -0.2951906698564041
 delta_qm =   0.756024E-03 delta_en =   0.987677E+00 tol =   0.100000E-03
 Iteration #         67
  pAp =  -0.0018869854764478656  rzold =  0.002402689170905313  alpha =  -1.2732949992960347
 delta_qm =   0.614772E-02 delta_en =   0.653089E+02 tol =   0.100000E-03
 Iteration #         68
  pAp =  0.9854033713645268  rzold =  0.05983669108500026  alpha =  0.060723042790225126
 delta_qm =   0.739112E-03 delta_en =   0.943983E+00 tol =   0.100000E-03
 Iteration #         69
  pAp =  -0.032618326762751816  rzold =  0.0019243194007797434  alpha =  -0.05899503720028954
 delta_qm =   0.595912E-03 delta_en =   0.613631E+00 tol =   0.100000E-03
 Iteration #         70
  pAp =  -0.0009705423234075831  rzold =  0.000548761028699474  alpha =  -0.5654168967848502
 delta_qm =   0.564808E-03 delta_en =   0.551246E+00 tol =   0.100000E-03
 Iteration #         71
  pAp =  -0.0001852451715775667  rzold =  0.0004038222376413303  alpha =  -2.1799339448490835
 delta_qm =   0.196476E-02 delta_en =   0.667060E+01 tol =   0.100000E-03
 Iteration #         72
  pAp =  0.020044067999609907  rzold =  0.007087671814251432  alpha =  0.3536044586552675
 delta_qm =   0.284748E-02 delta_en =   0.140109E+02 tol =   0.100000E-03
 Iteration #         73
  pAp =  -0.169205504778666  rzold =  0.014506362422043154  alpha =  -0.08573221326941229
 delta_qm =   0.745783E-03 delta_en =   0.961100E+00 tol =   0.100000E-03
 Iteration #         74
  pAp =  -0.002591384022371651  rzold =  0.0008585643689948368  alpha =  -0.3313149890493935
 delta_qm =   0.551668E-03 delta_en =   0.525895E+00 tol =   0.100000E-03
 Iteration #         75
  pAp =  -0.0025159855481244747  rzold =  0.0004818742316658256  alpha =  -0.19152503957148548
 delta_qm =   0.618962E-03 delta_en =   0.662020E+00 tol =   0.100000E-03
 Iteration #         76
  pAp =  -0.0036573356472959537  rzold =  0.0011728621107791582  alpha =  -0.3206875780313771
 delta_qm =   0.110784E-02 delta_en =   0.212079E+01 tol =   0.100000E-03
 Iteration #         77
  pAp =  0.0026733368782467137  rzold =  0.0016743820305011607  alpha =  0.6263266123045781
 delta_qm =   0.112705E-02 delta_en =   0.219498E+01 tol =   0.100000E-03
 Iteration #         78
  pAp =  -0.004230491330662975  rzold =  0.001375097150414387  alpha =  -0.325044313516863
 delta_qm =   0.641258E-03 delta_en =   0.710575E+00 tol =   0.100000E-03
 Iteration #         79
  pAp =  -0.0029392237480936933  rzold =  0.0007305300186061656  alpha =  -0.2485452218736219
 delta_qm =   0.633290E-03 delta_en =   0.693025E+00 tol =   0.100000E-03
 Iteration #         80
  pAp =  -0.0005823119315434001  rzold =  0.0005526453592052465  alpha =  -0.9490538133753791
 delta_qm =   0.135032E-02 delta_en =   0.315079E+01 tol =   0.100000E-03
 Iteration #         81
  pAp =  -0.012689783624990798  rzold =  0.006412660452743287  alpha =  -0.5053404094388518
 delta_qm =   0.694825E-02 delta_en =   0.834247E+02 tol =   0.100000E-03
 Iteration #         82
  pAp =  1.001302754179673  rzold =  0.06772002795001873  alpha =  0.06763192018332059
 delta_qm =   0.146237E-02 delta_en =   0.369539E+01 tol =   0.100000E-03
 Iteration #         83
  pAp =  -0.05642292355873808  rzold =  0.005190713188717109  alpha =  -0.09199653015699212
 delta_qm =   0.753884E-03 delta_en =   0.982094E+00 tol =   0.100000E-03
 Iteration #         84
  pAp =  -0.0025511825138646175  rzold =  0.0008700196796805825  alpha =  -0.34102604378651347
 delta_qm =   0.626093E-03 delta_en =   0.677362E+00 tol =   0.100000E-03
 Iteration #         85
  pAp =  -0.0011268987871321044  rzold =  0.0006269963565131568  alpha =  -0.5563910119282568
 delta_qm =   0.941330E-03 delta_en =   0.153118E+01 tol =   0.100000E-03
 Iteration #         86
  pAp =  -0.0011553103401208847  rzold =  0.0013350229346297156  alpha =  -1.1555535238177015
 delta_qm =   0.342855E-02 delta_en =   0.203125E+02 tol =   0.100000E-03
 Iteration #         87
  pAp =  0.1278999038882786  rzold =  0.01730366135905486  alpha =  0.1352906517753893
 delta_qm =   0.984252E-03 delta_en =   0.167400E+01 tol =   0.100000E-03
 Iteration #         88
  pAp =  -0.0145085187241776  rzold =  0.0015370418620518432  alpha =  -0.10594064709655387
 delta_qm =   0.784570E-03 delta_en =   0.106367E+01 tol =   0.100000E-03
 Iteration #         89
  pAp =  -0.007075377160003861  rzold =  0.0011485164991857752  alpha =  -0.16232583411640328
 delta_qm =   0.716581E-03 delta_en =   0.887307E+00 tol =   0.100000E-03
 Iteration #         90
  pAp =  -0.006512920357291043  rzold =  0.0010938922802417345  alpha =  -0.16795726344437037
 delta_qm =   0.827850E-03 delta_en =   0.118426E+01 tol =   0.100000E-03
 Iteration #         91
  pAp =  0.0002663600093679987  rzold =  0.0007239718299814645  alpha =  2.718019989934888
 delta_qm =   0.293127E-02 delta_en =   0.148476E+02 tol =   0.100000E-03
 Iteration #         92
  pAp =  -0.07870854612553652  rzold =  0.01075613702754543  alpha =  -0.1366578034663464
 delta_qm =   0.655706E-03 delta_en =   0.742955E+00 tol =   0.100000E-03
 Iteration #         93
  pAp =  -0.021527526684362454  rzold =  0.0017912842152116022  alpha =  -0.08320901148912695
 delta_qm =   0.505993E-03 delta_en =   0.442417E+00 tol =   0.100000E-03
 Iteration #         94
  pAp =  -0.0016979180510760857  rzold =  0.0005192798916735601  alpha =  -0.3058333064687411
 delta_qm =   0.548726E-03 delta_en =   0.520302E+00 tol =   0.100000E-03
 Iteration #         95
  pAp =  -0.000743915875444021  rzold =  0.000578925098397333  alpha =  -0.7782131253104257
 delta_qm =   0.121870E-02 delta_en =   0.256647E+01 tol =   0.100000E-03
 Iteration #         96
  pAp =  0.002918258510284079  rzold =  0.0017317212692320217  alpha =  0.5934091387481114
 delta_qm =   0.120527E-02 delta_en =   0.251022E+01 tol =   0.100000E-03
 Iteration #         97
  pAp =  -0.0036858092865357226  rzold =  0.001130581261408086  alpha =  -0.3067389475462293
 delta_qm =   0.805043E-03 delta_en =   0.111991E+01 tol =   0.100000E-03
 Iteration #         98
  pAp =  -0.00852584149569484  rzold =  0.001152503480407961  alpha =  -0.13517768081777295
 delta_qm =   0.754898E-03 delta_en =   0.984736E+00 tol =   0.100000E-03
 Iteration #         99
  pAp =  -0.005435204492519671  rzold =  0.0008948466079918315  alpha =  -0.16463899550116015
 delta_qm =   0.840806E-03 delta_en =   0.122162E+01 tol =   0.100000E-03
 Iteration #        100
  pAp =  -0.0024864775475000474  rzold =  0.0012850738651589539  alpha =  -0.5168250429009471
 delta_qm =   0.175043E-02 delta_en =   0.529458E+01 tol =   0.100000E-03
 Iteration #        101
  pAp =  0.0060385234339902635  rzold =  0.003199293057493442  alpha =  0.529813801745793
 delta_qm =   0.167240E-02 delta_en =   0.483307E+01 tol =   0.100000E-03
 Iteration #        102
  pAp =  -0.011251848486980411  rzold =  0.00316231918051772  alpha =  -0.2810488591431764
 delta_qm =   0.486810E-03 delta_en =   0.409509E+00 tol =   0.100000E-03
 Iteration #        103
  pAp =  -0.0004618643096244612  rzold =  0.000308806705470968  alpha =  -0.6686091543251235
 delta_qm =   0.659693E-03 delta_en =   0.752017E+00 tol =   0.100000E-03
 Iteration #        104
  pAp =  -0.003145843438196446  rzold =  0.0012110457970843475  alpha =  -0.38496696382915235
 delta_qm =   0.140800E-02 delta_en =   0.342572E+01 tol =   0.100000E-03
 Iteration #        105
  pAp =  0.0034742861870753717  rzold =  0.002106702439032532  alpha =  0.6063698629288621
 delta_qm =   0.166877E-02 delta_en =   0.481215E+01 tol =   0.100000E-03
 Iteration #        106
  pAp =  -0.09633782663564248  rzold =  0.005410827260171116  alpha =  -0.05616513729996532
 delta_qm =   0.106978E-02 delta_en =   0.197758E+01 tol =   0.100000E-03
 Iteration #        107
  pAp =  -0.0026668542260778506  rzold =  0.001073857954391245  alpha =  -0.40266841130291947
 delta_qm =   0.672280E-03 delta_en =   0.780987E+00 tol =   0.100000E-03
 Iteration #        108
  pAp =  -0.0027402834860068316  rzold =  0.0006835900707832538  alpha =  -0.2494596176906456
 delta_qm =   0.718306E-03 delta_en =   0.891586E+00 tol =   0.100000E-03
 Iteration #        109
  pAp =  -0.005126914958825845  rzold =  0.0008507218201896728  alpha =  -0.16593250073812485
 delta_qm =   0.897370E-03 delta_en =   0.139151E+01 tol =   0.100000E-03
 Iteration #        110
  pAp =  -0.00010215899088959876  rzold =  0.0019173089109449642  alpha =  -18.767892030344765
 delta_qm =   0.662268E-01 delta_en =   0.757899E+04 tol =   0.100000E-03
 Iteration #        111
  pAp =  706.7124272992228  rzold =  5.084872636359408  alpha =  0.007195108561755158
 delta_qm =   0.771653E-03 delta_en =   0.102894E+01 tol =   0.100000E-03
 Iteration #        112
  pAp =  -0.002392846052027593  rzold =  0.0008161636205639978  alpha =  -0.34108488503571577
 delta_qm =   0.590624E-03 delta_en =   0.602789E+00 tol =   0.100000E-03
 Iteration #        113
  pAp =  -0.0010668772403228228  rzold =  0.00047210241991070296  alpha =  -0.44250866179116455
 delta_qm =   0.775786E-03 delta_en =   0.103999E+01 tol =   0.100000E-03
 Iteration #        114
  pAp =  0.0002135578387823081  rzold =  0.0008782984665748501  alpha =  4.112695987105163
 delta_qm =   0.653230E-02 delta_en =   0.737353E+02 tol =   0.100000E-03
 Iteration #        115
  pAp =  -0.6552899524952502  rzold =  0.044880318295229836  alpha =  -0.06848925139830393
 delta_qm =   0.862082E-03 delta_en =   0.128422E+01 tol =   0.100000E-03
 Iteration #        116
  pAp =  -0.02332277238316405  rzold =  0.0019648761593508103  alpha =  -0.08424710952327392
 delta_qm =   0.662476E-03 delta_en =   0.758376E+00 tol =   0.100000E-03
 Iteration #        117
  pAp =  -0.0017859573087175794  rzold =  0.0005219933873533525  alpha =  -0.29227652016395284
 delta_qm =   0.708927E-03 delta_en =   0.868454E+00 tol =   0.100000E-03
 Iteration #        118
  pAp =  -0.002867356010254606  rzold =  0.001078319395565229  alpha =  -0.376067496226072
 delta_qm =   0.113813E-02 delta_en =   0.223836E+01 tol =   0.100000E-03
 Iteration #        119
  pAp =  -0.002229986150401787  rzold =  0.0020286052616191007  alpha =  -0.9096941078551529
 delta_qm =   0.445275E-02 delta_en =   0.342610E+02 tol =   0.100000E-03
 Iteration #        120
  pAp =  0.2804137824674849  rzold =  0.02830182524879371  alpha =  0.10092879529584257
 delta_qm =   0.121458E-02 delta_en =   0.254917E+01 tol =   0.100000E-03
 Iteration #        121
  pAp =  -0.029012602995794317  rzold =  0.003188305748001651  alpha =  -0.10989381919519009
 delta_qm =   0.705397E-03 delta_en =   0.859826E+00 tol =   0.100000E-03
 Iteration #        122
  pAp =  -0.008503986685199834  rzold =  0.0008650726324756323  alpha =  -0.10172553938509654
 delta_qm =   0.660579E-03 delta_en =   0.754037E+00 tol =   0.100000E-03
 Iteration #        123
  pAp =  -0.0012851512644028774  rzold =  0.0007203626202124992  alpha =  -0.5605274959965143
 delta_qm =   0.886122E-03 delta_en =   0.135685E+01 tol =   0.100000E-03
 Iteration #        124
  pAp =  0.0002014354659283501  rzold =  0.0007191078400918436  alpha =  3.569916731285184
 delta_qm =   0.433190E-02 delta_en =   0.324266E+02 tol =   0.100000E-03
 Iteration #        125
  pAp =  -0.26216482971657457  rzold =  0.021921300532322226  alpha =  -0.08361648111236455
 delta_qm =   0.101559E-02 delta_en =   0.178230E+01 tol =   0.100000E-03
[...]
 delta_qm =   0.618062E-03 delta_en =   0.660097E+00 tol =   0.100000E-03
 Iteration #         98
  pAp =  -0.0004419775762731536  rzold =  0.0003076029239450924  alpha =  -0.6959695252842099
 delta_qm =   0.865993E-03 delta_en =   0.129590E+01 tol =   0.100000E-03
 Iteration #         99
  pAp =  -0.01585264693781651  rzold =  0.002763107242039104  alpha =  -0.17429942475080978
 delta_qm =   0.158884E-02 delta_en =   0.436216E+01 tol =   0.100000E-03
 Iteration #        100
  pAp =  0.005001407440441639  rzold =  0.002503102103221384  alpha =  0.5004795416148604
 delta_qm =   0.125050E-02 delta_en =   0.270215E+01 tol =   0.100000E-03
 Iteration #        101
  pAp =  -0.012017925009866913  rzold =  0.002425301079427615  alpha =  -0.20180697395235891
 delta_qm =   0.470253E-03 delta_en =   0.382126E+00 tol =   0.100000E-03
 Iteration #        102
  pAp =  -0.0019335875249411666  rzold =  0.0004936212156029518  alpha =  -0.25528775358538336
 delta_qm =   0.447800E-03 delta_en =   0.346507E+00 tol =   0.100000E-03
 Iteration #        103
  pAp =  -0.001068105789609166  rzold =  0.00044432662222668325  alpha =  -0.4159949571935831
 delta_qm =   0.657177E-03 delta_en =   0.746292E+00 tol =   0.100000E-03
 Iteration #        104
  pAp =  -0.0008730882497236679  rzold =  0.0006296580245296152  alpha =  -0.7211848570048923
 delta_qm =   0.180286E-02 delta_en =   0.561653E+01 tol =   0.100000E-03
 Iteration #        105
  pAp =  0.022450360287679914  rzold =  0.004512978193729746  alpha =  0.20102030149628972
 delta_qm =   0.910653E-03 delta_en =   0.143301E+01 tol =   0.100000E-03
 Iteration #        106
  pAp =  -0.0014211740465474246  rzold =  0.000656261214192119  alpha =  -0.4617739929788533
 delta_qm =   0.498232E-03 delta_en =   0.428951E+00 tol =   0.100000E-03
 Iteration #        107
  pAp =  -0.0013801562054076505  rzold =  0.00033112258167006107  alpha =  -0.23991674302711183
 delta_qm =   0.519813E-03 delta_en =   0.466916E+00 tol =   0.100000E-03
 Iteration #        108
  pAp =  -0.002589134418377691  rzold =  0.000611727825273466  alpha =  -0.23626731039200533
 delta_qm =   0.743809E-03 delta_en =   0.956019E+00 tol =   0.100000E-03
 Iteration #        109
  pAp =  -0.0018349895365978054  rzold =  0.0012286814925464454  alpha =  -0.6695850129066697
 delta_qm =   0.248205E-02 delta_en =   0.106455E+02 tol =   0.100000E-03
 Iteration #        110
  pAp =  0.04043299455179642  rzold =  0.008493122655240982  alpha =  0.21005425765239633
 delta_qm =   0.192965E-02 delta_en =   0.643430E+01 tol =   0.100000E-03
 Iteration #        111
  pAp =  -0.08627606511506723  rzold =  0.0076533048803060465  alpha =  -0.08870716194692883
 delta_qm =   0.462144E-03 delta_en =   0.369061E+00 tol =   0.100000E-03
 Iteration #        112
  pAp =  -0.0014006965212442417  rzold =  0.0002818371329797697  alpha =  -0.20121213175386002
 delta_qm =   0.452767E-03 delta_en =   0.354237E+00 tol =   0.100000E-03
 Iteration #        113
  pAp =  -0.0036763967784535366  rzold =  0.0006915141734582295  alpha =  -0.18809563143756003
 delta_qm =   0.543119E-03 delta_en =   0.509722E+00 tol =   0.100000E-03
 Iteration #        114
  pAp =  -0.00047590811235039546  rzold =  0.00042159613543061615  alpha =  -0.8858771777359593
 delta_qm =   0.144322E-02 delta_en =   0.359923E+01 tol =   0.100000E-03
 Iteration #        115
  pAp =  0.019320342263918378  rzold =  0.005040196914907447  alpha =  0.2608751359607249
 delta_qm =   0.213059E-02 delta_en =   0.784411E+01 tol =   0.100000E-03
 Iteration #        116
  pAp =  -0.04727139672067109  rzold =  0.005768170842702565  alpha =  -0.12202243307484563
 delta_qm =   0.565714E-03 delta_en =   0.553016E+00 tol =   0.100000E-03
 Iteration #        117
  pAp =  -0.0010867684478237576  rzold =  0.00035528789833709956  alpha =  -0.32692143303254695
 delta_qm =   0.526015E-03 delta_en =   0.478123E+00 tol =   0.100000E-03
 Iteration #        118
  pAp =  -0.0011394466454747927  rzold =  0.000514559773037811  alpha =  -0.45158742191338025
 delta_qm =   0.759650E-03 delta_en =   0.997173E+00 tol =   0.100000E-03
 Iteration #        119
  pAp =  -0.0009258375761493536  rzold =  0.000814118176824017  alpha =  -0.8793315348141428
 delta_qm =   0.232190E-02 delta_en =   0.931600E+01 tol =   0.100000E-03
 Iteration #        120
  pAp =  0.03959277360001198  rzold =  0.006876147240219964  alpha =  0.1736717742911015
 delta_qm =   0.766376E-03 delta_en =   0.101491E+01 tol =   0.100000E-03
 Iteration #        121
  pAp =  -0.005632866000536102  rzold =  0.0007190684932317858  alpha =  -0.12765588479529769
 delta_qm =   0.646573E-03 delta_en =   0.722402E+00 tol =   0.100000E-03
 Iteration #        122
  pAp =  -0.00347796472711701  rzold =  0.0009165524455581498  alpha =  -0.2635312654012762
 delta_qm =   0.544204E-03 delta_en =   0.511762E+00 tol =   0.100000E-03
 Iteration #        123
  pAp =  -0.003997379189618748  rzold =  0.0004871528888321221  alpha =  -0.12186807048409748
 delta_qm =   0.599815E-03 delta_en =   0.621697E+00 tol =   0.100000E-03
 Iteration #        124
  pAp =  0.00009341143508159578  rzold =  0.0005828525232697841  alpha =  6.2396271158949315
 delta_qm =   0.718140E-02 delta_en =   0.891172E+02 tol =   0.100000E-03
 Iteration #        125
  pAp =  -0.696507178558577  rzold =  0.04731018786001734  alpha =  -0.06792491063469851
 delta_qm =   0.903323E-03 delta_en =   0.141004E+01 tol =   0.100000E-03
 Iteration #        126
  pAp =  -0.003999528119687474  rzold =  0.0011344716286983332  alpha =  -0.2836513695488111
 delta_qm =   0.586864E-03 delta_en =   0.595139E+00 tol =   0.100000E-03
 Iteration #        127
  pAp =  -0.002147041074660724  rzold =  0.0005525413066224207  alpha =  -0.2573501332338197
 delta_qm =   0.636656E-03 delta_en =   0.700412E+00 tol =   0.100000E-03
 Iteration #        128
  pAp =  -0.0016176277153651748  rzold =  0.0008821080666056092  alpha =  -0.545309689137266
 delta_qm =   0.127332E-02 delta_en =   0.280167E+01 tol =   0.100000E-03
 Iteration #        129
  pAp =  0.0036374189819122753  rzold =  0.0021974077354283365  alpha =  0.6041118019000132
 delta_qm =   0.146790E-02 delta_en =   0.372338E+01 tol =   0.100000E-03
 Iteration #        130
  pAp =  -0.01153259529797238  rzold =  0.002717255351766977  alpha =  -0.23561525238336553
 delta_qm =   0.575277E-03 delta_en =   0.571871E+00 tol =   0.100000E-03
 Iteration #        131
  pAp =  -0.005302112752778391  rzold =  0.000573183759626087  alpha =  -0.10810478508321604
 delta_qm =   0.561571E-03 delta_en =   0.544946E+00 tol =   0.100000E-03
 Iteration #        132
  pAp =  -0.0018044938279400363  rzold =  0.0006652556124692054  alpha =  -0.3686660503730534
 delta_qm =   0.767946E-03 delta_en =   0.101907E+01 tol =   0.100000E-03
 Iteration #        133
  pAp =  -0.0012210791268086841  rzold =  0.0006424525271593696  alpha =  -0.5261350497722721
 delta_qm =   0.149585E-02 delta_en =   0.386650E+01 tol =   0.100000E-03
 Iteration #        134
  pAp =  0.005554439333455282  rzold =  0.0024141548034040455  alpha =  0.434635191505865
 delta_qm =   0.148962E-02 delta_en =   0.383436E+01 tol =   0.100000E-03
 Iteration #        135
  pAp =  -0.05426943305552817  rzold =  0.0037791205671572578  alpha =  -0.0696362639958019
 delta_qm =   0.860502E-03 delta_en =   0.127952E+01 tol =   0.100000E-03
 Iteration #        136
  pAp =  -0.006639612138501345  rzold =  0.0011377446778393808  alpha =  -0.17135709949710795
 delta_qm =   0.558699E-03 delta_en =   0.539385E+00 tol =   0.100000E-03
 Iteration #        137
  pAp =  -0.0006256513202383832  rzold =  0.00033147945272047984  alpha =  -0.5298149975839271
 delta_qm =   0.605507E-03 delta_en =   0.633553E+00 tol =   0.100000E-03
 Iteration #        138
  pAp =  -0.00021611862150396665  rzold =  0.0004313687219933817  alpha =  -1.9959812763541265
 delta_qm =   0.225989E-02 delta_en =   0.882509E+01 tol =   0.100000E-03
 Iteration #        139
  pAp =  0.02581751633499766  rzold =  0.005634407623755087  alpha =  0.21823972339729703
 delta_qm =   0.713476E-03 delta_en =   0.879635E+00 tol =   0.100000E-03
 Iteration #        140
  pAp =  -0.0012983752685846583  rzold =  0.0006110130710097475  alpha =  -0.4705982051520473
 delta_qm =   0.458533E-03 delta_en =   0.363317E+00 tol =   0.100000E-03
 Iteration #        141
  pAp =  -0.0009402349694505424  rzold =  0.0002955974230128903  alpha =  -0.3143867571588329
 delta_qm =   0.569775E-03 delta_en =   0.560983E+00 tol =   0.100000E-03
 Iteration #        142
  pAp =  -0.00012659997871355218  rzold =  0.00047426443032775256  alpha =  -3.7461651664320845
 delta_qm =   0.565546E-02 delta_en =   0.552687E+02 tol =   0.100000E-03
 Iteration #        143
  pAp =  6.206890376723153  rzold =  0.1218445584060335  alpha =  0.019630531717294442
 delta_qm =   0.125252E-02 delta_en =   0.271091E+01 tol =   0.100000E-03
 Iteration #        144
  pAp =  -0.008977581536612473  rzold =  0.0018560409904715244  alpha =  -0.20674175811182527
 delta_qm =   0.525192E-03 delta_en =   0.476628E+00 tol =   0.100000E-03
 Iteration #        145
  pAp =  -0.006281579347843054  rzold =  0.0007413648290069083  alpha =  -0.11802204317636703
 delta_qm =   0.432246E-03 delta_en =   0.322853E+00 tol =   0.100000E-03
 Iteration #        146
  pAp =  -0.00040105250322446513  rzold =  0.00022687931852320692  alpha =  -0.5657097679208969
 delta_qm =   0.603485E-03 delta_en =   0.629328E+00 tol =   0.100000E-03
 Iteration #        147
  pAp =  -0.004876482451348607  rzold =  0.0009662730948674811  alpha =  -0.19814960978691828
 delta_qm =   0.100622E-02 delta_en =   0.174955E+01 tol =   0.100000E-03
 Iteration #        148
  pAp =  0.0036466553344831052  rzold =  0.0016818056048421566  alpha =  0.4611912699669885
 delta_qm =   0.118059E-02 delta_en =   0.240848E+01 tol =   0.100000E-03
 Iteration #        149
  pAp =  -0.010603541366851868  rzold =  0.0018767968987071532  alpha =  -0.1769971779969925
 delta_qm =   0.505935E-03 delta_en =   0.442316E+00 tol =   0.100000E-03
 Iteration #        150
  pAp =  -0.0009191815786373047  rzold =  0.0003542114301582758  alpha =  -0.38535523164356444
 delta_qm =   0.458623E-03 delta_en =   0.363459E+00 tol =   0.100000E-03
 Iteration #        151
  pAp =  -0.006551076354366462  rzold =  0.0006333708633455033  alpha =  -0.09668195409191732
 delta_qm =   0.499593E-03 delta_en =   0.431297E+00 tol =   0.100000E-03
 Iteration #        152
  pAp =  -0.001128402444745692  rzold =  0.0004306606929548361  alpha =  -0.3816552285580116
 delta_qm =   0.823021E-03 delta_en =   0.117048E+01 tol =   0.100000E-03
 Iteration #        153
  pAp =  0.001012217687852106  rzold =  0.0013287469432527316  alpha =  1.3127086783795399
 delta_qm =   0.400882E-02 delta_en =   0.277700E+02 tol =   0.100000E-03
 Iteration #        154
  pAp =  -0.8622346944465725  rzold =  0.0336176356462255  alpha =  -0.038988961894885314
 delta_qm =   0.588992E-03 delta_en =   0.599463E+00 tol =   0.100000E-03
 Iteration #        155
  pAp =  -0.0007429852984129613  rzold =  0.00037645254591878635  alpha =  -0.5066756323750957
 delta_qm =   0.446898E-03 delta_en =   0.345112E+00 tol =   0.100000E-03
 Iteration #        156
  pAp =  -0.0016824698424439388  rzold =  0.000366443883179896  alpha =  -0.2178011598993081
 delta_qm =   0.512341E-03 delta_en =   0.453588E+00 tol =   0.100000E-03
 Iteration #        157
  pAp =  -0.00014654412051490955  rzold =  0.00036113629079994675  alpha =  -2.464351961245722
 delta_qm =   0.275312E-02 delta_en =   0.130977E+02 tol =   0.100000E-03
 Iteration #        158
  pAp =  0.070085921534061  rzold =  0.009014431916364106  alpha =  0.12861972446182632
 delta_qm =   0.589991E-03 delta_en =   0.601499E+00 tol =   0.100000E-03
 Iteration #        159
  pAp =  -0.002305803474103597  rzold =  0.00045132734094063874  alpha =  -0.1957353894247629
 delta_qm =   0.468045E-03 delta_en =   0.378547E+00 tol =   0.100000E-03
 Iteration #        160
  pAp =  -0.0011609324600552343  rzold =  0.0003501383622234245  alpha =  -0.30160097531148866
 delta_qm =   0.479520E-03 delta_en =   0.397335E+00 tol =   0.100000E-03
 Iteration #        161
  pAp =  -0.003103623799317439  rzold =  0.00040135907328475766  alpha =  -0.1293194985078495
 delta_qm =   0.553612E-03 delta_en =   0.529608E+00 tol =   0.100000E-03
 Iteration #        162
  pAp =  0.00017890891847089277  rzold =  0.0004433225490886193  alpha =  2.4779231403198314
 delta_qm =   0.259305E-02 delta_en =   0.116189E+02 tol =   0.100000E-03
 Iteration #        163
  pAp =  -0.11699268671333228  rzold =  0.009564390901950503  alpha =  -0.08175204083812669
 delta_qm =   0.588669E-03 delta_en =   0.598807E+00 tol =   0.100000E-03
 Iteration #        164
  pAp =  -0.000924411554952739  rzold =  0.0003769431456907253  alpha =  -0.4077655062522414
 delta_qm =   0.475171E-03 delta_en =   0.390161E+00 tol =   0.100000E-03
 Iteration #        165
  pAp =  -0.004956985236922851  rzold =  0.0006265335153712026  alpha =  -0.12639406522827087
 delta_qm =   0.486626E-03 delta_en =   0.409198E+00 tol =   0.100000E-03
 Iteration #        166
  pAp =  -0.0025346016240538408  rzold =  0.0003938035561932981  alpha =  -0.15537098708374095
 delta_qm =   0.582066E-03 delta_en =   0.585447E+00 tol =   0.100000E-03
 Iteration #        167
  pAp =  -0.0006368442269944422  rzold =  0.0005359911828670056  alpha =  -0.8416362434446363
 delta_qm =   0.186955E-02 delta_en =   0.603975E+01 tol =   0.100000E-03
 Iteration #        168
  pAp =  0.03072557482814116  rzold =  0.005170997160314772  alpha =  0.16829618938743898
 delta_qm =   0.996552E-03 delta_en =   0.171610E+01 tol =   0.100000E-03
 Iteration #        169
  pAp =  -0.006697148018208584  rzold =  0.0013056037962693424  alpha =  -0.1949492220747687
 delta_qm =   0.396332E-03 delta_en =   0.271433E+00 tol =   0.100000E-03
 Iteration #        170
  pAp =  -0.0004991061633951298  rzold =  0.0002067881012851315  alpha =  -0.41431686573147475
 delta_qm =   0.397736E-03 delta_en =   0.273359E+00 tol =   0.100000E-03
 Iteration #        171
  pAp =  -0.0033375047784366526  rzold =  0.0003758289997251342  alpha =  -0.11260777876733985
 delta_qm =   0.458485E-03 delta_en =   0.363240E+00 tol =   0.100000E-03
 Iteration #        172
  pAp =  -0.0007916713006488895  rzold =  0.0004020144245666511  alpha =  -0.5078047217792813
 delta_qm =   0.994525E-03 delta_en =   0.170913E+01 tol =   0.100000E-03
 Iteration #        173
  pAp =  0.0034993219531979343  rzold =  0.001316178055155066  alpha =  0.37612373847231945
 delta_qm =   0.777358E-03 delta_en =   0.104421E+01 tol =   0.100000E-03
 Iteration #        174
  pAp =  -0.008797872897149207  rzold =  0.001032670952028175  alpha =  -0.11737734383077907
 delta_qm =   0.441828E-03 delta_en =   0.337327E+00 tol =   0.100000E-03
 Iteration #        175
  pAp =  -0.0032350207345502543  rzold =  0.00038069303835274295  alpha =  -0.11767870118633673
 delta_qm =   0.380962E-03 delta_en =   0.250788E+00 tol =   0.100000E-03
 Iteration #        176
  pAp =  -0.0003813496665746689  rzold =  0.0002242515209824426  alpha =  -0.5880469832232927
 delta_qm =   0.464071E-03 delta_en =   0.372146E+00 tol =   0.100000E-03
 Iteration #        177
  pAp =  0.000038390574101616266  rzold =  0.00018869687819419661  alpha =  4.915187714951425
 delta_qm =   0.281364E-02 delta_en =   0.136799E+02 tol =   0.100000E-03
 Iteration #        178
  pAp =  -0.1370164891122199  rzold =  0.009691829842445699  alpha =  -0.07073476999186463
 delta_qm =   0.631769E-03 delta_en =   0.689701E+00 tol =   0.100000E-03
 Iteration #        179
  pAp =  -0.0016208804812485637  rzold =  0.0004871500702958158  alpha =  -0.3005465707876032
 delta_qm =   0.399941E-03 delta_en =   0.276399E+00 tol =   0.100000E-03
 Iteration #        180
  pAp =  -0.00037010477725193133  rzold =  0.00019940865675397812  alpha =  -0.5387897401233491
 delta_qm =   0.503629E-03 delta_en =   0.438294E+00 tol =   0.100000E-03
 Iteration #        181
  pAp =  -0.0008852049315708332  rzold =  0.0003743551684839808  alpha =  -0.4229022626655185
 delta_qm =   0.911678E-03 delta_en =   0.143624E+01 tol =   0.100000E-03
 Iteration #        182
  pAp =  0.00635279152372755  rzold =  0.001862333583086832  alpha =  0.293152006662119
 delta_qm =   0.860689E-03 delta_en =   0.128008E+01 tol =   0.100000E-03
 Iteration #        183
  pAp =  -0.003636364987975906  rzold =  0.0008943203132737622  alpha =  -0.2459379947367615
 delta_qm =   0.417616E-03 delta_en =   0.301369E+00 tol =   0.100000E-03
 Iteration #        184
  pAp =  -0.0001690546311886941  rzold =  0.00017881404169496517  alpha =  -1.057729329493363
 delta_qm =   0.560758E-03 delta_en =   0.543369E+00 tol =   0.100000E-03
 Iteration #        185
  pAp =  -0.005441735646737655  rzold =  0.0005289086050491454  alpha =  -0.09719483624057122
 delta_qm =   0.668824E-03 delta_en =   0.772980E+00 tol =   0.100000E-03
 Iteration #        186
  pAp =  0.0004570422939969171  rzold =  0.0004669787543218006  alpha =  1.0217407895404764
 delta_qm =   0.109571E-02 delta_en =   0.207462E+01 tol =   0.100000E-03
 Iteration #        187
  pAp =  -0.039498171551495015  rzold =  0.002220430372982722  alpha =  -0.05621602939487659
 delta_qm =   0.702037E-03 delta_en =   0.851656E+00 tol =   0.100000E-03
 Iteration #        188
  pAp =  -0.0016518844414781287  rzold =  0.0004901006335773936  alpha =  -0.2966918394962573
 delta_qm =   0.484808E-03 delta_en =   0.406148E+00 tol =   0.100000E-03
 Iteration #        189
  pAp =  -0.0029176610669832273  rzold =  0.00046732347480393837  alpha =  -0.16017058324294556
 delta_qm =   0.463988E-03 delta_en =   0.372012E+00 tol =   0.100000E-03
 Iteration #        190
  pAp =  -0.00024975387395312224  rzold =  0.00020793164162251688  alpha =  -0.8325462117218041
 delta_qm =   0.888178E-03 delta_en =   0.136315E+01 tol =   0.100000E-03
 Iteration #        191
  pAp =  -0.003467684037001324  rzold =  0.0026336772852521475  alpha =  -0.7594917118024447
 delta_qm =   0.662728E-02 delta_en =   0.758952E+02 tol =   0.100000E-03
 Iteration #        192
  pAp =  3.1030194297803546  rzold =  0.08804087246445713  alpha =  0.028372646210175052
 delta_qm =   0.780640E-03 delta_en =   0.105304E+01 tol =   0.100000E-03
 Iteration #        193
  pAp =  -0.005383248741342044  rzold =  0.0010219270444467958  alpha =  -0.18983463212439805
 delta_qm =   0.415168E-03 delta_en =   0.297846E+00 tol =   0.100000E-03
 Iteration #        194
  pAp =  -0.0006157310458603122  rzold =  0.00027621961947975495  alpha =  -0.4486043400553486
 delta_qm =   0.440052E-03 delta_en =   0.334620E+00 tol =   0.100000E-03
 Iteration #        195
  pAp =  -0.00008955926277022131  rzold =  0.0002131583958522042  alpha =  -2.3800820736889756
 delta_qm =   0.192455E-02 delta_en =   0.640031E+01 tol =   0.100000E-03
 Iteration #        196
  pAp =  0.02467599100931711  rzold =  0.004200867183241111  alpha =  0.17024107285721396
 delta_qm =   0.589014E-03 delta_en =   0.599508E+00 tol =   0.100000E-03
 Iteration #        197
  pAp =  -0.0014217546911670723  rzold =  0.0003982980377521506  alpha =  -0.28014540076896155
 delta_qm =   0.389646E-03 delta_en =   0.262351E+00 tol =   0.100000E-03
 Iteration #        198
  pAp =  -0.0010547779110125178  rzold =  0.00018447953258410364  alpha =  -0.17489893432354434
 delta_qm =   0.429703E-03 delta_en =   0.319067E+00 tol =   0.100000E-03
 Iteration #        199
  pAp =  -0.0005082454611914099  rzold =  0.0003103550505954414  alpha =  -0.6106400829786434
 delta_qm =   0.877135E-03 delta_en =   0.132946E+01 tol =   0.100000E-03
 Iteration #        200
  pAp =  -0.0006686670866069507  rzold =  0.0012672950009677034  alpha =  -1.8952555409873677
 delta_qm =   0.879883E-02 delta_en =   0.133781E+03 tol =   0.100000E-03

%%%% ELECTRONS %%%%%%%%%%%%%%%%%%%%%%%%%%%%%%%%%%%%%%%%%%%%%%%%%%%%%%%%%%%%%%%%%
 number of electrons        =         24
 total electronic charge    =     24.0000000
 number of spin components  =  1
