
     Program PWSCF v.6.7MaX starts on  1Oct2021 at 21: 6:12 

     This program is part of the open-source Quantum ESPRESSO suite
     for quantum simulation of materials; please cite
         "P. Giannozzi et al., J. Phys.:Condens. Matter 21 395502 (2009);
         "P. Giannozzi et al., J. Phys.:Condens. Matter 29 465901 (2017);
          URL http://www.quantum-espresso.org", 
     in publications or presentations arising from this work. More details at
     http://www.quantum-espresso.org/quote

     Parallel version (MPI), running on     1 processors

     MPI processes distributed on     1 nodes
     Reading input from cation.in

     Current dimensions of program PWSCF are:
     Max number of different atomic species (ntypx) = 10
     Max number of k-points (npk) =  40000
     Max angular momentum in pseudopotentials (lmaxx) =  3

     Reading input from environ.in

     ================================================================================

     Reading ENVIRON namelist

     Reading BOUNDARY namelist

     Checking boundary derivatives
     derivatives               = chain          ! SCCS default

     Setting up water-cation environment (solvent mode = electronic)
     env_static_permittivity   = 78.3D0         
     env_optical_permittivity  = 1.D0           
     env_surface_tension       = 5.D0           
     env_pressure              = 0.125D0        
     rhomax                    = 0.0035         
     rhomin                    = 0.0002         

     Reading ELECTROSTATIC namelist

     Setting up electrostatic problem
     problem                   = generalized    
     solver                    = cg             

     Checking PBC correction
     pbc_correction            = none           ! default

     ================================================================================
 
     file C.pbe-rrkjus.UPF: wavefunction(s)  2S 2P renormalized
     file H.pbe-rrkjus.UPF: wavefunction(s)  1S renormalized
     file N.pbe-rrkjus.UPF: wavefunction(s)  2S renormalized
     file O.pbe-rrkjus.UPF: wavefunction(s)  2S renormalized

     gamma-point specific algorithms are used

     Subspace diagonalization in iterative solution of the eigenvalue problem:
     a serial algorithm will be used

 
     G-vector sticks info
     --------------------
     sticks:   dense  smooth     PW     G-vecs:    dense   smooth      PW
     Sum        9549    3809    949               701475   177509   22119
 


     bravais-lattice index     =            1
     lattice parameter (alat)  =      20.0000  a.u.
     unit-cell volume          =    8000.0000 (a.u.)^3
     number of atoms/cell      =           10
     number of atomic types    =            4
     number of electrons       =        24.00
     number of Kohn-Sham states=           12
     kinetic-energy cutoff     =      30.0000  Ry
     charge density cutoff     =     300.0000  Ry
     scf convergence threshold =      1.0E-03
     mixing beta               =       0.7000
     number of iterations used =            8  plain     mixing
     Exchange-correlation= SLA  PW   PBE  PBE
                           (   1   4   3   4   0   0   0)
 

     Environ Module
     ==============

     Please cite
         O. Andreussi, I. Dabo and N. Marzari, J. Chem. Phys. 136, 064102 (2012)         
     in publications or presentations arising from this work.

     compensation onset threshold      =               0.1000E+03
     static permittivity               =                    78.30
     epsilon calculation mode          =               electronic
     surface tension in input (dyn/cm) =                     5.00
     surface tension in internal units =               0.6423E-05
     external pressure in input (GPa)  =                     0.12
     external pressure in inter. units =               0.8497E-05

     Electrostatic Setup
     -------------------
     electrostatic problem to solve    = generalized             
     numerical solver adopted          = cg                      
     type of auxiliary density adopted = none                    
     type of core tool for poisson     = fft                     



     celldm(1)=  20.000000  celldm(2)=   0.000000  celldm(3)=   0.000000
     celldm(4)=   0.000000  celldm(5)=   0.000000  celldm(6)=   0.000000

     crystal axes: (cart. coord. in units of alat)
               a(1) = (   1.000000   0.000000   0.000000 )  
               a(2) = (   0.000000   1.000000   0.000000 )  
               a(3) = (   0.000000   0.000000   1.000000 )  

     reciprocal axes: (cart. coord. in units 2 pi/alat)
               b(1) = (  1.000000  0.000000  0.000000 )  
               b(2) = (  0.000000  1.000000  0.000000 )  
               b(3) = (  0.000000  0.000000  1.000000 )  


     PseudoPot. # 1 for C  read from file:
     /home/simplogic86/Work/QE1/Environ/tests/../..//pseudo/C.pbe-rrkjus.UPF
     MD5 check sum: c9ac5a99bc85b198593446162950cd17
     Pseudo is Ultrasoft, Zval =  4.0
     Generated by new atomic code, or converted to UPF format
     Using radial grid of  627 points,  4 beta functions with: 
                l(1) =   0
                l(2) =   0
                l(3) =   1
                l(4) =   1
     Q(r) pseudized with 0 coefficients 


     PseudoPot. # 2 for H  read from file:
     /home/simplogic86/Work/QE1/Environ/tests/../..//pseudo/H.pbe-rrkjus.UPF
     MD5 check sum: 2d52a7f45632fd764c17cc6affed14c8
     Pseudo is Ultrasoft, Zval =  1.0
     Generated by new atomic code, or converted to UPF format
     Using radial grid of 1061 points,  2 beta functions with: 
                l(1) =   0
                l(2) =   0
     Q(r) pseudized with 0 coefficients 


     PseudoPot. # 3 for N  read from file:
     /home/simplogic86/Work/QE1/Environ/tests/../..//pseudo/N.pbe-rrkjus.UPF
     MD5 check sum: 28c76d763763edb36c62a6ca2be9aebd
     Pseudo is Ultrasoft, Zval =  5.0
     Generated by new atomic code, or converted to UPF format
     Using radial grid of 1257 points,  4 beta functions with: 
                l(1) =   0
                l(2) =   0
                l(3) =   1
                l(4) =   1
     Q(r) pseudized with 0 coefficients 


     PseudoPot. # 4 for O  read from file:
     /home/simplogic86/Work/QE1/Environ/tests/../..//pseudo/O.pbe-rrkjus.UPF
     MD5 check sum: fadcf19ee70a498d3030e2e79cf929a4
     Pseudo is Ultrasoft, Zval =  6.0
     Generated by new atomic code, or converted to UPF format
     Using radial grid of 1269 points,  4 beta functions with: 
                l(1) =   0
                l(2) =   0
                l(3) =   1
                l(4) =   1
     Q(r) pseudized with 0 coefficients 


     atomic species   valence    mass     pseudopotential
        C              4.00    12.00000     C ( 1.00)
        H              1.00     1.00000     H ( 1.00)
        N              5.00    14.00000     N ( 1.00)
        O              6.00    16.00000     O ( 1.00)

     No symmetry found



   Cartesian axes

     site n.     atom                  positions (alat units)
         1           C   tau(   1) = (   0.0000000   0.0000000   0.0000000  )
         2           C   tau(   2) = (   0.0000000   0.0000000   0.1455089  )
         3           N   tau(   3) = (   0.1170969   0.0000000  -0.0545024  )
         4           H   tau(   4) = (   0.0476617  -0.0825466   0.1792090  )
         5           H   tau(   5) = (  -0.0953183  -0.0000030   0.1792090  )
         6           H   tau(   6) = (   0.0476566   0.0825496   0.1792090  )
         7           O   tau(   7) = (  -0.0984002  -0.0000019  -0.0641310  )
         8           H   tau(   8) = (   0.1263131  -0.0000015  -0.1475548  )
         9           H   tau(   9) = (   0.1944645   0.0000134  -0.0025716  )
        10           H   tau(  10) = (  -0.0770366  -0.0000045  -0.1522861  )

     number of k points=     1
                       cart. coord. in units 2pi/alat
        k(    1) = (   0.0000000   0.0000000   0.0000000), wk =   2.0000000

     Dense  grid:   350738 G-vectors     FFT dimensions: ( 120, 120, 120)

     Smooth grid:    88755 G-vectors     FFT dimensions: (  72,  72,  72)

     Estimated max dynamical RAM per process >     624.11 MB

     Initial potential from superposition of free atoms

     starting charge   24.42266, renormalised to   24.00000

     negative rho (up, down):  4.438E-04 0.000E+00
     Starting wfcs are   22 randomized atomic wfcs

     total cpu time spent up to now is        5.2 secs

     Self-consistent Calculation

     iteration #  1     ecut=    30.00 Ry     beta= 0.70
     Davidson diagonalization with overlap
     ethr =  1.00E-02,  avg # of iterations =  2.0

     negative rho (up, down):  1.234E-04 0.000E+00

     add environment contribution to local potential
     Polarization accuracy = 1.8E-06, # of iterations =  17

     total cpu time spent up to now is        9.8 secs

     total energy              =     -80.27427664 Ry
     estimated scf accuracy    <       3.64924908 Ry
     electrostatic embedding   =       0.00000000 Ry
     cavitation energy         =       0.00482850 Ry
     PV energy                 =       0.01652076 Ry
     correction to one-el term =       0.00000000 Ry

     iteration #  2     ecut=    30.00 Ry     beta= 0.70
     Davidson diagonalization with overlap
     ethr =  1.00E-02,  avg # of iterations =  4.0

     negative rho (up, down):  4.955E-04 0.000E+00

     add environment contribution to local potential
     Polarization accuracy = 9.1E-06, # of iterations =  19

     total cpu time spent up to now is       15.8 secs

     total energy              =     -81.16082381 Ry
     estimated scf accuracy    <       1.04892025 Ry
     electrostatic embedding   =      -0.17901983 Ry
     cavitation energy         =       0.00266884 Ry
     PV energy                 =       0.00636217 Ry
     correction to one-el term =      -4.90697644 Ry

     iteration #  3     ecut=    30.00 Ry     beta= 0.70
     Davidson diagonalization with overlap
     ethr =  4.37E-03,  avg # of iterations =  4.0

     negative rho (up, down):  2.249E-04 0.000E+00

     add environment contribution to local potential
     Polarization accuracy = 5.7E-06, # of iterations =  21

     total cpu time spent up to now is       21.3 secs

     total energy              =     -81.33816180 Ry
     estimated scf accuracy    <       0.11552261 Ry
     electrostatic embedding   =      -0.14647564 Ry
     cavitation energy         =       0.00257866 Ry
     PV energy                 =       0.00590699 Ry
     correction to one-el term =      -4.20163124 Ry

     iteration #  4     ecut=    30.00 Ry     beta= 0.70
     Davidson diagonalization with overlap
     ethr =  4.81E-04,  avg # of iterations =  5.0

     negative rho (up, down):  1.263E-04 0.000E+00

     add environment contribution to local potential
     Polarization accuracy = 4.6E-06, # of iterations =  22

     total cpu time spent up to now is       26.1 secs

     total energy              =     -81.37013726 Ry
     estimated scf accuracy    <       0.01961323 Ry
     electrostatic embedding   =      -0.12445860 Ry
     cavitation energy         =       0.00252026 Ry
     PV energy                 =       0.00562833 Ry
     correction to one-el term =      -3.96018801 Ry

     iteration #  5     ecut=    30.00 Ry     beta= 0.70
     Davidson diagonalization with overlap
     ethr =  8.17E-05,  avg # of iterations =  4.0

     negative rho (up, down):  7.670E-05 0.000E+00

     add environment contribution to local potential
     Polarization accuracy = 4.9E-06, # of iterations =  22

     total cpu time spent up to now is       30.9 secs

     total energy              =     -81.37472459 Ry
     estimated scf accuracy    <       0.00176356 Ry
     electrostatic embedding   =      -0.11864644 Ry
     cavitation energy         =       0.00247948 Ry
     PV energy                 =       0.00543919 Ry
     correction to one-el term =      -3.74018810 Ry

     iteration #  6     ecut=    30.00 Ry     beta= 0.70
     Davidson diagonalization with overlap
     ethr =  7.35E-06,  avg # of iterations =  2.0

     negative rho (up, down):  2.790E-04 0.000E+00

     the potential shift due to the Gaussian-smeared nuclei is    -0.0668 ev

     total cpu time spent up to now is       33.2 secs

     End of self-consistent calculation

          k = 0.0000 0.0000 0.0000 ( 11060 PWs)   bands (ev):

   -29.0206 -23.1373 -18.6626 -16.0863 -14.6820 -13.4309 -11.7237 -11.0034
    -9.6428  -9.6350  -9.3692  -7.4336

     highest occupied level (ev):    -7.4336

!    total energy              =     -81.37516220 Ry
     estimated scf accuracy    <       0.00024037 Ry

     The total energy is the sum of the following terms:
     one-electron contribution =    -242.06879919 Ry
     hartree contribution      =     123.18394142 Ry
     xc contribution           =     -22.96942731 Ry
     ewald contribution        =      64.30784069 Ry
     electrostatic embedding   =      -0.11934307 Ry
     cavitation energy         =       0.00248197 Ry
     PV energy                 =       0.00544573 Ry
     correction to one-el term =      -3.71730244 Ry

     convergence has been achieved in   6 iterations

     Forces acting on atoms (cartesian axes, Ry/au):

     atom    1 type  1   force =     0.22031350   -0.00000087    0.09795240
     atom    2 type  1   force =    -0.03122935    0.00000494   -0.08060272
     atom    3 type  3   force =    -0.13859231   -0.00000512    0.04310853
     atom    4 type  2   force =     0.01799562   -0.02771479    0.00814503
     atom    5 type  2   force =    -0.03111178   -0.00000155    0.01133618
     atom    6 type  2   force =     0.01799459    0.02771389    0.00814409
     atom    7 type  4   force =    -0.09041579    0.00000054   -0.00409435
     atom    8 type  2   force =     0.00706166    0.00000115   -0.04993171
     atom    9 type  2   force =     0.04019151    0.00000295    0.03520886
     atom   10 type  2   force =    -0.01220765   -0.00000114   -0.06926631

     Total force =     0.329576     Total SCF correction =     0.017421

     Writing output data file /home/simplogic86/Work/QE1/Environ/tests/../..//tempdir/pwscf.save/
 
     init_run     :      4.95s CPU      5.18s WALL (       1 calls)
     electrons    :     25.82s CPU     27.95s WALL (       1 calls)
     forces       :      1.09s CPU      1.24s WALL (       1 calls)

     Called by init_run:
     wfcinit      :      0.10s CPU      0.11s WALL (       1 calls)
     potinit      :      1.42s CPU      1.48s WALL (       1 calls)
     hinit0       :      2.92s CPU      2.92s WALL (       1 calls)

     Called by electrons:
     c_bands      :      1.09s CPU      1.19s WALL (       6 calls)
     sum_band     :      2.42s CPU      2.86s WALL (       6 calls)
     v_of_rho     :      2.83s CPU      3.17s WALL (       7 calls)
     newd         :      1.73s CPU      2.24s WALL (       7 calls)
     mix_rho      :      0.29s CPU      0.30s WALL (       6 calls)

     Called by c_bands:
     init_us_2    :      0.04s CPU      0.04s WALL (      13 calls)
     regterg      :      1.02s CPU      1.11s WALL (       6 calls)

     Called by *egterg:
     rdiaghg      :      0.01s CPU      0.01s WALL (      27 calls)
     h_psi        :      1.01s CPU      1.10s WALL (      28 calls)
     s_psi        :      0.02s CPU      0.02s WALL (      28 calls)
     g_psi        :      0.00s CPU      0.00s WALL (      21 calls)

     Called by h_psi:
     h_psi:calbec :      0.02s CPU      0.02s WALL (      28 calls)
     vloc_psi     :      0.96s CPU      1.04s WALL (      28 calls)
     add_vuspsi   :      0.03s CPU      0.03s WALL (      28 calls)

     General routines
     calbec       :      0.04s CPU      0.04s WALL (      38 calls)
     fft          :      1.29s CPU      1.30s WALL (      77 calls)
     ffts         :      0.04s CPU      0.04s WALL (      13 calls)
     fftw         :      0.79s CPU      0.87s WALL (     280 calls)
     interpolate  :      0.16s CPU      0.17s WALL (       7 calls)
 
     Parallel routines
 
     Environ routines
 
     PWSCF        :     31.93s CPU     34.47s WALL

 
   This run was terminated on:  21: 6:47   1Oct2021            

=------------------------------------------------------------------------------=
   JOB DONE.
=------------------------------------------------------------------------------=

%%%% CELL %%%%%%%%%%%%%%%%%%%%%%%%%%%%%%%%%%%%%%%%%%%%%%%%%%%%%%%%%%%%%%%%%%%%%%

 cell label                 = system         

 cell volume                =    8000.000000

%%%% IONS %%%%%%%%%%%%%%%%%%%%%%%%%%%%%%%%%%%%%%%%%%%%%%%%%%%%%%%%%%%%%%%%%%%%%%

 total charge               =    -25.0000000
 center of charge           =      0.1910593    -0.0000030     0.1279620
 dipole                     =      0.0000000     0.0000000     0.0000000
 quadrupole (pc)            =    -79.0828051    -5.4513517  -105.8059620
 quadrupole (gauss)         =    -82.2078051    -8.5763517  -108.9309620

   i | type | coordinates
 -----------------------------------------------------------------------
   1 |    1 |                      0.0000000     0.0000000     0.0000000
   2 |    1 |                      0.0000000     0.0000000     2.9101782
   3 |    3 |                      2.3419379     0.0000000    -1.0900479
   4 |    2 |                      0.9532347    -1.6509323     3.5841800
   5 |    2 |                     -1.9063663    -0.0000596     3.5841809
   6 |    2 |                      0.9531315     1.6509919     3.5841800
   7 |    4 |                     -1.9680045    -0.0000375    -1.2826193
   8 |    2 |                      2.5262613    -0.0000303    -2.9510950
   9 |    2 |                      3.8892907     0.0002681    -0.0514326
  10 |    2 |                     -1.5407317    -0.0000890    -3.0457220

%%%% SYSTEM %%%%%%%%%%%%%%%%%%%%%%%%%%%%%%%%%%%%%%%%%%%%%%%%%%%%%%%%%%%%%%%%%%%%

 system is built from all present ionic types

 system defined dimension   =              0
 system defined axis        =              3

 system center              =      0.1910593    -0.0000030     0.1279620
 system width               =      4.0428509

%%%% IONS %%%%%%%%%%%%%%%%%%%%%%%%%%%%%%%%%%%%%%%%%%%%%%%%%%%%%%%%%%%%%%%%%%%%%%

 total charge               =    -25.0000000
 center of charge           =      0.1910593    -0.0000030     0.1279620
 dipole                     =      0.0000000     0.0000000     0.0000000
 quadrupole (pc)            =    -79.0828051    -5.4513517  -105.8059620
 quadrupole (gauss)         =    -82.2078051    -8.5763517  -108.9309620

   i | type | coordinates
 -----------------------------------------------------------------------
   1 |    1 |                      0.0000000     0.0000000     0.0000000
   2 |    1 |                      0.0000000     0.0000000     2.9101782
   3 |    3 |                      2.3419379     0.0000000    -1.0900479
   4 |    2 |                      0.9532347    -1.6509323     3.5841800
   5 |    2 |                     -1.9063663    -0.0000596     3.5841809
   6 |    2 |                      0.9531315     1.6509919     3.5841800
   7 |    4 |                     -1.9680045    -0.0000375    -1.2826193
   8 |    2 |                      2.5262613    -0.0000303    -2.9510950
   9 |    2 |                      3.8892907     0.0002681    -0.0514326
  10 |    2 |                     -1.5407317    -0.0000890    -3.0457220

%%%% SYSTEM %%%%%%%%%%%%%%%%%%%%%%%%%%%%%%%%%%%%%%%%%%%%%%%%%%%%%%%%%%%%%%%%%%%%

 system is built from all present ionic types

 system defined dimension   =              0
 system defined axis        =              3

 system center              =      0.1910593    -0.0000030     0.1279620
 system width               =      4.0428509

%%%% CHARGES %%%%%%%%%%%%%%%%%%%%%%%%%%%%%%%%%%%%%%%%%%%%%%%%%%%%%%%%%%%%%%%%%%%

 total number of charges    =             11

 total charge               =    -25.0000000

%%%% CHARGES %%%%%%%%%%%%%%%%%%%%%%%%%%%%%%%%%%%%%%%%%%%%%%%%%%%%%%%%%%%%%%%%%%%

 total number of charges    =             11

 total charge               =    -25.0000000

%%%% CELL %%%%%%%%%%%%%%%%%%%%%%%%%%%%%%%%%%%%%%%%%%%%%%%%%%%%%%%%%%%%%%%%%%%%%%

 cell label                 = system         

 cell volume                =    8000.000000

%%%% ELECTRONS %%%%%%%%%%%%%%%%%%%%%%%%%%%%%%%%%%%%%%%%%%%%%%%%%%%%%%%%%%%%%%%%%

 number of electrons        =             24

 total electronic charge    =     24.0000000

%%%% ELECTRONS %%%%%%%%%%%%%%%%%%%%%%%%%%%%%%%%%%%%%%%%%%%%%%%%%%%%%%%%%%%%%%%%%

 number of electrons        =             24

 total electronic charge    =     24.0000000

%%%% CHARGES %%%%%%%%%%%%%%%%%%%%%%%%%%%%%%%%%%%%%%%%%%%%%%%%%%%%%%%%%%%%%%%%%%%

 total number of charges    =             34

 total charge               =     -1.0000000

%%%% CHARGES %%%%%%%%%%%%%%%%%%%%%%%%%%%%%%%%%%%%%%%%%%%%%%%%%%%%%%%%%%%%%%%%%%%

 total number of charges    =             34

 total charge               =     -1.0000000

%%%% BOUNDARY %%%%%%%%%%%%%%%%%%%%%%%%%%%%%%%%%%%%%%%%%%%%%%%%%%%%%%%%%%%%%%%%%%

 boundary label             = solvent             
 boundary mode              = electronic          

 boundary is built as a type-2 function of a smooth density

 using the modified SCCS function:
 rhomax                     =      0.0035000
 rhomin                     =      0.0002000

 volume of the QM region    =   1944.2296149

 surface of the QM region   =    751.7453182

%%%% DENSITY %%%%%%%%%%%%%%%%%%%%%%%%%%%%%%%%%%%%%%%%%%%%%%%%%%%%%%%%%%%%%%%%%%%

 density label              = dvtot                                             

 integral of density        =    0.000000000    

%%%% DENSITY %%%%%%%%%%%%%%%%%%%%%%%%%%%%%%%%%%%%%%%%%%%%%%%%%%%%%%%%%%%%%%%%%%%

 density label              = vreference                                        

 integral of density        =    0.000000000    

%%%% DENSITY %%%%%%%%%%%%%%%%%%%%%%%%%%%%%%%%%%%%%%%%%%%%%%%%%%%%%%%%%%%%%%%%%%%

 density label              = velectrostatic                                    

 integral of density        =    0.000000000    

%%%% CHARGES %%%%%%%%%%%%%%%%%%%%%%%%%%%%%%%%%%%%%%%%%%%%%%%%%%%%%%%%%%%%%%%%%%%

 total number of charges    =             34

 total charge               =     -1.0000000

%%%% DENSITY %%%%%%%%%%%%%%%%%%%%%%%%%%%%%%%%%%%%%%%%%%%%%%%%%%%%%%%%%%%%%%%%%%%

 density label              = vsoftcavity                                       

 integral of density        =    0.000000000    

%%%% ELECTRONS %%%%%%%%%%%%%%%%%%%%%%%%%%%%%%%%%%%%%%%%%%%%%%%%%%%%%%%%%%%%%%%%%

 number of electrons        =             24

 total electronic charge    =     24.0000000

%%%% ELECTRONS %%%%%%%%%%%%%%%%%%%%%%%%%%%%%%%%%%%%%%%%%%%%%%%%%%%%%%%%%%%%%%%%%

 number of electrons        =             24

 total electronic charge    =     24.0000000

%%%% CHARGES %%%%%%%%%%%%%%%%%%%%%%%%%%%%%%%%%%%%%%%%%%%%%%%%%%%%%%%%%%%%%%%%%%%

 total number of charges    =             34

 total charge               =     -1.0000000

%%%% CHARGES %%%%%%%%%%%%%%%%%%%%%%%%%%%%%%%%%%%%%%%%%%%%%%%%%%%%%%%%%%%%%%%%%%%

 total number of charges    =             34

 total charge               =     -1.0000000

%%%% BOUNDARY %%%%%%%%%%%%%%%%%%%%%%%%%%%%%%%%%%%%%%%%%%%%%%%%%%%%%%%%%%%%%%%%%%

 boundary label             = solvent             
 boundary mode              = electronic          

 boundary is built as a type-2 function of a smooth density

 using the modified SCCS function:
 rhomax                     =      0.0035000
 rhomin                     =      0.0002000

 volume of the QM region    =    748.7263371

 surface of the QM region   =    415.5097040

%%%% DENSITY %%%%%%%%%%%%%%%%%%%%%%%%%%%%%%%%%%%%%%%%%%%%%%%%%%%%%%%%%%%%%%%%%%%

 density label              = vreference                                        

 integral of density        =  -0.6906738556E-12

%%%% COMPUTE ELECTROSTATIC POTENTIAL %%%%%%%%%%%%%%%%%%%%%%%%%%%%%%%%%%%%%%%%%%%

   i |      alpha     |       pAp      |      rzold     |    delta_qm    |    delta_en    |       tol
 ---------------------------------------------------------------------------------------------------------
   1 |   0.962581E+00 |   0.929085E+02 |   0.894319E+02 |   0.218762E-01 |   0.826965E+03 |   0.100000E-04
   2 |   0.108148E+00 |   0.246831E+03 |   0.266943E+02 |   0.410401E-02 |   0.291046E+02 |   0.100000E-04
   3 |   0.178532E+00 |   0.165431E+01 |   0.295347E+00 |   0.173783E-02 |   0.521865E+01 |   0.100000E-04
   4 |   0.171046E+00 |   0.194459E+00 |   0.332614E-01 |   0.128182E-02 |   0.283919E+01 |   0.100000E-04
   5 |   0.296588E+00 |   0.172144E-01 |   0.510558E-02 |   0.841921E-03 |   0.122486E+01 |   0.100000E-04
   6 |   0.402461E+00 |   0.515213E-02 |   0.207353E-02 |   0.405919E-03 |   0.284723E+00 |   0.100000E-04
   7 |   0.394254E+00 |   0.145501E-02 |   0.573642E-03 |   0.264157E-03 |   0.120578E+00 |   0.100000E-04
   8 |   0.272730E+00 |   0.127190E-02 |   0.346885E-03 |   0.179894E-03 |   0.559213E-01 |   0.100000E-04
   9 |   0.355363E+00 |   0.658746E-03 |   0.234094E-03 |   0.102964E-03 |   0.183197E-01 |   0.100000E-04
  10 |   0.373458E+00 |   0.237519E-03 |   0.887033E-04 |   0.428978E-04 |   0.317990E-02 |   0.100000E-04
  11 |   0.394527E+00 |   0.264933E-04 |   0.104523E-04 |   0.230578E-04 |   0.918713E-03 |   0.100000E-04
  12 |   0.448869E+00 |   0.264691E-05 |   0.118812E-05 |   0.157775E-04 |   0.430148E-03 |   0.100000E-04
  13 |   0.513229E+00 |   0.925529E-06 |   0.475008E-06 |   0.932718E-05 |   0.150330E-03 |   0.100000E-04
  14 |   0.348290E+00 |   0.106040E-05 |   0.369327E-06 |   0.672250E-05 |   0.780917E-04 |   0.100000E-04
  15 |   0.370671E+00 |   0.463131E-06 |   0.171669E-06 |   0.463626E-05 |   0.371432E-04 |   0.100000E-04
  16 |   0.387196E+00 |   0.174090E-06 |   0.674070E-07 |   0.261671E-05 |   0.118319E-04 |   0.100000E-04
  17 |   0.477609E+00 |   0.346307E-07 |   0.165399E-07 |   0.101752E-05 |   0.178907E-05 |   0.100000E-04

 Charges are converged, EXIT

%%%% DENSITY %%%%%%%%%%%%%%%%%%%%%%%%%%%%%%%%%%%%%%%%%%%%%%%%%%%%%%%%%%%%%%%%%%%

 density label              = velectrostatic                                    

 integral of density        =   0.8907442685E-12

%%%% CHARGES %%%%%%%%%%%%%%%%%%%%%%%%%%%%%%%%%%%%%%%%%%%%%%%%%%%%%%%%%%%%%%%%%%%

 total number of charges    =             34

 total charge               =     -1.0000000

%%%% DENSITY %%%%%%%%%%%%%%%%%%%%%%%%%%%%%%%%%%%%%%%%%%%%%%%%%%%%%%%%%%%%%%%%%%%

 density label              = vsoftcavity                                       

 integral of density        =    78.47693715    

%%%% DENSITY %%%%%%%%%%%%%%%%%%%%%%%%%%%%%%%%%%%%%%%%%%%%%%%%%%%%%%%%%%%%%%%%%%%

 density label              = dvtot                                             

 integral of density        =    78.47693715    

%%%% ELECTRONS %%%%%%%%%%%%%%%%%%%%%%%%%%%%%%%%%%%%%%%%%%%%%%%%%%%%%%%%%%%%%%%%%

 number of electrons        =             24

 total electronic charge    =     24.0000000

%%%% ELECTRONS %%%%%%%%%%%%%%%%%%%%%%%%%%%%%%%%%%%%%%%%%%%%%%%%%%%%%%%%%%%%%%%%%

 number of electrons        =             24

 total electronic charge    =     24.0000000

%%%% CHARGES %%%%%%%%%%%%%%%%%%%%%%%%%%%%%%%%%%%%%%%%%%%%%%%%%%%%%%%%%%%%%%%%%%%

 total number of charges    =             34

 total charge               =     -1.0000000

%%%% CHARGES %%%%%%%%%%%%%%%%%%%%%%%%%%%%%%%%%%%%%%%%%%%%%%%%%%%%%%%%%%%%%%%%%%%

 total number of charges    =             34

 total charge               =     -1.0000000

%%%% BOUNDARY %%%%%%%%%%%%%%%%%%%%%%%%%%%%%%%%%%%%%%%%%%%%%%%%%%%%%%%%%%%%%%%%%%

 boundary label             = solvent             
 boundary mode              = electronic          

 boundary is built as a type-2 function of a smooth density

 using the modified SCCS function:
 rhomax                     =      0.0035000
 rhomin                     =      0.0002000

 volume of the QM region    =    695.1585966

 surface of the QM region   =    401.4699445

%%%% DENSITY %%%%%%%%%%%%%%%%%%%%%%%%%%%%%%%%%%%%%%%%%%%%%%%%%%%%%%%%%%%%%%%%%%%

 density label              = vreference                                        

 integral of density        =  -0.1190685410E-11

%%%% COMPUTE ELECTROSTATIC POTENTIAL %%%%%%%%%%%%%%%%%%%%%%%%%%%%%%%%%%%%%%%%%%%

 Warning: Bad guess with residual norm =   0.159391E+04, reset to no guess

   i |      alpha     |       pAp      |      rzold     |    delta_qm    |    delta_en    |       tol
 ---------------------------------------------------------------------------------------------------------
   1 |   0.965895E+00 |   0.959029E+02 |   0.926322E+02 |   0.294306E-01 |   0.149673E+04 |   0.100000E-04
   2 |   0.932990E-01 |   0.319885E+03 |   0.298449E+02 |   0.516669E-02 |   0.461284E+02 |   0.100000E-04
   3 |   0.147431E+00 |   0.216491E+01 |   0.319175E+00 |   0.218399E-02 |   0.824223E+01 |   0.100000E-04
   4 |   0.145884E+00 |   0.217183E+00 |   0.316834E-01 |   0.174163E-02 |   0.524152E+01 |   0.100000E-04
   5 |   0.285423E+00 |   0.175309E-01 |   0.500372E-02 |   0.120870E-02 |   0.252453E+01 |   0.100000E-04
   6 |   0.368629E+00 |   0.649264E-02 |   0.239338E-02 |   0.673786E-03 |   0.784490E+00 |   0.100000E-04
   7 |   0.381262E+00 |   0.229707E-02 |   0.875787E-03 |   0.466187E-03 |   0.375546E+00 |   0.100000E-04
   8 |   0.425650E+00 |   0.108242E-02 |   0.460734E-03 |   0.278950E-03 |   0.134461E+00 |   0.100000E-04
   9 |   0.237892E+00 |   0.190553E-02 |   0.453312E-03 |   0.218579E-03 |   0.825586E-01 |   0.100000E-04
  10 |   0.288680E+00 |   0.100906E-02 |   0.291297E-03 |   0.895224E-04 |   0.138487E-01 |   0.100000E-04
  11 |   0.347021E+00 |   0.109742E-03 |   0.380827E-04 |   0.521464E-04 |   0.469886E-02 |   0.100000E-04
  12 |   0.289782E+00 |   0.239159E-04 |   0.693039E-05 |   0.374109E-04 |   0.241847E-02 |   0.100000E-04
  13 |   0.421277E+00 |   0.436375E-05 |   0.183835E-05 |   0.249297E-04 |   0.107394E-02 |   0.100000E-04
  14 |   0.397075E+00 |   0.287757E-05 |   0.114261E-05 |   0.174754E-04 |   0.527715E-03 |   0.100000E-04
  15 |   0.360925E+00 |   0.189050E-05 |   0.682328E-06 |   0.124319E-04 |   0.267064E-03 |   0.100000E-04
  16 |   0.344620E+00 |   0.957711E-06 |   0.330046E-06 |   0.866492E-05 |   0.129740E-03 |   0.100000E-04
  17 |   0.261946E+00 |   0.593070E-06 |   0.155352E-06 |   0.618220E-05 |   0.660436E-04 |   0.100000E-04
  18 |   0.378664E+00 |   0.173933E-06 |   0.658622E-07 |   0.358795E-05 |   0.222452E-04 |   0.100000E-04
  19 |   0.492461E+00 |   0.370889E-07 |   0.182648E-07 |   0.229980E-05 |   0.913954E-05 |   0.100000E-04

 Charges are converged, EXIT

%%%% DENSITY %%%%%%%%%%%%%%%%%%%%%%%%%%%%%%%%%%%%%%%%%%%%%%%%%%%%%%%%%%%%%%%%%%%

 density label              = velectrostatic                                    

 integral of density        =   0.3456658827E-12

%%%% CHARGES %%%%%%%%%%%%%%%%%%%%%%%%%%%%%%%%%%%%%%%%%%%%%%%%%%%%%%%%%%%%%%%%%%%

 total number of charges    =             34

 total charge               =     -1.0000000

%%%% DENSITY %%%%%%%%%%%%%%%%%%%%%%%%%%%%%%%%%%%%%%%%%%%%%%%%%%%%%%%%%%%%%%%%%%%

 density label              = vsoftcavity                                       

 integral of density        =    52.37192574    

%%%% DENSITY %%%%%%%%%%%%%%%%%%%%%%%%%%%%%%%%%%%%%%%%%%%%%%%%%%%%%%%%%%%%%%%%%%%

 density label              = dvtot                                             

 integral of density        =    52.37192574    

%%%% ELECTRONS %%%%%%%%%%%%%%%%%%%%%%%%%%%%%%%%%%%%%%%%%%%%%%%%%%%%%%%%%%%%%%%%%

 number of electrons        =             24

 total electronic charge    =     24.0000000

%%%% ELECTRONS %%%%%%%%%%%%%%%%%%%%%%%%%%%%%%%%%%%%%%%%%%%%%%%%%%%%%%%%%%%%%%%%%

 number of electrons        =             24

 total electronic charge    =     24.0000000

%%%% CHARGES %%%%%%%%%%%%%%%%%%%%%%%%%%%%%%%%%%%%%%%%%%%%%%%%%%%%%%%%%%%%%%%%%%%

 total number of charges    =             34

 total charge               =     -1.0000000

%%%% CHARGES %%%%%%%%%%%%%%%%%%%%%%%%%%%%%%%%%%%%%%%%%%%%%%%%%%%%%%%%%%%%%%%%%%%

 total number of charges    =             34

 total charge               =     -1.0000000

%%%% BOUNDARY %%%%%%%%%%%%%%%%%%%%%%%%%%%%%%%%%%%%%%%%%%%%%%%%%%%%%%%%%%%%%%%%%%

 boundary label             = solvent             
 boundary mode              = electronic          

 boundary is built as a type-2 function of a smooth density

 using the modified SCCS function:
 rhomax                     =      0.0035000
 rhomin                     =      0.0002000

 volume of the QM region    =    662.3646258

 surface of the QM region   =    392.3770863

%%%% DENSITY %%%%%%%%%%%%%%%%%%%%%%%%%%%%%%%%%%%%%%%%%%%%%%%%%%%%%%%%%%%%%%%%%%%

 density label              = vreference                                        

 integral of density        =  -0.5681052336E-12

%%%% COMPUTE ELECTROSTATIC POTENTIAL %%%%%%%%%%%%%%%%%%%%%%%%%%%%%%%%%%%%%%%%%%%

 Warning: Bad guess with residual norm =   0.234504E+04, reset to no guess

   i |      alpha     |       pAp      |      rzold     |    delta_qm    |    delta_en    |       tol
 ---------------------------------------------------------------------------------------------------------
   1 |   0.968220E+00 |   0.965450E+02 |   0.934768E+02 |   0.357366E-01 |   0.220684E+04 |   0.100000E-04
   2 |   0.829213E-01 |   0.384477E+03 |   0.318813E+02 |   0.594081E-02 |   0.609868E+02 |   0.100000E-04
   3 |   0.147999E+00 |   0.230783E+01 |   0.341557E+00 |   0.242448E-02 |   0.101573E+02 |   0.100000E-04
   4 |   0.145075E+00 |   0.174702E+00 |   0.253449E-01 |   0.192958E-02 |   0.643385E+01 |   0.100000E-04
   5 |   0.213362E+00 |   0.272202E-01 |   0.580776E-02 |   0.145921E-02 |   0.367940E+01 |   0.100000E-04
   6 |   0.328888E+00 |   0.775561E-02 |   0.255073E-02 |   0.892329E-03 |   0.137592E+01 |   0.100000E-04
   7 |   0.351271E+00 |   0.324398E-02 |   0.113952E-02 |   0.624885E-03 |   0.674751E+00 |   0.100000E-04
   8 |   0.374624E+00 |   0.156097E-02 |   0.584777E-03 |   0.392056E-03 |   0.265608E+00 |   0.100000E-04
   9 |   0.240737E+00 |   0.236475E-02 |   0.569282E-03 |   0.351252E-03 |   0.213197E+00 |   0.100000E-04
  10 |   0.297299E+00 |   0.159994E-02 |   0.475662E-03 |   0.157696E-03 |   0.429717E-01 |   0.100000E-04
  11 |   0.298526E+00 |   0.383500E-03 |   0.114484E-03 |   0.961418E-04 |   0.159723E-01 |   0.100000E-04
  12 |   0.224135E+00 |   0.148290E-03 |   0.332371E-04 |   0.680503E-04 |   0.800209E-02 |   0.100000E-04
  13 |   0.327533E+00 |   0.185478E-04 |   0.607502E-05 |   0.483730E-04 |   0.404343E-02 |   0.100000E-04
  14 |   0.408470E+00 |   0.660077E-05 |   0.269622E-05 |   0.354938E-04 |   0.217696E-02 |   0.100000E-04
  15 |   0.459247E+00 |   0.326155E-05 |   0.149786E-05 |   0.208069E-04 |   0.748095E-03 |   0.100000E-04
  16 |   0.374608E+00 |   0.227321E-05 |   0.851563E-06 |   0.143541E-04 |   0.356036E-03 |   0.100000E-04
  17 |   0.426326E+00 |   0.568698E-06 |   0.242451E-06 |   0.879379E-05 |   0.133628E-03 |   0.100000E-04
  18 |   0.238048E+00 |   0.452384E-06 |   0.107689E-06 |   0.617807E-05 |   0.659552E-04 |   0.100000E-04
  19 |   0.298505E+00 |   0.207712E-06 |   0.620031E-07 |   0.391541E-05 |   0.264910E-04 |   0.100000E-04
  20 |   0.450181E+00 |   0.329656E-07 |   0.148405E-07 |   0.281252E-05 |   0.136690E-04 |   0.100000E-04
  21 |   0.529722E+00 |   0.143335E-07 |   0.759279E-08 |   0.181654E-05 |   0.570210E-05 |   0.100000E-04

 Charges are converged, EXIT

%%%% DENSITY %%%%%%%%%%%%%%%%%%%%%%%%%%%%%%%%%%%%%%%%%%%%%%%%%%%%%%%%%%%%%%%%%%%

 density label              = velectrostatic                                    

 integral of density        =  -0.8310718369E-12

%%%% CHARGES %%%%%%%%%%%%%%%%%%%%%%%%%%%%%%%%%%%%%%%%%%%%%%%%%%%%%%%%%%%%%%%%%%%

 total number of charges    =             34

 total charge               =     -1.0000000

%%%% DENSITY %%%%%%%%%%%%%%%%%%%%%%%%%%%%%%%%%%%%%%%%%%%%%%%%%%%%%%%%%%%%%%%%%%%

 density label              = vsoftcavity                                       

 integral of density        =    40.76186708    

%%%% DENSITY %%%%%%%%%%%%%%%%%%%%%%%%%%%%%%%%%%%%%%%%%%%%%%%%%%%%%%%%%%%%%%%%%%%

 density label              = dvtot                                             

 integral of density        =    40.76186708    

%%%% ELECTRONS %%%%%%%%%%%%%%%%%%%%%%%%%%%%%%%%%%%%%%%%%%%%%%%%%%%%%%%%%%%%%%%%%

 number of electrons        =             24

 total electronic charge    =     24.0000000

%%%% ELECTRONS %%%%%%%%%%%%%%%%%%%%%%%%%%%%%%%%%%%%%%%%%%%%%%%%%%%%%%%%%%%%%%%%%

 number of electrons        =             24

 total electronic charge    =     24.0000000

%%%% CHARGES %%%%%%%%%%%%%%%%%%%%%%%%%%%%%%%%%%%%%%%%%%%%%%%%%%%%%%%%%%%%%%%%%%%

 total number of charges    =             34

 total charge               =     -1.0000000

%%%% CHARGES %%%%%%%%%%%%%%%%%%%%%%%%%%%%%%%%%%%%%%%%%%%%%%%%%%%%%%%%%%%%%%%%%%%

 total number of charges    =             34

 total charge               =     -1.0000000

%%%% BOUNDARY %%%%%%%%%%%%%%%%%%%%%%%%%%%%%%%%%%%%%%%%%%%%%%%%%%%%%%%%%%%%%%%%%%

 boundary label             = solvent             
 boundary mode              = electronic          

 boundary is built as a type-2 function of a smooth density

 using the modified SCCS function:
 rhomax                     =      0.0035000
 rhomin                     =      0.0002000

 volume of the QM region    =    640.1057640

 surface of the QM region   =    386.0291983

%%%% DENSITY %%%%%%%%%%%%%%%%%%%%%%%%%%%%%%%%%%%%%%%%%%%%%%%%%%%%%%%%%%%%%%%%%%%

 density label              = vreference                                        

 integral of density        =   0.6242907426E-12

%%%% COMPUTE ELECTROSTATIC POTENTIAL %%%%%%%%%%%%%%%%%%%%%%%%%%%%%%%%%%%%%%%%%%%

 Warning: Bad guess with residual norm =   0.341717E+04, reset to no guess

   i |      alpha     |       pAp      |      rzold     |    delta_qm    |    delta_en    |       tol
 ---------------------------------------------------------------------------------------------------------
   1 |   0.967999E+00 |   0.964807E+02 |   0.933933E+02 |   0.431042E-01 |   0.321057E+04 |   0.100000E-04
   2 |   0.772784E-01 |   0.446851E+03 |   0.345320E+02 |   0.704537E-02 |   0.857732E+02 |   0.100000E-04
   3 |   0.136632E+00 |   0.309359E+01 |   0.422683E+00 |   0.267530E-02 |   0.123677E+02 |   0.100000E-04
   4 |   0.136173E+00 |   0.222953E+00 |   0.303603E-01 |   0.215435E-02 |   0.802006E+01 |   0.100000E-04
   5 |   0.191533E+00 |   0.351204E-01 |   0.672672E-02 |   0.164123E-02 |   0.465462E+01 |   0.100000E-04
   6 |   0.308928E+00 |   0.868924E-02 |   0.268435E-02 |   0.106364E-02 |   0.195495E+01 |   0.100000E-04
   7 |   0.330083E+00 |   0.393070E-02 |   0.129746E-02 |   0.788529E-03 |   0.107443E+01 |   0.100000E-04
   8 |   0.295602E+00 |   0.233517E-02 |   0.690282E-03 |   0.517608E-03 |   0.462963E+00 |   0.100000E-04
   9 |   0.226690E+00 |   0.308269E-02 |   0.698815E-03 |   0.485477E-03 |   0.407269E+00 |   0.100000E-04
  10 |   0.376136E+00 |   0.136168E-02 |   0.512176E-03 |   0.232498E-03 |   0.934073E-01 |   0.100000E-04
  11 |   0.292987E+00 |   0.680692E-03 |   0.199434E-03 |   0.145520E-03 |   0.365921E-01 |   0.100000E-04
  12 |   0.219251E+00 |   0.316144E-03 |   0.693147E-04 |   0.104210E-03 |   0.187657E-01 |   0.100000E-04
  13 |   0.297608E+00 |   0.411938E-04 |   0.122596E-04 |   0.767116E-04 |   0.101687E-01 |   0.100000E-04
  14 |   0.382741E+00 |   0.134824E-04 |   0.516028E-05 |   0.598224E-04 |   0.618404E-02 |   0.100000E-04
  15 |   0.473521E+00 |   0.624501E-05 |   0.295715E-05 |   0.346983E-04 |   0.208046E-02 |   0.100000E-04
  16 |   0.378965E+00 |   0.529631E-05 |   0.200711E-05 |   0.239234E-04 |   0.988985E-03 |   0.100000E-04
  17 |   0.427545E+00 |   0.138184E-05 |   0.590798E-06 |   0.149394E-04 |   0.385664E-03 |   0.100000E-04
  18 |   0.423110E+00 |   0.426989E-06 |   0.180663E-06 |   0.822945E-05 |   0.117027E-03 |   0.100000E-04
  19 |   0.265154E+00 |   0.287704E-06 |   0.762859E-07 |   0.604699E-05 |   0.631863E-04 |   0.100000E-04
  20 |   0.229848E+00 |   0.194439E-06 |   0.446914E-07 |   0.468240E-05 |   0.378862E-04 |   0.100000E-04
  21 |   0.434017E+00 |   0.417726E-07 |   0.181300E-07 |   0.321455E-05 |   0.178560E-04 |   0.100000E-04
  22 |   0.604990E+00 |   0.126081E-07 |   0.762776E-08 |   0.163821E-05 |   0.463750E-05 |   0.100000E-04

 Charges are converged, EXIT

%%%% DENSITY %%%%%%%%%%%%%%%%%%%%%%%%%%%%%%%%%%%%%%%%%%%%%%%%%%%%%%%%%%%%%%%%%%%

 density label              = velectrostatic                                    

 integral of density        =   0.1362005159E-11

%%%% CHARGES %%%%%%%%%%%%%%%%%%%%%%%%%%%%%%%%%%%%%%%%%%%%%%%%%%%%%%%%%%%%%%%%%%%

 total number of charges    =             34

 total charge               =     -1.0000000

%%%% DENSITY %%%%%%%%%%%%%%%%%%%%%%%%%%%%%%%%%%%%%%%%%%%%%%%%%%%%%%%%%%%%%%%%%%%

 density label              = vsoftcavity                                       

 integral of density        =    36.20429324    

%%%% DENSITY %%%%%%%%%%%%%%%%%%%%%%%%%%%%%%%%%%%%%%%%%%%%%%%%%%%%%%%%%%%%%%%%%%%

 density label              = dvtot                                             

 integral of density        =    36.20429324    

%%%% ELECTRONS %%%%%%%%%%%%%%%%%%%%%%%%%%%%%%%%%%%%%%%%%%%%%%%%%%%%%%%%%%%%%%%%%

 number of electrons        =             24

 total electronic charge    =     24.0000000

%%%% ELECTRONS %%%%%%%%%%%%%%%%%%%%%%%%%%%%%%%%%%%%%%%%%%%%%%%%%%%%%%%%%%%%%%%%%

 number of electrons        =             24

 total electronic charge    =     24.0000000

%%%% CHARGES %%%%%%%%%%%%%%%%%%%%%%%%%%%%%%%%%%%%%%%%%%%%%%%%%%%%%%%%%%%%%%%%%%%

 total number of charges    =             34

 total charge               =     -1.0000000

%%%% CHARGES %%%%%%%%%%%%%%%%%%%%%%%%%%%%%%%%%%%%%%%%%%%%%%%%%%%%%%%%%%%%%%%%%%%

 total number of charges    =             34

 total charge               =     -1.0000000

%%%% BOUNDARY %%%%%%%%%%%%%%%%%%%%%%%%%%%%%%%%%%%%%%%%%%%%%%%%%%%%%%%%%%%%%%%%%%

 boundary label             = solvent             
 boundary mode              = electronic          

 boundary is built as a type-2 function of a smooth density

 using the modified SCCS function:
 rhomax                     =      0.0035000
 rhomin                     =      0.0002000

 volume of the QM region    =    640.8750131

 surface of the QM region   =    386.4168567

%%%% DENSITY %%%%%%%%%%%%%%%%%%%%%%%%%%%%%%%%%%%%%%%%%%%%%%%%%%%%%%%%%%%%%%%%%%%

 density label              = vreference                                        

 integral of density        =   0.8134398505E-12

%%%% COMPUTE ELECTROSTATIC POTENTIAL %%%%%%%%%%%%%%%%%%%%%%%%%%%%%%%%%%%%%%%%%%%

 Warning: Bad guess with residual norm =   0.346581E+04, reset to no guess

   i |      alpha     |       pAp      |      rzold     |    delta_qm    |    delta_en    |       tol
 ---------------------------------------------------------------------------------------------------------
   1 |   0.967997E+00 |   0.964652E+02 |   0.933780E+02 |   0.434089E-01 |   0.325613E+04 |   0.100000E-04
   2 |   0.773590E-01 |   0.445122E+03 |   0.344342E+02 |   0.727863E-02 |   0.915467E+02 |   0.100000E-04
   3 |   0.137144E+00 |   0.324304E+01 |   0.444762E+00 |   0.269501E-02 |   0.125506E+02 |   0.100000E-04
   4 |   0.137979E+00 |   0.219149E+00 |   0.302379E-01 |   0.216877E-02 |   0.812775E+01 |   0.100000E-04
   5 |   0.188327E+00 |   0.360164E-01 |   0.678287E-02 |   0.165463E-02 |   0.473094E+01 |   0.100000E-04
   6 |   0.306507E+00 |   0.893537E-02 |   0.273875E-02 |   0.107613E-02 |   0.200113E+01 |   0.100000E-04
   7 |   0.331093E+00 |   0.393485E-02 |   0.130280E-02 |   0.798012E-03 |   0.110043E+01 |   0.100000E-04
   8 |   0.308593E+00 |   0.221790E-02 |   0.684428E-03 |   0.524571E-03 |   0.475501E+00 |   0.100000E-04
   9 |   0.224228E+00 |   0.308582E-02 |   0.691927E-03 |   0.497014E-03 |   0.426856E+00 |   0.100000E-04
  10 |   0.363676E+00 |   0.146422E-02 |   0.532503E-03 |   0.236456E-03 |   0.966146E-01 |   0.100000E-04
  11 |   0.295581E+00 |   0.686384E-03 |   0.202882E-03 |   0.147954E-03 |   0.378266E-01 |   0.100000E-04
  12 |   0.219458E+00 |   0.325247E-03 |   0.713782E-04 |   0.105467E-03 |   0.192209E-01 |   0.100000E-04
  13 |   0.295992E+00 |   0.424046E-04 |   0.125514E-04 |   0.777359E-04 |   0.104421E-01 |   0.100000E-04
  14 |   0.379231E+00 |   0.140251E-04 |   0.531873E-05 |   0.610991E-04 |   0.645079E-02 |   0.100000E-04
  15 |   0.475468E+00 |   0.632747E-05 |   0.300851E-05 |   0.355534E-04 |   0.218426E-02 |   0.100000E-04
  16 |   0.381797E+00 |   0.540856E-05 |   0.206497E-05 |   0.244558E-04 |   0.103349E-02 |   0.100000E-04
  17 |   0.422547E+00 |   0.146873E-05 |   0.620608E-06 |   0.153499E-04 |   0.407151E-03 |   0.100000E-04
  18 |   0.342268E+00 |   0.596229E-06 |   0.204070E-06 |   0.952680E-05 |   0.156833E-03 |   0.100000E-04
  19 |   0.194967E+00 |   0.739072E-06 |   0.144095E-06 |   0.673157E-05 |   0.783027E-04 |   0.100000E-04
  20 |   0.350902E+00 |   0.120946E-06 |   0.424401E-07 |   0.482769E-05 |   0.402737E-04 |   0.100000E-04
  21 |   0.474365E+00 |   0.365630E-07 |   0.173442E-07 |   0.328010E-05 |   0.185916E-04 |   0.100000E-04
  22 |   0.613704E+00 |   0.126992E-07 |   0.779357E-08 |   0.168103E-05 |   0.488309E-05 |   0.100000E-04

 Charges are converged, EXIT

%%%% DENSITY %%%%%%%%%%%%%%%%%%%%%%%%%%%%%%%%%%%%%%%%%%%%%%%%%%%%%%%%%%%%%%%%%%%

 density label              = velectrostatic                                    

 integral of density        =  -0.3067834053E-12

%%%% CHARGES %%%%%%%%%%%%%%%%%%%%%%%%%%%%%%%%%%%%%%%%%%%%%%%%%%%%%%%%%%%%%%%%%%%

 total number of charges    =             34

 total charge               =     -1.0000000

%%%% DENSITY %%%%%%%%%%%%%%%%%%%%%%%%%%%%%%%%%%%%%%%%%%%%%%%%%%%%%%%%%%%%%%%%%%%

 density label              = vsoftcavity                                       

 integral of density        =    36.51403195    

%%%% DENSITY %%%%%%%%%%%%%%%%%%%%%%%%%%%%%%%%%%%%%%%%%%%%%%%%%%%%%%%%%%%%%%%%%%%

 density label              = dvtot                                             

 integral of density        =    36.51403195    

%%%% ELECTRONS %%%%%%%%%%%%%%%%%%%%%%%%%%%%%%%%%%%%%%%%%%%%%%%%%%%%%%%%%%%%%%%%%

 number of electrons        =             24

 total electronic charge    =     24.0000000

%%%% ELECTRONS %%%%%%%%%%%%%%%%%%%%%%%%%%%%%%%%%%%%%%%%%%%%%%%%%%%%%%%%%%%%%%%%%

 number of electrons        =             24

 total electronic charge    =     24.0000000

%%%% CHARGES %%%%%%%%%%%%%%%%%%%%%%%%%%%%%%%%%%%%%%%%%%%%%%%%%%%%%%%%%%%%%%%%%%%

 total number of charges    =             34

 total charge               =     -1.0000000

%%%% CHARGES %%%%%%%%%%%%%%%%%%%%%%%%%%%%%%%%%%%%%%%%%%%%%%%%%%%%%%%%%%%%%%%%%%%

 total number of charges    =             34

 total charge               =     -1.0000000

%%%% BOUNDARY %%%%%%%%%%%%%%%%%%%%%%%%%%%%%%%%%%%%%%%%%%%%%%%%%%%%%%%%%%%%%%%%%%

 boundary label             = solvent             
 boundary mode              = electronic          

 boundary is built as a type-2 function of a smooth density

 using the modified SCCS function:
 rhomax                     =      0.0035000
 rhomin                     =      0.0002000

 volume of the QM region    =    640.8750131

 surface of the QM region   =    386.4168567

%%%% DENSITY %%%%%%%%%%%%%%%%%%%%%%%%%%%%%%%%%%%%%%%%%%%%%%%%%%%%%%%%%%%%%%%%%%%

 density label              = dvtot                                             

 integral of density        =    36.51403195    

%%%% DENSITY %%%%%%%%%%%%%%%%%%%%%%%%%%%%%%%%%%%%%%%%%%%%%%%%%%%%%%%%%%%%%%%%%%%

 density label              = vreference                                        

 integral of density        =   0.8134398505E-12

%%%% DENSITY %%%%%%%%%%%%%%%%%%%%%%%%%%%%%%%%%%%%%%%%%%%%%%%%%%%%%%%%%%%%%%%%%%%

 density label              = velectrostatic                                    

 integral of density        =  -0.3067834053E-12

%%%% CHARGES %%%%%%%%%%%%%%%%%%%%%%%%%%%%%%%%%%%%%%%%%%%%%%%%%%%%%%%%%%%%%%%%%%%

 total number of charges    =             34

 total charge               =     -1.0000000

%%%% DENSITY %%%%%%%%%%%%%%%%%%%%%%%%%%%%%%%%%%%%%%%%%%%%%%%%%%%%%%%%%%%%%%%%%%%

 density label              = vsoftcavity                                       

 integral of density        =    36.51403195    
