
     Program PWSCF v.6.7+ starts on 22Apr2021 at 11:26:56 

     This program is part of the open-source Quantum ESPRESSO suite
     for quantum simulation of materials; please cite
         "P. Giannozzi et al., J. Phys.:Condens. Matter 21 395502 (2009);
         "P. Giannozzi et al., J. Phys.:Condens. Matter 29 465901 (2017);
          URL http://www.quantum-espresso.org", 
     in publications or presentations arising from this work. More details at
     http://www.quantum-espresso.org/quote

     Parallel version (MPI), running on     1 processors

     MPI processes distributed on     1 nodes
     Reading input from neutral.in

     Current dimensions of program PWSCF are:
     Max number of different atomic species (ntypx) = 10
     Max number of k-points (npk) =  40000
     Max angular momentum in pseudopotentials (lmaxx) =  3
     file C.pbe-rrkjus.UPF: wavefunction(s)  2S 2P renormalized
     file H.pbe-rrkjus.UPF: wavefunction(s)  1S renormalized
     file N.pbe-rrkjus.UPF: wavefunction(s)  2S renormalized
     file O.pbe-rrkjus.UPF: wavefunction(s)  2S renormalized

     gamma-point specific algorithms are used

     Subspace diagonalization in iterative solution of the eigenvalue problem:
     a serial algorithm will be used


     G-vector sticks info
     --------------------
     sticks:   dense  smooth     PW     G-vecs:    dense   smooth      PW
     Sum        9549    3809    949               701475   177509   22119



     bravais-lattice index     =            1
     lattice parameter (alat)  =      20.0000  a.u.
     unit-cell volume          =    8000.0000 (a.u.)^3
     number of atoms/cell      =            9
     number of atomic types    =            4
     number of electrons       =        24.00
     number of Kohn-Sham states=           12
     kinetic-energy cutoff     =      30.0000  Ry
     charge density cutoff     =     300.0000  Ry
     scf convergence threshold =      1.0E-03
     mixing beta               =       0.7000
     number of iterations used =            8  plain     mixing
     Exchange-correlation= SLA  PW   PBE  PBE
                           (   1   4   3   4   0   0   0)


     Environ Module
     ==============

     Plese cite
         O. Andreussi, I. Dabo and N. Marzari, J. Chem. Phys. 136, 064102 (2012)         
     in publications or presentations arising from this work.

     compensation onset threshold      =               0.1000E+03 
     static permittivity               =                    78.30 
     epsilon calculation mode          =                    ionic 
     surface tension in input (dyn/cm) =                    50.00 
     surface tension in internal units =               0.6423E-04 
     external pressure in input (GPa)  =                    -0.35 
     external pressure in inter. units =              -0.2379E-04 

     Electrostatic Setup
     -------------------
     electrostatic problem to solve    = generalized              
     numerical solver adopted          = cg                       
     type of auxiliary density adopted = none                     
     type of core tool for poisson     = fft                      



     celldm(1)=  20.000000  celldm(2)=   0.000000  celldm(3)=   0.000000
     celldm(4)=   0.000000  celldm(5)=   0.000000  celldm(6)=   0.000000

     crystal axes: (cart. coord. in units of alat)
               a(1) = (   1.000000   0.000000   0.000000 )  
               a(2) = (   0.000000   1.000000   0.000000 )  
               a(3) = (   0.000000   0.000000   1.000000 )  

     reciprocal axes: (cart. coord. in units 2 pi/alat)
               b(1) = (  1.000000  0.000000  0.000000 )  
               b(2) = (  0.000000  1.000000  0.000000 )  
               b(3) = (  0.000000  0.000000  1.000000 )  


     PseudoPot. # 1 for C  read from file:
     /Users/gabrielmedrano/Desktop/q-e/Environ/tests/../..//pseudo/C.pbe-rrkjus.UPF
     MD5 check sum: c9ac5a99bc85b198593446162950cd17
     Pseudo is Ultrasoft, Zval =  4.0
     Generated by new atomic code, or converted to UPF format
     Using radial grid of  627 points,  4 beta functions with: 
                l(1) =   0
                l(2) =   0
                l(3) =   1
                l(4) =   1
     Q(r) pseudized with 0 coefficients 


     PseudoPot. # 2 for H  read from file:
     /Users/gabrielmedrano/Desktop/q-e/Environ/tests/../..//pseudo/H.pbe-rrkjus.UPF
     MD5 check sum: 2d52a7f45632fd764c17cc6affed14c8
     Pseudo is Ultrasoft, Zval =  1.0
     Generated by new atomic code, or converted to UPF format
     Using radial grid of 1061 points,  2 beta functions with: 
                l(1) =   0
                l(2) =   0
     Q(r) pseudized with 0 coefficients 


     PseudoPot. # 3 for N  read from file:
     /Users/gabrielmedrano/Desktop/q-e/Environ/tests/../..//pseudo/N.pbe-rrkjus.UPF
     MD5 check sum: 28c76d763763edb36c62a6ca2be9aebd
     Pseudo is Ultrasoft, Zval =  5.0
     Generated by new atomic code, or converted to UPF format
     Using radial grid of 1257 points,  4 beta functions with: 
                l(1) =   0
                l(2) =   0
                l(3) =   1
                l(4) =   1
     Q(r) pseudized with 0 coefficients 


     PseudoPot. # 4 for O  read from file:
     /Users/gabrielmedrano/Desktop/q-e/Environ/tests/../..//pseudo/O.pbe-rrkjus.UPF
     MD5 check sum: fadcf19ee70a498d3030e2e79cf929a4
     Pseudo is Ultrasoft, Zval =  6.0
     Generated by new atomic code, or converted to UPF format
     Using radial grid of 1269 points,  4 beta functions with: 
                l(1) =   0
                l(2) =   0
                l(3) =   1
                l(4) =   1
     Q(r) pseudized with 0 coefficients 


     atomic species   valence    mass     pseudopotential
        C              4.00    12.00000     C ( 1.00)
        H              1.00     1.00000     H ( 1.00)
        N              5.00    14.00000     N ( 1.00)
        O              6.00    16.00000     O ( 1.00)

     No symmetry found



   Cartesian axes

     site n.     atom                  positions (alat units)
         1           C   tau(   1) = (   0.0000000   0.0000000   0.0000000  )
         2           C   tau(   2) = (   0.0000000   0.0000000   0.1455089  )
         3           N   tau(   3) = (   0.1170969   0.0000000  -0.0545024  )
         4           H   tau(   4) = (   0.0476617  -0.0825466   0.1792090  )
         5           H   tau(   5) = (  -0.0953183  -0.0000030   0.1792090  )
         6           H   tau(   6) = (   0.0476566   0.0825496   0.1792090  )
         7           O   tau(   7) = (  -0.0984002  -0.0000019  -0.0641310  )
         8           H   tau(   8) = (   0.1263131  -0.0000015  -0.1475548  )
         9           H   tau(   9) = (   0.1944645   0.0000134  -0.0025716  )

     number of k points=     1
                       cart. coord. in units 2pi/alat
        k(    1) = (   0.0000000   0.0000000   0.0000000), wk =   2.0000000

     Dense  grid:   350738 G-vectors     FFT dimensions: ( 120, 120, 120)

     Smooth grid:    88755 G-vectors     FFT dimensions: (  72,  72,  72)

     Estimated max dynamical RAM per process >     607.72 MB

     Initial potential from superposition of free atoms

     starting charge   23.51886, renormalised to   24.00000

     negative rho (up, down):  5.411E-04 0.000E+00
     Starting wfcs are   21 randomized atomic wfcs

     total cpu time spent up to now is       36.9 secs

     Self-consistent Calculation

     iteration #  1     ecut=    30.00 Ry     beta= 0.70
     Davidson diagonalization with overlap
     ethr =  1.00E-02,  avg # of iterations =  2.0

     negative rho (up, down):  1.647E-04 0.000E+00

     add environment contribution to local potential
     polarization accuracy = 3.5E-06, # of iterations =  17

     total cpu time spent up to now is       42.7 secs

     total energy              =     -79.60977208 Ry
     estimated scf accuracy    <       2.84608879 Ry
     electrostatic embedding   =       0.00000000 Ry
     cavitation energy         =       0.02739809 Ry
     PV energy                 =      -0.01763538 Ry
     correction to one-el term =      -0.00000000 Ry

     iteration #  2     ecut=    30.00 Ry     beta= 0.70
     Davidson diagonalization with overlap
     ethr =  1.00E-02,  avg # of iterations =  5.0

     negative rho (up, down):  1.297E-03 0.000E+00

     add environment contribution to local potential
     polarization accuracy = 5.5E-06, # of iterations =  16

     total cpu time spent up to now is       48.0 secs

     total energy              =     -80.10566730 Ry
     estimated scf accuracy    <       1.54375462 Ry
     electrostatic embedding   =      -0.03058587 Ry
     cavitation energy         =       0.02739809 Ry
     PV energy                 =      -0.01763538 Ry
     correction to one-el term =      -1.12498177 Ry

     iteration #  3     ecut=    30.00 Ry     beta= 0.70
     Davidson diagonalization with overlap
     ethr =  6.43E-03,  avg # of iterations =  4.0

     negative rho (up, down):  2.576E-04 0.000E+00

     add environment contribution to local potential
     polarization accuracy = 6.2E-06, # of iterations =  16

     total cpu time spent up to now is       53.1 secs

     total energy              =     -80.45349679 Ry
     estimated scf accuracy    <       0.13804457 Ry
     electrostatic embedding   =      -0.04671074 Ry
     cavitation energy         =       0.02739809 Ry
     PV energy                 =      -0.01763538 Ry
     correction to one-el term =      -0.59910087 Ry

     iteration #  4     ecut=    30.00 Ry     beta= 0.70
     Davidson diagonalization with overlap
     ethr =  5.75E-04,  avg # of iterations =  4.0

     negative rho (up, down):  1.826E-04 0.000E+00

     add environment contribution to local potential
     polarization accuracy = 5.9E-06, # of iterations =  16

     total cpu time spent up to now is       58.1 secs

     total energy              =     -80.49418831 Ry
     estimated scf accuracy    <       0.02213543 Ry
     electrostatic embedding   =      -0.03825712 Ry
     cavitation energy         =       0.02739809 Ry
     PV energy                 =      -0.01763538 Ry
     correction to one-el term =      -0.26549553 Ry

     iteration #  5     ecut=    30.00 Ry     beta= 0.70
     Davidson diagonalization with overlap
     ethr =  9.22E-05,  avg # of iterations =  2.0

     negative rho (up, down):  9.709E-05 0.000E+00

     add environment contribution to local potential
     polarization accuracy = 5.9E-06, # of iterations =  16

     total cpu time spent up to now is       63.1 secs

     total energy              =     -80.49948497 Ry
     estimated scf accuracy    <       0.00169632 Ry
     electrostatic embedding   =      -0.04568045 Ry
     cavitation energy         =       0.02739809 Ry
     PV energy                 =      -0.01763538 Ry
     correction to one-el term =       0.06732269 Ry

     iteration #  6     ecut=    30.00 Ry     beta= 0.70
     Davidson diagonalization with overlap
     ethr =  7.07E-06,  avg # of iterations =  2.0

     negative rho (up, down):  2.267E-04 0.000E+00

     the potential shift due to the Gaussian-smeared nuclei is    -0.0641 ev

     total cpu time spent up to now is       65.4 secs

     End of self-consistent calculation

          k = 0.0000 0.0000 0.0000 ( 11060 PWs)   bands (ev):

   -25.5923 -22.2349 -17.7513 -14.2736 -12.9040 -11.1456 -10.5436  -9.5476
    -9.2298  -8.6430  -6.3219  -5.7848

     highest occupied level (ev):    -5.7848

!    total energy              =     -80.50006775 Ry
     estimated scf accuracy    <       0.00025053 Ry

     The total energy is the sum of the following terms:
     one-electron contribution =    -236.18723294 Ry
     hartree contribution      =     121.55136739 Ry
     xc contribution           =     -22.69532182 Ry
     ewald contribution        =      56.74764075 Ry
     electrostatic embedding   =      -0.04704498 Ry
     cavitation energy         =       0.02739809 Ry
     PV energy                 =      -0.01763538 Ry
     correction to one-el term =       0.12076114 Ry

     convergence has been achieved in   6 iterations
 forces lc
       1    0.1184    0.0000    0.0591
       2    0.0701    0.0000    0.0413
       3    0.1365    0.0000    0.0161
       4    0.0170   -0.0048    0.0045
       5    0.0065    0.0000    0.0173
       6    0.0170    0.0048    0.0045
       7    0.2149    0.0000    0.1126
       8    0.0280    0.0000   -0.0169
       9    0.0279    0.0000    0.0121

     Forces acting on atoms (cartesian axes, Ry/au):

     atom    1 type  1   force =     0.02939376    0.00000896    0.01348325
     atom    2 type  1   force =    -0.00771028   -0.00000017   -0.06319433
     atom    3 type  3   force =    -0.07130990   -0.00000179    0.03233360
     atom    4 type  2   force =     0.02091303   -0.02942198    0.01369906
     atom    5 type  2   force =    -0.03135052   -0.00000221    0.00881244
     atom    6 type  2   force =     0.02090719    0.02941653    0.01369815
     atom    7 type  4   force =    -0.00411992    0.00000210   -0.00106801
     atom    8 type  2   force =     0.00146273   -0.00000139   -0.04628781
     atom    9 type  2   force =     0.04181391   -0.00000004    0.02852365

     Total force =     0.141405     Total SCF correction =     0.018138
     SCF correction compared to forces is large: reduce conv_thr to get better values

     Writing output data file /Users/gabrielmedrano/Desktop/q-e/Environ/tests/../..//tempdir/pwscf.save/

     init_run     :     35.45s CPU     36.77s WALL (       1 calls)
     electrons    :     29.94s CPU     28.56s WALL (       1 calls)
     forces       :     13.04s CPU     13.32s WALL (       1 calls)

     Called by init_run:
     wfcinit      :      0.16s CPU      0.16s WALL (       1 calls)
     potinit      :      1.13s CPU      1.21s WALL (       1 calls)
     hinit0       :     33.48s CPU     34.48s WALL (       1 calls)

     Called by electrons:
     c_bands      :      1.32s CPU      1.11s WALL (       6 calls)
     sum_band     :      7.98s CPU      4.54s WALL (       6 calls)
     v_of_rho     :      4.07s CPU      4.65s WALL (       7 calls)
     newd         :      2.63s CPU      3.68s WALL (       7 calls)
     mix_rho      :      0.41s CPU      0.46s WALL (       6 calls)

     Called by c_bands:
     init_us_2    :      0.05s CPU      0.05s WALL (      13 calls)
     regterg      :      1.25s CPU      1.04s WALL (       6 calls)

     Called by *egterg:
     rdiaghg      :      0.00s CPU      0.00s WALL (      25 calls)
     h_psi        :      1.18s CPU      1.09s WALL (      26 calls)
     s_psi        :      0.07s CPU      0.01s WALL (      26 calls)
     g_psi        :      0.01s CPU      0.01s WALL (      19 calls)

     Called by h_psi:
     h_psi:calbec :      0.03s CPU      0.03s WALL (      26 calls)
     vloc_psi     :      1.00s CPU      1.01s WALL (      26 calls)
     add_vuspsi   :      0.14s CPU      0.05s WALL (      26 calls)

     General routines
     calbec       :      0.04s CPU      0.04s WALL (      36 calls)
     fft          :     11.54s CPU     12.03s WALL (     290 calls)
     ffts         :      0.07s CPU      0.07s WALL (      13 calls)
     fftw         :      0.89s CPU      0.90s WALL (     278 calls)
     interpolate  :      0.32s CPU      0.36s WALL (       7 calls)

     Parallel routines
     fft_scatt_xy :      0.94s CPU      0.94s WALL (     209 calls)
     fft_scatt_yz :      1.25s CPU      1.25s WALL (     209 calls)

     Environ routines
     calc_eelect  :      0.03s CPU      0.03s WALL (      12 calls)
     calc_velect  :     11.70s CPU     12.36s WALL (      10 calls)
     dielectric   :      0.12s CPU      0.13s WALL (       2 calls)
     calc_felect  :      0.31s CPU      0.33s WALL (       1 calls)

     PWSCF        :   1m18.52s CPU   1m18.85s WALL


   This run was terminated on:  11:28:15  22Apr2021            

=------------------------------------------------------------------------------=
   JOB DONE.
=------------------------------------------------------------------------------=
 Calling electrostatic_initbase now
 electrolyte_distance:    0.0000000000000000     
 sc_distance:    0.0000000000000000     
 velectrostatic started
 vreference created

%%%% IONS %%%%%%%%%%%%%%%%%%%%%%%%%%%%%%%%%%%%%%%%%%%%%%%%%%%%%%%%%%%%%%%%%%%%%%
 number of ions             =          9
 ionic center of charge     =      0.0131609     0.0000000     0.0130099
 total ionic charge         =    -24.0000000
 ionic dipole               =      0.0000000     0.0000000     0.0000000
 ionic quadrupole (pc)      =    -75.9587425    -5.4513517   -95.3140140
 ionic quadrupole (gauss)   =    -78.9587425    -8.4513517   -98.3140140
 ion   1 type =  1 coordinates =      0.0000000     0.0000000     0.0000000
 ion   2 type =  1 coordinates =      0.0000000     0.0000000     2.9101782
 ion   3 type =  3 coordinates =      2.3419379     0.0000000    -1.0900479
 ion   4 type =  2 coordinates =      0.9532347    -1.6509323     3.5841800
 ion   5 type =  2 coordinates =     -1.9063663    -0.0000596     3.5841809
 ion   6 type =  2 coordinates =      0.9531315     1.6509919     3.5841800
 ion   7 type =  4 coordinates =     -1.9680045    -0.0000375    -1.2826193
 ion   8 type =  2 coordinates =      2.5262613    -0.0000303    -2.9510950
 ion   9 type =  2 coordinates =      3.8892907     0.0002681    -0.0514326

%%%% SYSTEM %%%%%%%%%%%%%%%%%%%%%%%%%%%%%%%%%%%%%%%%%%%%%%%%%%%%%%%%%%%%%%%%%%%%
 system is built from all present ionic types
 system defined dimension   =  0 
 system defined axis        =  3 
 system center              =      0.0131609     0.0000000     0.0130099 
 system width               =      0.1984688 

%%%% IONS %%%%%%%%%%%%%%%%%%%%%%%%%%%%%%%%%%%%%%%%%%%%%%%%%%%%%%%%%%%%%%%%%%%%%%
 number of ions             =          9
 ionic center of charge     =      0.0131609     0.0000000     0.0130099
 total ionic charge         =    -24.0000000
 ionic dipole               =      0.0000000     0.0000000     0.0000000
 ionic quadrupole (pc)      =    -75.9587425    -5.4513517   -95.3140140
 ionic quadrupole (gauss)   =    -78.9587425    -8.4513517   -98.3140140
 ion   1 type =  1 coordinates =      0.0000000     0.0000000     0.0000000
 ion   2 type =  1 coordinates =      0.0000000     0.0000000     2.9101782
 ion   3 type =  3 coordinates =      2.3419379     0.0000000    -1.0900479
 ion   4 type =  2 coordinates =      0.9532347    -1.6509323     3.5841800
 ion   5 type =  2 coordinates =     -1.9063663    -0.0000596     3.5841809
 ion   6 type =  2 coordinates =      0.9531315     1.6509919     3.5841800
 ion   7 type =  4 coordinates =     -1.9680045    -0.0000375    -1.2826193
 ion   8 type =  2 coordinates =      2.5262613    -0.0000303    -2.9510950
 ion   9 type =  2 coordinates =      3.8892907     0.0002681    -0.0514326

%%%% SYSTEM %%%%%%%%%%%%%%%%%%%%%%%%%%%%%%%%%%%%%%%%%%%%%%%%%%%%%%%%%%%%%%%%%%%%
 system is built from all present ionic types
 system defined dimension   =  0 
 system defined axis        =  3 
 system center              =      0.0131609     0.0000000     0.0130099 
 system width               =      0.1984688 

%%%% BOUNDARY %%%%%%%%%%%%%%%%%%%%%%%%%%%%%%%%%%%%%%%%%%%%%%%%%%%%%%%%%%%%%%%%%%
 boundary label             = solvent              
 boundary mode              = ionic                
 boundary is built from soft-spheres centered on ionic positions
 solvent-dependent scaling  =      1.1200000 
 softness parameter         =      0.5000000 
 volume of the QM region    =    741.2152834 
 surface of the QM region   =    426.5589273 

%%%% DIELECTRIC %%%%%%%%%%%%%%%%%%%%%%%%%%%%%%%%%%%%%%%%%%%%%%%%%%%%%%%%%%%%%%%%%
 dielectric build on homogeneous background
 environment bulk permitt.  =     78.3000000 
 dielectric flags
 need gradient              =  F 
 need factor depend. sqrt   =  T 
 total dielectric charge    =      0.0000000

%%%% ELECTRONS %%%%%%%%%%%%%%%%%%%%%%%%%%%%%%%%%%%%%%%%%%%%%%%%%%%%%%%%%%%%%%%%%
 number of electrons        =         24
 total electronic charge    =     24.0000000

%%%% ELECTRONS %%%%%%%%%%%%%%%%%%%%%%%%%%%%%%%%%%%%%%%%%%%%%%%%%%%%%%%%%%%%%%%%%
 number of electrons        =         24
 total electronic charge    =     24.0000000

%%%% DENSITY %%%%%%%%%%%%%%%%%%%%%%%%%%%%%%%%%%%%%%%%%%%%%%%%%%%%%%%%%%%%%%%%%%%
 density label              = dvtot                                                                           
 integral of density        =      0.000000000    

%%%% DENSITY %%%%%%%%%%%%%%%%%%%%%%%%%%%%%%%%%%%%%%%%%%%%%%%%%%%%%%%%%%%%%%%%%%%
 density label              = vreference                                                                      
 integral of density        =      0.000000000    

%%%% DENSITY %%%%%%%%%%%%%%%%%%%%%%%%%%%%%%%%%%%%%%%%%%%%%%%%%%%%%%%%%%%%%%%%%%%
 density label              = velectrostatic                                                                  
 integral of density        =      0.000000000    

%%%% CHARGES %%%%%%%%%%%%%%%%%%%%%%%%%%%%%%%%%%%%%%%%%%%%%%%%%%%%%%%%%%%%%%%%%%%
 total number of charges    =         33
 total charge               =     -0.0000000

%%%% ELECTRONS %%%%%%%%%%%%%%%%%%%%%%%%%%%%%%%%%%%%%%%%%%%%%%%%%%%%%%%%%%%%%%%%%
 number of electrons        =         24
 total electronic charge    =     24.0000000

%%%% ELECTRONS %%%%%%%%%%%%%%%%%%%%%%%%%%%%%%%%%%%%%%%%%%%%%%%%%%%%%%%%%%%%%%%%%
 number of electrons        =         24
 total electronic charge    =     24.0000000

%%%% DENSITY %%%%%%%%%%%%%%%%%%%%%%%%%%%%%%%%%%%%%%%%%%%%%%%%%%%%%%%%%%%%%%%%%%%
 density label              = vreference                                                                      
 integral of density        =    -0.1058305706E-11

%%%% COMPUTE ELECTROSTATIC POTENTIAL %%%%%%%%%%%%%%%%%%%%%%%%%%%%%%%%%%%%%%%%%%%
 Iteration #          1
  pAp =    90.002406278012444       rzold =    89.500140401641261       alpha =   0.99441941724513772     
 delta_qm =   0.840382E-02 delta_en =   0.122039E+03 tol =   0.100000E-04
 Iteration #          2
  pAp =    40.027347089052093       rzold =    4.0529560716773281       alpha =   0.10125467627570689     
 delta_qm =   0.240885E-02 delta_en =   0.100268E+02 tol =   0.100000E-04
 Iteration #          3
  pAp =   0.57554752150462463       rzold =   0.11545785910039723       alpha =   0.20060525810025490     
 delta_qm =   0.103805E-02 delta_en =   0.186202E+01 tol =   0.100000E-04
 Iteration #          4
  pAp =    5.4533445891250670E-002  rzold =    9.6497254956909341E-003  alpha =   0.17695059129280391     
 delta_qm =   0.851919E-03 delta_en =   0.125412E+01 tol =   0.100000E-04
 Iteration #          5
  pAp =    5.7439858661651908E-003  rzold =    1.8044541636157896E-003  alpha =   0.31414669284701463     
 delta_qm =   0.615109E-03 delta_en =   0.653804E+00 tol =   0.100000E-04
 Iteration #          6
  pAp =    3.1194341537200171E-003  rzold =    1.2590525883716122E-003  alpha =   0.40361569641409317     
 delta_qm =   0.337434E-03 delta_en =   0.196753E+00 tol =   0.100000E-04
 Iteration #          7
  pAp =    2.1358909960961475E-003  rzold =    6.8203246822268562E-004  alpha =   0.31931988545729317     
 delta_qm =   0.216487E-03 delta_en =   0.809852E-01 tol =   0.100000E-04
 Iteration #          8
  pAp =    1.6951844866489971E-003  rzold =    3.5388117423930398E-004  alpha =   0.20875673239486070     
 delta_qm =   0.172966E-03 delta_en =   0.516971E-01 tol =   0.100000E-04
 Iteration #          9
  pAp =    3.3014832306413832E-004  rzold =    1.6085580633736678E-004  alpha =   0.48722284833813051     
 delta_qm =   0.805262E-04 delta_en =   0.112052E-01 tol =   0.100000E-04
 Iteration #         10
  pAp =    1.5515526783100745E-004  rzold =    4.6712889920630781E-005  alpha =   0.30107189123291439     
 delta_qm =   0.398284E-04 delta_en =   0.274113E-02 tol =   0.100000E-04
 Iteration #         11
  pAp =    2.2873090257903412E-005  rzold =    8.0431828430563396E-006  alpha =   0.35164390785705718     
 delta_qm =   0.286506E-04 delta_en =   0.141845E-02 tol =   0.100000E-04
 Iteration #         12
  pAp =    3.4932298685938863E-006  rzold =    1.6476067687016259E-006  alpha =   0.47165712841131446     
 delta_qm =   0.177242E-04 delta_en =   0.542846E-03 tol =   0.100000E-04
 Iteration #         13
  pAp =    2.0480858377069313E-006  rzold =    9.9888674688251502E-007  alpha =   0.48771722771194209     
 delta_qm =   0.854617E-05 delta_en =   0.126208E-03 tol =   0.100000E-04
 Iteration #         14
  pAp =    1.6016048256166130E-006  rzold =    4.8083782046954614E-007  alpha =   0.30022250980945009     
 delta_qm =   0.580694E-05 delta_en =   0.582692E-04 tol =   0.100000E-04
 Iteration #         15
  pAp =    4.4489611007720842E-007  rzold =    1.3516127770671154E-007  alpha =   0.30380413459505257     
 delta_qm =   0.389739E-05 delta_en =   0.262477E-04 tol =   0.100000E-04
 Iteration #         16
  pAp =    1.5712373593361532E-007  rzold =    4.4796216219180643E-008  alpha =   0.28510152175930326     
 delta_qm =   0.262364E-05 delta_en =   0.118947E-04 tol =   0.100000E-04
 Iteration #         17
  pAp =    6.0892962123084511E-008  rzold =    2.2719623136822982E-008  alpha =   0.37310753730290247     
 delta_qm =   0.141938E-05 delta_en =   0.348129E-05 tol =   0.100000E-04
 Charges are converged, EXIT

%%%% DENSITY %%%%%%%%%%%%%%%%%%%%%%%%%%%%%%%%%%%%%%%%%%%%%%%%%%%%%%%%%%%%%%%%%%%
 density label              = velectrostatic                                                                  
 integral of density        =    -0.5633312746E-11

%%%% CHARGES %%%%%%%%%%%%%%%%%%%%%%%%%%%%%%%%%%%%%%%%%%%%%%%%%%%%%%%%%%%%%%%%%%%
 total number of charges    =         33
 total charge               =     -0.0000000

%%%% DENSITY %%%%%%%%%%%%%%%%%%%%%%%%%%%%%%%%%%%%%%%%%%%%%%%%%%%%%%%%%%%%%%%%%%%
 density label              = dvtot                                                                           
 integral of density        =    -0.5371804082E-11

%%%% ELECTRONS %%%%%%%%%%%%%%%%%%%%%%%%%%%%%%%%%%%%%%%%%%%%%%%%%%%%%%%%%%%%%%%%%
 number of electrons        =         24
 total electronic charge    =     24.0000000

%%%% ELECTRONS %%%%%%%%%%%%%%%%%%%%%%%%%%%%%%%%%%%%%%%%%%%%%%%%%%%%%%%%%%%%%%%%%
 number of electrons        =         24
 total electronic charge    =     24.0000000

%%%% DENSITY %%%%%%%%%%%%%%%%%%%%%%%%%%%%%%%%%%%%%%%%%%%%%%%%%%%%%%%%%%%%%%%%%%%
 density label              = vreference                                                                      
 integral of density        =     0.1737392123E-11

%%%% COMPUTE ELECTROSTATIC POTENTIAL %%%%%%%%%%%%%%%%%%%%%%%%%%%%%%%%%%%%%%%%%%%
 Warning: bad guess with residual norm =   0.208812E+03, reset to no guess
 Iteration #          1
  pAp =    92.022893845260427       rzold =    91.241736243510999       alpha =   0.99151126889072871     
 delta_qm =   0.109153E-01 delta_en =   0.205879E+03 tol =   0.100000E-04
 Iteration #          2
  pAp =    55.854995637066949       rzold =    6.0671470222624668       alpha =   0.10862317601249864     
 delta_qm =   0.240685E-02 delta_en =   0.100102E+02 tol =   0.100000E-04
 Iteration #          3
  pAp =   0.94617564106689978       rzold =   0.13198653690333914       alpha =   0.13949475253295701     
 delta_qm =   0.106834E-02 delta_en =   0.197224E+01 tol =   0.100000E-04
 Iteration #          4
  pAp =    7.9095590188623680E-002  rzold =    1.4346283758047668E-002  alpha =   0.18137905948783342     
 delta_qm =   0.924258E-03 delta_en =   0.147615E+01 tol =   0.100000E-04
 Iteration #          5
  pAp =    7.0995385925113758E-003  rzold =    2.2700237045843144E-003  alpha =   0.31974242762462696     
 delta_qm =   0.653371E-03 delta_en =   0.737672E+00 tol =   0.100000E-04
 Iteration #          6
  pAp =    3.0332799574195666E-003  rzold =    1.3189794393039357E-003  alpha =   0.43483603815653110     
 delta_qm =   0.383792E-03 delta_en =   0.254528E+00 tol =   0.100000E-04
 Iteration #          7
  pAp =    4.9071051677297313E-003  rzold =    1.0597379560097759E-003  alpha =   0.21595990299512227     
 delta_qm =   0.267172E-03 delta_en =   0.123346E+00 tol =   0.100000E-04
 Iteration #          8
  pAp =    1.3840001619938726E-003  rzold =    4.5424327177396819E-004  alpha =   0.32821041806784074     
 delta_qm =   0.185063E-03 delta_en =   0.591808E-01 tol =   0.100000E-04
 Iteration #          9
  pAp =    2.8467592717047659E-004  rzold =    1.4767303981158726E-004  alpha =   0.51874087591239870     
 delta_qm =   0.746608E-04 delta_en =   0.963228E-02 tol =   0.100000E-04
 Iteration #         10
  pAp =    1.9827009123748828E-004  rzold =    5.8650795462562650E-005  alpha =   0.29581262154315863     
 delta_qm =   0.456636E-04 delta_en =   0.360317E-02 tol =   0.100000E-04
 Iteration #         11
  pAp =    2.4300339133298447E-005  rzold =    8.5923733040449468E-006  alpha =   0.35359067447214865     
 delta_qm =   0.308521E-04 delta_en =   0.164481E-02 tol =   0.100000E-04
 Iteration #         12
  pAp =    4.9664233448768963E-006  rzold =    2.0869085438816411E-006  alpha =   0.42020351447372833     
 delta_qm =   0.201459E-04 delta_en =   0.701324E-03 tol =   0.100000E-04
 Iteration #         13
  pAp =    3.0632404054638222E-006  rzold =    1.3009116481669445E-006  alpha =   0.42468480301008771     
 delta_qm =   0.106993E-04 delta_en =   0.197812E-03 tol =   0.100000E-04
 Iteration #         14
  pAp =    1.3677950568685479E-006  rzold =    5.5732449861133584E-007  alpha =   0.40746199206720601     
 delta_qm =   0.560407E-05 delta_en =   0.542688E-04 tol =   0.100000E-04
 Iteration #         15
  pAp =    3.1796087561897088E-007  rzold =    1.2540646376454900E-007  alpha =   0.39440847406279667     
 delta_qm =   0.360369E-05 delta_en =   0.224408E-04 tol =   0.100000E-04
 Iteration #         16
  pAp =    4.0645150242360709E-008  rzold =    2.3729078493717693E-008  alpha =   0.58381082004187190     
 delta_qm =   0.178202E-05 delta_en =   0.548743E-05 tol =   0.100000E-04
 Charges are converged, EXIT

%%%% DENSITY %%%%%%%%%%%%%%%%%%%%%%%%%%%%%%%%%%%%%%%%%%%%%%%%%%%%%%%%%%%%%%%%%%%
 density label              = velectrostatic                                                                  
 integral of density        =    -0.2489736812E-11

%%%% CHARGES %%%%%%%%%%%%%%%%%%%%%%%%%%%%%%%%%%%%%%%%%%%%%%%%%%%%%%%%%%%%%%%%%%%
 total number of charges    =         33
 total charge               =     -0.0000000

%%%% DENSITY %%%%%%%%%%%%%%%%%%%%%%%%%%%%%%%%%%%%%%%%%%%%%%%%%%%%%%%%%%%%%%%%%%%
 density label              = dvtot                                                                           
 integral of density        =    -0.1260583459E-11

%%%% ELECTRONS %%%%%%%%%%%%%%%%%%%%%%%%%%%%%%%%%%%%%%%%%%%%%%%%%%%%%%%%%%%%%%%%%
 number of electrons        =         24
 total electronic charge    =     24.0000000

%%%% ELECTRONS %%%%%%%%%%%%%%%%%%%%%%%%%%%%%%%%%%%%%%%%%%%%%%%%%%%%%%%%%%%%%%%%%
 number of electrons        =         24
 total electronic charge    =     24.0000000

%%%% DENSITY %%%%%%%%%%%%%%%%%%%%%%%%%%%%%%%%%%%%%%%%%%%%%%%%%%%%%%%%%%%%%%%%%%%
 density label              = vreference                                                                      
 integral of density        =    -0.3850648195E-11

%%%% COMPUTE ELECTROSTATIC POTENTIAL %%%%%%%%%%%%%%%%%%%%%%%%%%%%%%%%%%%%%%%%%%%
 Warning: bad guess with residual norm =   0.145288E+03, reset to no guess
 Iteration #          1
  pAp =    92.940747338353987       rzold =    92.391032475001978       alpha =   0.99408531909743791     
 delta_qm =   0.912430E-02 delta_en =   0.143861E+03 tol =   0.100000E-04
 Iteration #          2
  pAp =    37.335642870537555       rzold =    4.1482036025310443       alpha =   0.11110572320704541     
 delta_qm =   0.221668E-02 delta_en =   0.849079E+01 tol =   0.100000E-04
 Iteration #          3
  pAp =   0.69221939228077378       rzold =   0.10003014349879122       alpha =   0.14450641604998204     
 delta_qm =   0.988255E-03 delta_en =   0.168765E+01 tol =   0.100000E-04
 Iteration #          4
  pAp =    7.6194610619155542E-002  rzold =    1.3539146828629152E-002  alpha =   0.17769165979864424     
 delta_qm =   0.886489E-03 delta_en =   0.135797E+01 tol =   0.100000E-04
 Iteration #          5
  pAp =    6.0919603266336173E-003  rzold =    1.9899543923925108E-003  alpha =   0.32665255282319744     
 delta_qm =   0.634055E-03 delta_en =   0.694701E+00 tol =   0.100000E-04
 Iteration #          6
  pAp =    2.4371837592399438E-003  rzold =    1.2052002448727102E-003  alpha =   0.49450528311765957     
 delta_qm =   0.348269E-03 delta_en =   0.209591E+00 tol =   0.100000E-04
 Iteration #          7
  pAp =    3.3777722799570096E-003  rzold =    8.3120013480658889E-004  alpha =   0.24607938780798091     
 delta_qm =   0.244443E-03 delta_en =   0.103252E+00 tol =   0.100000E-04
 Iteration #          8
  pAp =    1.8890041765983268E-003  rzold =    4.7763398517207113E-004  alpha =   0.25284961838050718     
 delta_qm =   0.174620E-03 delta_en =   0.526907E-01 tol =   0.100000E-04
 Iteration #          9
  pAp =    2.9265762045941972E-004  rzold =    1.3706108632240553E-004  alpha =   0.46833253857269913     
 delta_qm =   0.758938E-04 delta_en =   0.995306E-02 tol =   0.100000E-04
 Iteration #         10
  pAp =    1.6819752414528021E-004  rzold =    5.3009814909988387E-005  alpha =   0.31516406189309470     
 delta_qm =   0.453600E-04 delta_en =   0.355541E-02 tol =   0.100000E-04
 Iteration #         11
  pAp =    2.4465924212641470E-005  rzold =    8.3641943734435117E-006  alpha =   0.34187117971704323     
 delta_qm =   0.303162E-04 delta_en =   0.158816E-02 tol =   0.100000E-04
 Iteration #         12
  pAp =    4.5711247860129936E-006  rzold =    2.0259669423736189E-006  alpha =   0.44320972128627861     
 delta_qm =   0.196953E-04 delta_en =   0.670301E-03 tol =   0.100000E-04
 Iteration #         13
  pAp =    3.0578764102465837E-006  rzold =    1.2611971260682665E-006  alpha =   0.41244215163246734     
 delta_qm =   0.106770E-04 delta_en =   0.196988E-03 tol =   0.100000E-04
 Iteration #         14
  pAp =    1.4496660994438690E-006  rzold =    5.7577638271778995E-007  alpha =   0.39717862129677539     
 delta_qm =   0.541995E-05 delta_en =   0.507614E-04 tol =   0.100000E-04
 Iteration #         15
  pAp =    2.9529201220842854E-007  rzold =    1.1760358344747797E-007  alpha =   0.39826198672949137     
 delta_qm =   0.350560E-05 delta_en =   0.212358E-04 tol =   0.100000E-04
 Iteration #         16
  pAp =    4.3524454295395301E-008  rzold =    2.3089874830439479E-008  alpha =   0.53050348830869287     
 delta_qm =   0.189151E-05 delta_en =   0.618243E-05 tol =   0.100000E-04
 Charges are converged, EXIT

%%%% DENSITY %%%%%%%%%%%%%%%%%%%%%%%%%%%%%%%%%%%%%%%%%%%%%%%%%%%%%%%%%%%%%%%%%%%
 density label              = velectrostatic                                                                  
 integral of density        =    -0.6061817714E-12

%%%% CHARGES %%%%%%%%%%%%%%%%%%%%%%%%%%%%%%%%%%%%%%%%%%%%%%%%%%%%%%%%%%%%%%%%%%%
 total number of charges    =         33
 total charge               =      0.0000000

%%%% DENSITY %%%%%%%%%%%%%%%%%%%%%%%%%%%%%%%%%%%%%%%%%%%%%%%%%%%%%%%%%%%%%%%%%%%
 density label              = dvtot                                                                           
 integral of density        =     0.2400395212E-11

%%%% ELECTRONS %%%%%%%%%%%%%%%%%%%%%%%%%%%%%%%%%%%%%%%%%%%%%%%%%%%%%%%%%%%%%%%%%
 number of electrons        =         24
 total electronic charge    =     24.0000000

%%%% ELECTRONS %%%%%%%%%%%%%%%%%%%%%%%%%%%%%%%%%%%%%%%%%%%%%%%%%%%%%%%%%%%%%%%%%
 number of electrons        =         24
 total electronic charge    =     24.0000000

%%%% DENSITY %%%%%%%%%%%%%%%%%%%%%%%%%%%%%%%%%%%%%%%%%%%%%%%%%%%%%%%%%%%%%%%%%%%
 density label              = vreference                                                                      
 integral of density        =    -0.5109040762E-11

%%%% COMPUTE ELECTROSTATIC POTENTIAL %%%%%%%%%%%%%%%%%%%%%%%%%%%%%%%%%%%%%%%%%%%
 Warning: bad guess with residual norm =   0.157724E+03, reset to no guess
 Iteration #          1
  pAp =    92.841883414405459       rzold =    92.246273195985097       alpha =   0.99358468186430671     
 delta_qm =   0.950246E-02 delta_en =   0.156033E+03 tol =   0.100000E-04
 Iteration #          2
  pAp =    37.260903546418035       rzold =    4.3071167692883989       alpha =   0.11559346015114147     
 delta_qm =   0.218525E-02 delta_en =   0.825174E+01 tol =   0.100000E-04
 Iteration #          3
  pAp =   0.63930291389703742       rzold =    9.6379321752514652E-002  alpha =   0.15075689420060578     
 delta_qm =   0.912369E-03 delta_en =   0.143842E+01 tol =   0.100000E-04
 Iteration #          4
  pAp =    8.9575634223688819E-002  rzold =    1.4738588523846475E-002  alpha =   0.16453791984370641     
 delta_qm =   0.873093E-03 delta_en =   0.131724E+01 tol =   0.100000E-04
 Iteration #          5
  pAp =    7.2487581399223238E-003  rzold =    2.1963053550048796E-003  alpha =   0.30299056922713313     
 delta_qm =   0.625321E-03 delta_en =   0.675693E+00 tol =   0.100000E-04
 Iteration #          6
  pAp =    2.1315305226566805E-003  rzold =    1.1090729406615688E-003  alpha =   0.52031764446856299     
 delta_qm =   0.361313E-03 delta_en =   0.225585E+00 tol =   0.100000E-04
 Iteration #          7
  pAp =    2.9002408469463682E-003  rzold =    7.9955615246053474E-004  alpha =   0.27568612217236327     
 delta_qm =   0.245886E-03 delta_en =   0.104474E+00 tol =   0.100000E-04
 Iteration #          8
  pAp =    2.1607666744075191E-003  rzold =    4.8738637913001484E-004  alpha =   0.22556178087282650     
 delta_qm =   0.180329E-03 delta_en =   0.561921E-01 tol =   0.100000E-04
 Iteration #          9
  pAp =    3.5052498557152793E-004  rzold =    1.4827326640550601E-004  alpha =   0.42300341632921756     
 delta_qm =   0.856708E-04 delta_en =   0.126826E-01 tol =   0.100000E-04
 Iteration #         10
  pAp =    1.8044132911927213E-004  rzold =    6.1268012725279920E-005  alpha =   0.33954534154856297     
 delta_qm =   0.458119E-04 delta_en =   0.362661E-02 tol =   0.100000E-04
 Iteration #         11
  pAp =    2.7026942377590746E-005  rzold =    9.3901760630699086E-006  alpha =   0.34743760251828287     
 delta_qm =   0.303176E-04 delta_en =   0.158831E-02 tol =   0.100000E-04
 Iteration #         12
  pAp =    4.8337296843034399E-006  rzold =    2.0644732949143337E-006  alpha =   0.42709738230052324     
 delta_qm =   0.203821E-04 delta_en =   0.717864E-03 tol =   0.100000E-04
 Iteration #         13
  pAp =    3.0624406353997731E-006  rzold =    1.2585895667723282E-006  alpha =   0.41097598830941290     
 delta_qm =   0.111218E-04 delta_en =   0.213743E-03 tol =   0.100000E-04
 Iteration #         14
  pAp =    1.4316249537167728E-006  rzold =    5.9521722220514528E-007  alpha =   0.41576337479997627     
 delta_qm =   0.547986E-05 delta_en =   0.518898E-04 tol =   0.100000E-04
 Iteration #         15
  pAp =    3.1551904202219076E-007  rzold =    1.2724475434087738E-007  alpha =   0.40328708380119932     
 delta_qm =   0.347857E-05 delta_en =   0.209096E-04 tol =   0.100000E-04
 Iteration #         16
  pAp =    4.1271629303512516E-008  rzold =    2.2762719801043244E-008  alpha =   0.55153431510168105     
 delta_qm =   0.184933E-05 delta_en =   0.590977E-05 tol =   0.100000E-04
 Charges are converged, EXIT

%%%% DENSITY %%%%%%%%%%%%%%%%%%%%%%%%%%%%%%%%%%%%%%%%%%%%%%%%%%%%%%%%%%%%%%%%%%%
 density label              = velectrostatic                                                                  
 integral of density        =    -0.7657249320E-11

%%%% CHARGES %%%%%%%%%%%%%%%%%%%%%%%%%%%%%%%%%%%%%%%%%%%%%%%%%%%%%%%%%%%%%%%%%%%
 total number of charges    =         33
 total charge               =      0.0000000

%%%% DENSITY %%%%%%%%%%%%%%%%%%%%%%%%%%%%%%%%%%%%%%%%%%%%%%%%%%%%%%%%%%%%%%%%%%%
 density label              = dvtot                                                                           
 integral of density        =    -0.5259679523E-11

%%%% ELECTRONS %%%%%%%%%%%%%%%%%%%%%%%%%%%%%%%%%%%%%%%%%%%%%%%%%%%%%%%%%%%%%%%%%
 number of electrons        =         24
 total electronic charge    =     24.0000000

%%%% ELECTRONS %%%%%%%%%%%%%%%%%%%%%%%%%%%%%%%%%%%%%%%%%%%%%%%%%%%%%%%%%%%%%%%%%
 number of electrons        =         24
 total electronic charge    =     24.0000000

%%%% DENSITY %%%%%%%%%%%%%%%%%%%%%%%%%%%%%%%%%%%%%%%%%%%%%%%%%%%%%%%%%%%%%%%%%%%
 density label              = vreference                                                                      
 integral of density        =     0.1938120446E-11

%%%% COMPUTE ELECTROSTATIC POTENTIAL %%%%%%%%%%%%%%%%%%%%%%%%%%%%%%%%%%%%%%%%%%%
 Warning: bad guess with residual norm =   0.160519E+03, reset to no guess
 Iteration #          1
  pAp =    92.914512260524745       rzold =    92.309843304087025       alpha =   0.99349220114569103     
 delta_qm =   0.958545E-02 delta_en =   0.158770E+03 tol =   0.100000E-04
 Iteration #          2
  pAp =    37.564444986424434       rzold =    4.3580707032661961       alpha =   0.11601584170460064     
 delta_qm =   0.217301E-02 delta_en =   0.815956E+01 tol =   0.100000E-04
 Iteration #          3
  pAp =   0.62444422255983933       rzold =    9.4969050266425187E-002  alpha =   0.15208572172725079     
 delta_qm =   0.902777E-03 delta_en =   0.140833E+01 tol =   0.100000E-04
 Iteration #          4
  pAp =    8.9893248537174689E-002  rzold =    1.4687986397620360E-002  alpha =   0.16339365454732957     
 delta_qm =   0.874073E-03 delta_en =   0.132020E+01 tol =   0.100000E-04
 Iteration #          5
  pAp =    7.5021531833958013E-003  rzold =    2.2340038355302288E-003  alpha =   0.29778168759265744     
 delta_qm =   0.625471E-03 delta_en =   0.676017E+00 tol =   0.100000E-04
 Iteration #          6
  pAp =    2.1495582413903602E-003  rzold =    1.1094384273411177E-003  alpha =   0.51612392071010815     
 delta_qm =   0.366462E-03 delta_en =   0.232061E+00 tol =   0.100000E-04
 Iteration #          7
  pAp =    3.1629685803225213E-003  rzold =    8.3486255080670625E-004  alpha =   0.26394904963664767     
 delta_qm =   0.250591E-03 delta_en =   0.108511E+00 tol =   0.100000E-04
 Iteration #          8
  pAp =    2.1299608275743911E-003  rzold =    5.0034767142992495E-004  alpha =   0.23490933023389124     
 delta_qm =   0.182027E-03 delta_en =   0.572551E-01 tol =   0.100000E-04
 Iteration #          9
  pAp =    3.3196346751823691E-004  rzold =    1.4544695313958460E-004  alpha =   0.43814144437925012     
 delta_qm =   0.851804E-04 delta_en =   0.125379E-01 tol =   0.100000E-04
 Iteration #         10
  pAp =    1.8215250551104425E-004  rzold =    6.1231405252353495E-005  alpha =   0.33615461440161698     
 delta_qm =   0.458933E-04 delta_en =   0.363951E-02 tol =   0.100000E-04
 Iteration #         11
  pAp =    2.7173399721427120E-005  rzold =    9.4329894701534886E-006  alpha =   0.34714057007431670     
 delta_qm =   0.302360E-04 delta_en =   0.157976E-02 tol =   0.100000E-04
 Iteration #         12
  pAp =    4.8098489702347624E-006  rzold =    2.0547200442899193E-006  alpha =   0.42719013777882325     
 delta_qm =   0.203110E-04 delta_en =   0.712860E-03 tol =   0.100000E-04
 Iteration #         13
  pAp =    3.0508549342715749E-006  rzold =    1.2574239438508416E-006  alpha =   0.41215461598178721     
 delta_qm =   0.110873E-04 delta_en =   0.212422E-03 tol =   0.100000E-04
 Iteration #         14
  pAp =    1.4292543423588936E-006  rzold =    5.9244754076122450E-007  alpha =   0.41451512386761580     
 delta_qm =   0.548440E-05 delta_en =   0.519759E-04 tol =   0.100000E-04
 Iteration #         15
  pAp =    3.2087021794662320E-007  rzold =    1.2878274956961802E-007  alpha =   0.40135463613217309     
 delta_qm =   0.349041E-05 delta_en =   0.210522E-04 tol =   0.100000E-04
 Iteration #         16
  pAp =    4.1059066333459499E-008  rzold =    2.2771371205771542E-008  alpha =   0.55460031703679757     
 delta_qm =   0.184215E-05 delta_en =   0.586398E-05 tol =   0.100000E-04
 Charges are converged, EXIT

%%%% DENSITY %%%%%%%%%%%%%%%%%%%%%%%%%%%%%%%%%%%%%%%%%%%%%%%%%%%%%%%%%%%%%%%%%%%
 density label              = velectrostatic                                                                  
 integral of density        =    -0.4373250733E-11

%%%% CHARGES %%%%%%%%%%%%%%%%%%%%%%%%%%%%%%%%%%%%%%%%%%%%%%%%%%%%%%%%%%%%%%%%%%%
 total number of charges    =         33
 total charge               =      0.0000000

%%%% DENSITY %%%%%%%%%%%%%%%%%%%%%%%%%%%%%%%%%%%%%%%%%%%%%%%%%%%%%%%%%%%%%%%%%%%
 density label              = dvtot                                                                           
 integral of density        =    -0.1976193900E-11

%%%% ELECTRONS %%%%%%%%%%%%%%%%%%%%%%%%%%%%%%%%%%%%%%%%%%%%%%%%%%%%%%%%%%%%%%%%%
 number of electrons        =         24
 total electronic charge    =     24.0000000

%%%% ELECTRONS %%%%%%%%%%%%%%%%%%%%%%%%%%%%%%%%%%%%%%%%%%%%%%%%%%%%%%%%%%%%%%%%%
 number of electrons        =         24
 total electronic charge    =     24.0000000

%%%% DENSITY %%%%%%%%%%%%%%%%%%%%%%%%%%%%%%%%%%%%%%%%%%%%%%%%%%%%%%%%%%%%%%%%%%%
 density label              = dvtot                                                                           
 integral of density        =    -0.1976193900E-11

%%%% DENSITY %%%%%%%%%%%%%%%%%%%%%%%%%%%%%%%%%%%%%%%%%%%%%%%%%%%%%%%%%%%%%%%%%%%
 density label              = vreference                                                                      
 integral of density        =     0.1938120446E-11

%%%% DENSITY %%%%%%%%%%%%%%%%%%%%%%%%%%%%%%%%%%%%%%%%%%%%%%%%%%%%%%%%%%%%%%%%%%%
 density label              = velectrostatic                                                                  
 integral of density        =    -0.4373250733E-11

%%%% CHARGES %%%%%%%%%%%%%%%%%%%%%%%%%%%%%%%%%%%%%%%%%%%%%%%%%%%%%%%%%%%%%%%%%%%
 total number of charges    =         33
 total charge               =      0.0000000
