
     Program PWSCF v.6.1 (svn rev. 13369) starts on 14Nov2017 at 17: 2:30 

     This program is part of the open-source Quantum ESPRESSO suite
     for quantum simulation of materials; please cite
         "P. Giannozzi et al., J. Phys.:Condens. Matter 21 395502 (2009);
          URL http://www.quantum-espresso.org", 
     in publications or presentations arising from this work. More details at
     http://www.quantum-espresso.org/quote

     Parallel version (MPI), running on     1 processors
     Reading input from neutral.in

     Current dimensions of program PWSCF are:
     Max number of different atomic species (ntypx) = 10
     Max number of k-points (npk) =  40000
     Max angular momentum in pseudopotentials (lmaxx) =  3
               file C.pbe-rrkjus.UPF: wavefunction(s)  2S 2P renormalized
               file H.pbe-rrkjus.UPF: wavefunction(s)  1S renormalized
               file N.pbe-rrkjus.UPF: wavefunction(s)  2S renormalized
               file O.pbe-rrkjus.UPF: wavefunction(s)  2S renormalized

     gamma-point specific algorithms are used

     Subspace diagonalization in iterative solution of the eigenvalue problem:
     a serial algorithm will be used

 
     G-vector sticks info
     --------------------
     sticks:   dense  smooth     PW     G-vecs:    dense   smooth      PW
     Sum        9549    3809    949               701475   177509   22119
 


     bravais-lattice index     =            1
     lattice parameter (alat)  =      20.0000  a.u.
     unit-cell volume          =    8000.0000 (a.u.)^3
     number of atoms/cell      =            9
     number of atomic types    =            4
     number of electrons       =        24.00
     number of Kohn-Sham states=           12
     kinetic-energy cutoff     =      30.0000  Ry
     charge density cutoff     =     300.0000  Ry
     convergence threshold     =      1.0E-03
     mixing beta               =       0.7000
     number of iterations used =            8  plain     mixing
     Exchange-correlation      =  SLA  PW   PBE  PBE ( 1  4  3  4 0 0)
 

     Environ Module
     ==============

     Plese cite
         O. Andreussi, I. Dabo and N. Marzari, J. Chem. Phys. 136, 064102 (2012)         
     in publications or presentations arising from this work.

     compensation onset threshold      =               0.1000E+03 
     static permittivity               =                    78.30 
     epsilon calculation mode          =                    ionic 
     surface tension in input (dyn/cm) =                    50.00 
     surface tension in internal units =               0.6423E-04 
     external pressure in input (GPa)  =                    -0.35 
     external pressure in inter. units =              -0.2379E-04 

     Electrostatic Setup
     -------------------
     electrostatic problem to solve    = generalized              
     numerical solver adopted          = cg                       
     type of auxiliary density adopted = none                     
     type of core tool for poisson     = fft                      
     type of core tool for s(r) deriv  = analytic                 



     celldm(1)=  20.000000  celldm(2)=   0.000000  celldm(3)=   0.000000
     celldm(4)=   0.000000  celldm(5)=   0.000000  celldm(6)=   0.000000

     crystal axes: (cart. coord. in units of alat)
               a(1) = (   1.000000   0.000000   0.000000 )  
               a(2) = (   0.000000   1.000000   0.000000 )  
               a(3) = (   0.000000   0.000000   1.000000 )  

     reciprocal axes: (cart. coord. in units 2 pi/alat)
               b(1) = (  1.000000  0.000000  0.000000 )  
               b(2) = (  0.000000  1.000000  0.000000 )  
               b(3) = (  0.000000  0.000000  1.000000 )  


     PseudoPot. # 1 for C  read from file:
     /home/andreo/PWSCF/espresso-6.1-Environ-1.0/Environ/tests/../..//pseudo/C.pbe-rrkjus.UPF
     MD5 check sum: 00fb224312de0c5b6853bd333518df6f
     Pseudo is Ultrasoft, Zval =  4.0
     Generated by new atomic code, or converted to UPF format
     Using radial grid of  627 points,  4 beta functions with: 
                l(1) =   0
                l(2) =   0
                l(3) =   1
                l(4) =   1
     Q(r) pseudized with 0 coefficients 


     PseudoPot. # 2 for H  read from file:
     /home/andreo/PWSCF/espresso-6.1-Environ-1.0/Environ/tests/../..//pseudo/H.pbe-rrkjus.UPF
     MD5 check sum: 7cc9d459525c9a0585f487a71c3c9563
     Pseudo is Ultrasoft, Zval =  1.0
     Generated by new atomic code, or converted to UPF format
     Using radial grid of 1061 points,  2 beta functions with: 
                l(1) =   0
                l(2) =   0
     Q(r) pseudized with 0 coefficients 


     PseudoPot. # 3 for N  read from file:
     /home/andreo/PWSCF/espresso-6.1-Environ-1.0/Environ/tests/../..//pseudo/N.pbe-rrkjus.UPF
     MD5 check sum: 0c3fbe5807a93f9ba59d5a7019aa238b
     Pseudo is Ultrasoft, Zval =  5.0
     Generated by new atomic code, or converted to UPF format
     Using radial grid of 1257 points,  4 beta functions with: 
                l(1) =   0
                l(2) =   0
                l(3) =   1
                l(4) =   1
     Q(r) pseudized with 0 coefficients 


     PseudoPot. # 4 for O  read from file:
     /home/andreo/PWSCF/espresso-6.1-Environ-1.0/Environ/tests/../..//pseudo/O.pbe-rrkjus.UPF
     MD5 check sum: 390ba29e75625707450f3bd3f0eb6be9
     Pseudo is Ultrasoft, Zval =  6.0
     Generated by new atomic code, or converted to UPF format
     Using radial grid of 1269 points,  4 beta functions with: 
                l(1) =   0
                l(2) =   0
                l(3) =   1
                l(4) =   1
     Q(r) pseudized with 0 coefficients 


     atomic species   valence    mass     pseudopotential
        C              4.00    12.00000     C ( 1.00)
        H              1.00     1.00000     H ( 1.00)
        N              5.00    14.00000     N ( 1.00)
        O              6.00    16.00000     O ( 1.00)

     No symmetry found



   Cartesian axes

     site n.     atom                  positions (alat units)
         1           C   tau(   1) = (   0.0000000   0.0000000   0.0000000  )
         2           C   tau(   2) = (   0.0000000   0.0000000   0.1455089  )
         3           N   tau(   3) = (   0.1170969   0.0000000  -0.0545024  )
         4           H   tau(   4) = (   0.0476617  -0.0825466   0.1792090  )
         5           H   tau(   5) = (  -0.0953183  -0.0000030   0.1792090  )
         6           H   tau(   6) = (   0.0476566   0.0825496   0.1792090  )
         7           O   tau(   7) = (  -0.0984002  -0.0000019  -0.0641310  )
         8           H   tau(   8) = (   0.1263131  -0.0000015  -0.1475548  )
         9           H   tau(   9) = (   0.1944645   0.0000134  -0.0025716  )

     number of k points=     1
                       cart. coord. in units 2pi/alat
        k(    1) = (   0.0000000   0.0000000   0.0000000), wk =   2.0000000

     Dense  grid:   350738 G-vectors     FFT dimensions: ( 120, 120, 120)

     Smooth grid:    88755 G-vectors     FFT dimensions: (  72,  72,  72)

     Estimated max dynamical RAM per process >     298.64MB

     Initial potential from superposition of free atoms
     Check: negative starting charge=   -0.000530

     starting charge   23.51886, renormalised to   24.00000

     negative rho (up, down):  5.411E-04 0.000E+00
     Starting wfc are   21 randomized atomic wfcs

     total cpu time spent up to now is       53.5 secs

     per-process dynamical memory:   543.1 Mb

     Self-consistent Calculation

     iteration #  1     ecut=    30.00 Ry     beta=0.70
     Davidson diagonalization with overlap
     ethr =  1.00E-02,  avg # of iterations =  2.0

     negative rho (up, down):  1.677E-04 0.000E+00

     add environment contribution to local potential
     polarization accuracy = 3.9E-06, # of iterations =  17

     total cpu time spent up to now is       59.0 secs

     total energy              =     -79.57109873 Ry
     Harris-Foulkes estimate   =     -81.75208041 Ry
     estimated scf accuracy    <       2.90357113 Ry
     electrostatic embedding   =       0.00000000 Ry
     cavitation energy         =       0.02859009 Ry
     PV energy                 =      -0.01896492 Ry
     correction to one-el term =       0.00000000 Ry

     iteration #  2     ecut=    30.00 Ry     beta=0.70
     Davidson diagonalization with overlap
     ethr =  1.00E-02,  avg # of iterations =  4.0

     negative rho (up, down):  1.539E-03 0.000E+00

     add environment contribution to local potential
     polarization accuracy = 3.7E-06, # of iterations =  17

     total cpu time spent up to now is       64.7 secs

     total energy              =     -79.97341290 Ry
     Harris-Foulkes estimate   =     -79.95140217 Ry
     estimated scf accuracy    <       1.90253691 Ry
     electrostatic embedding   =      -0.02523192 Ry
     cavitation energy         =       0.02859009 Ry
     PV energy                 =      -0.01896492 Ry
     correction to one-el term =      -1.01295346 Ry

     iteration #  3     ecut=    30.00 Ry     beta=0.70
     Davidson diagonalization with overlap
     ethr =  7.93E-03,  avg # of iterations =  3.0

     negative rho (up, down):  4.111E-04 0.000E+00

     add environment contribution to local potential
     polarization accuracy = 6.5E-06, # of iterations =  16

     total cpu time spent up to now is       70.2 secs

     total energy              =     -80.44072802 Ry
     Harris-Foulkes estimate   =     -79.98073484 Ry
     estimated scf accuracy    <       0.21020817 Ry
     electrostatic embedding   =      -0.03767249 Ry
     cavitation energy         =       0.02859009 Ry
     PV energy                 =      -0.01896492 Ry
     correction to one-el term =      -0.53777540 Ry

     iteration #  4     ecut=    30.00 Ry     beta=0.70
     Davidson diagonalization with overlap
     ethr =  8.76E-04,  avg # of iterations =  3.0

     negative rho (up, down):  2.056E-04 0.000E+00

     add environment contribution to local potential
     polarization accuracy = 7.6E-06, # of iterations =  16

     total cpu time spent up to now is       75.6 secs

     total energy              =     -80.48383419 Ry
     Harris-Foulkes estimate   =     -80.27132867 Ry
     estimated scf accuracy    <       0.03049733 Ry
     electrostatic embedding   =      -0.03652958 Ry
     cavitation energy         =       0.02859009 Ry
     PV energy                 =      -0.01896492 Ry
     correction to one-el term =      -0.20082804 Ry

     iteration #  5     ecut=    30.00 Ry     beta=0.70
     Davidson diagonalization with overlap
     ethr =  1.27E-04,  avg # of iterations =  2.0

     negative rho (up, down):  1.046E-04 0.000E+00

     add environment contribution to local potential
     polarization accuracy = 6.8E-06, # of iterations =  16

     total cpu time spent up to now is       80.9 secs

     total energy              =     -80.49431343 Ry
     Harris-Foulkes estimate   =     -80.55642844 Ry
     estimated scf accuracy    <       0.00371265 Ry
     electrostatic embedding   =      -0.04071025 Ry
     cavitation energy         =       0.02859009 Ry
     PV energy                 =      -0.01896492 Ry
     correction to one-el term =       0.09128161 Ry

     iteration #  6     ecut=    30.00 Ry     beta=0.70
     Davidson diagonalization with overlap
     ethr =  1.55E-05,  avg # of iterations =  3.0

     negative rho (up, down):  2.267E-04 0.000E+00

     total cpu time spent up to now is       83.6 secs

     End of self-consistent calculation

          k = 0.0000 0.0000 0.0000 ( 11060 PWs)   bands (ev):

   -25.5814 -22.2442 -17.7845 -14.2897 -12.9363 -11.1452 -10.5676  -9.5424
    -9.2636  -8.6608  -6.3173  -5.7660

     highest occupied level (ev):    -5.7660

!    total energy              =     -80.49575722 Ry
     Harris-Foulkes estimate   =     -80.60972796 Ry
     estimated scf accuracy    <       0.00031091 Ry

     The total energy is the sum of the following terms:

     one-electron contribution =    -236.18383550 Ry
     hartree contribution      =     121.52075778 Ry
     xc contribution           =     -22.69412281 Ry
     ewald contribution        =      56.74764018 Ry
     electrostatic embedding   =      -0.04112241 Ry
     cavitation energy         =       0.02859009 Ry
     PV energy                 =      -0.01896492 Ry
     correction to one-el term =       0.14530036 Ry

     convergence has been achieved in   6 iterations

     Forces acting on atoms (cartesian axes, Ry/au):

     atom    1 type  1   force =     0.02308743   -0.00000930    0.01022275
     atom    2 type  1   force =    -0.00626044    0.00000287   -0.06219107
     atom    3 type  3   force =    -0.06797592   -0.00000586    0.03053241
     atom    4 type  2   force =     0.02169991   -0.03011685    0.01488457
     atom    5 type  2   force =    -0.03256624    0.00000134    0.00984396
     atom    6 type  2   force =     0.02169925    0.03012530    0.01488704
     atom    7 type  4   force =    -0.00365259   -0.00000650   -0.00138178
     atom    8 type  2   force =     0.00154074    0.00000341   -0.04580771
     atom    9 type  2   force =     0.04242786    0.00000559    0.02900984

     Total force =     0.138607     Total SCF correction =     0.027942
     SCF correction compared to forces is large: reduce conv_thr to get better values

     Writing output data file pwscf.save
 
     init_run     :     50.91s CPU     53.35s WALL (       1 calls)
     electrons    :     21.84s CPU     31.60s WALL (       1 calls)
     forces       :     14.29s CPU     15.11s WALL (       1 calls)

     Called by init_run:
     wfcinit      :      0.13s CPU      0.13s WALL (       1 calls)
     potinit      :      0.97s CPU      1.17s WALL (       1 calls)

     Called by electrons:
     c_bands      :      1.34s CPU      1.34s WALL (       6 calls)
     sum_band     :      3.86s CPU      6.24s WALL (       6 calls)
     v_of_rho     :      4.42s CPU      5.22s WALL (       7 calls)
     newd         :      2.06s CPU      4.67s WALL (       7 calls)
     mix_rho      :      0.46s CPU      0.47s WALL (       6 calls)

     Called by c_bands:
     init_us_2    :      0.04s CPU      0.05s WALL (      13 calls)
     regterg      :      1.26s CPU      1.25s WALL (       6 calls)

     Called by sum_band:
     sum_band:bec :      0.00s CPU      0.00s WALL (       6 calls)
     addusdens    :      2.91s CPU      5.28s WALL (       6 calls)

     Called by *egterg:
     h_psi        :      1.21s CPU      1.21s WALL (      24 calls)
     s_psi        :      0.04s CPU      0.03s WALL (      24 calls)
     g_psi        :      0.01s CPU      0.01s WALL (      17 calls)
     rdiaghg      :      0.01s CPU      0.01s WALL (      23 calls)

     Called by h_psi:
     h_psi:pot    :      1.20s CPU      1.20s WALL (      24 calls)
     h_psi:calbec :      0.03s CPU      0.04s WALL (      24 calls)
     vloc_psi     :      1.14s CPU      1.13s WALL (      24 calls)
     add_vuspsi   :      0.04s CPU      0.03s WALL (      24 calls)

     General routines
     calbec       :      0.05s CPU      0.07s WALL (      34 calls)
     fft          :      9.14s CPU     10.78s WALL (     301 calls)
     ffts         :      0.07s CPU      0.07s WALL (      13 calls)
     fftw         :      0.99s CPU      0.99s WALL (     280 calls)
     interpolate  :      0.52s CPU      0.69s WALL (      13 calls)
     davcio       :      0.00s CPU      0.00s WALL (       1 calls)
 
     Parallel routines
     fft_scatter  :      2.16s CPU      3.24s WALL (     594 calls)
 
     Environ routines
     calc_eelect  :      0.02s CPU      0.02s WALL (      12 calls)
     calc_velect  :      9.88s CPU     12.86s WALL (      10 calls)
     dielectric   :      0.13s CPU      0.13s WALL (       2 calls)
     calc_felect  :      0.35s CPU      0.42s WALL (       1 calls)
 
     PWSCF        :  1m27.31s CPU     1m42.67s WALL

 
   This run was terminated on:  17: 4:12  14Nov2017            

=------------------------------------------------------------------------------=
   JOB DONE.
=------------------------------------------------------------------------------=

%%%% IONS %%%%%%%%%%%%%%%%%%%%%%%%%%%%%%%%%%%%%%%%%%%%%%%%%%%%%%%%%%%%%%%%%%%%%%
 number of ions             =          9
 ionic center of charge     =      0.0131609     0.0000000     0.0130099
 total ionic charge         =    -24.0000000
 ionic dipole               =      0.0000000     0.0000000     0.0000000
 ionic quadrupole (pc)      =    -75.9587432    -5.4513517   -95.3140149
 ionic quadrupole (gauss)   =    -78.9587432    -8.4513517   -98.3140149
 ion   1 type =  1 coordinates =      0.0000000     0.0000000     0.0000000
 ion   2 type =  1 coordinates =      0.0000000     0.0000000     2.9101782
 ion   3 type =  3 coordinates =      2.3419379     0.0000000    -1.0900479
 ion   4 type =  2 coordinates =      0.9532347    -1.6509323     3.5841800
 ion   5 type =  2 coordinates =     -1.9063663    -0.0000596     3.5841809
 ion   6 type =  2 coordinates =      0.9531315     1.6509919     3.5841800
 ion   7 type =  4 coordinates =     -1.9680045    -0.0000375    -1.2826193
 ion   8 type =  2 coordinates =      2.5262613    -0.0000303    -2.9510950
 ion   9 type =  2 coordinates =      3.8892907     0.0002681    -0.0514326

%%%% SYSTEM %%%%%%%%%%%%%%%%%%%%%%%%%%%%%%%%%%%%%%%%%%%%%%%%%%%%%%%%%%%%%%%%%%%%
 system is built from all present ionic types
 system defined dimension   =  0 
 system defined axis        =  3 
 system center              =      0.0131609     0.0000000     0.0130099 
 system width               =      0.4839110 

%%%% BOUNDARY %%%%%%%%%%%%%%%%%%%%%%%%%%%%%%%%%%%%%%%%%%%%%%%%%%%%%%%%%%%%%%%%%%
 boundary mode              = ionic                
 boundary is built from soft-spheres centered on ionic positions
 solvent-dependent scaling  =      1.1600000 
 softness parameter         =      0.5000000 
 volume of the QM region    =    797.0957158 
 surface of the QM region   =    445.1171206 

%%%% DIELECTRIC %%%%%%%%%%%%%%%%%%%%%%%%%%%%%%%%%%%%%%%%%%%%%%%%%%%%%%%%%%%%%%%%%
 dielectric build on homogeneous background
 environment bulk permitt.  =     78.3000000 
 dielectric flags
 need gradient              =  F 
 need factor depend. sqrt   =  T 
 need gradient of logarithm =  T 

%%%% ELECTRONS %%%%%%%%%%%%%%%%%%%%%%%%%%%%%%%%%%%%%%%%%%%%%%%%%%%%%%%%%%%%%%%%%
 number of electrons        =         24
 total electronic charge    =     24.0000000
 number of spin components  =  1

%%%% COMPUTE ELECTROSTATIC POTENTIAL %%%%%%%%%%%%%%%%%%%%%%%%%%%%%%%%%%%%%%%%%%%
 Iteration #          1
  pAp =    89.6903454489999       rzold =    89.3115472387749       alpha = 
  0.995776599941401     
 delta_qm =   0.726787E-02 delta_en =   0.912763E+02 tol =   0.100000E-04
 Iteration #          2
  pAp =    28.9160084783017       rzold =    2.98569753727666       alpha = 
  0.103254138257606     
 delta_qm =   0.222815E-02 delta_en =   0.857894E+01 tol =   0.100000E-04
 Iteration #          3
  pAp =   0.486877041714625       rzold =   9.522442693256578E-002  alpha = 
  0.195582084949448     
 delta_qm =   0.993989E-03 delta_en =   0.170729E+01 tol =   0.100000E-04
 Iteration #          4
  pAp =   4.235075143491642E-002  rzold =   7.616612333993707E-003  alpha = 
  0.179845978546537     
 delta_qm =   0.841522E-03 delta_en =   0.122370E+01 tol =   0.100000E-04
 Iteration #          5
  pAp =   4.953426030199735E-003  rzold =   1.624936322093779E-003  alpha = 
  0.328042916596911     
 delta_qm =   0.603397E-03 delta_en =   0.629145E+00 tol =   0.100000E-04
 Iteration #          6
  pAp =   3.271252845780621E-003  rzold =   1.304079464905396E-003  alpha = 
  0.398648324169574     
 delta_qm =   0.326872E-03 delta_en =   0.184628E+00 tol =   0.100000E-04
 Iteration #          7
  pAp =   2.212622053124744E-003  rzold =   7.034754818686694E-004  alpha = 
  0.317937480951704     
 delta_qm =   0.208754E-03 delta_en =   0.753034E-01 tol =   0.100000E-04
 Iteration #          8
  pAp =   1.583790384360652E-003  rzold =   3.229611228096009E-004  alpha = 
  0.203916582648009     
 delta_qm =   0.168299E-03 delta_en =   0.489450E-01 tol =   0.100000E-04
 Iteration #          9
  pAp =   3.506348058275039E-004  rzold =   1.561058409039432E-004  alpha = 
  0.445209198600609     
 delta_qm =   0.778448E-04 delta_en =   0.104714E-01 tol =   0.100000E-04
 Iteration #         10
  pAp =   1.408558996336321E-004  rzold =   4.193226827853118E-005  alpha = 
  0.297696215689918     
 delta_qm =   0.396885E-04 delta_en =   0.272191E-02 tol =   0.100000E-04
 Iteration #         11
  pAp =   2.267423450935691E-005  rzold =   7.695191737157708E-006  alpha = 
  0.339380442324620     
 delta_qm =   0.290405E-04 delta_en =   0.145731E-02 tol =   0.100000E-04
 Iteration #         12
  pAp =   3.750635746644831E-006  rzold =   1.712248428205078E-006  alpha = 
  0.456522185535289     
 delta_qm =   0.183198E-04 delta_en =   0.579941E-03 tol =   0.100000E-04
 Iteration #         13
  pAp =   2.335376566551866E-006  rzold =   1.091950721995408E-006  alpha = 
  0.467569443675480     
 delta_qm =   0.864186E-05 delta_en =   0.129050E-03 tol =   0.100000E-04
 Iteration #         14
  pAp =   1.700361297556442E-006  rzold =   5.279115492534508E-007  alpha = 
  0.310470221835855     
 delta_qm =   0.582511E-05 delta_en =   0.586343E-04 tol =   0.100000E-04
 Iteration #         15
  pAp =   3.858514353076877E-007  rzold =   1.291017001349561E-007  alpha = 
  0.334589140589842     
 delta_qm =   0.378753E-05 delta_en =   0.247889E-04 tol =   0.100000E-04
 Iteration #         16
  pAp =   1.064140886014106E-007  rzold =   3.525937548343488E-008  alpha = 
  0.331341234481686     
 delta_qm =   0.254627E-05 delta_en =   0.112035E-04 tol =   0.100000E-04
 Iteration #         17
  pAp =   8.746994817445256E-008  rzold =   2.531802306968242E-008  alpha = 
  0.289448245918557     
 delta_qm =   0.149875E-05 delta_en =   0.388150E-05 tol =   0.100000E-04
 Charges are converged, EXIT

%%%% ELECTRONS %%%%%%%%%%%%%%%%%%%%%%%%%%%%%%%%%%%%%%%%%%%%%%%%%%%%%%%%%%%%%%%%%
 number of electrons        =         24
 total electronic charge    =     24.0000000
 number of spin components  =  1

%%%% COMPUTE ELECTROSTATIC POTENTIAL %%%%%%%%%%%%%%%%%%%%%%%%%%%%%%%%%%%%%%%%%%%
 Warning: bad guess with residual norm =   0.783350E+03, reset to no guess
 Iteration #          1
  pAp =    91.8913696629601       rzold =    91.1882624557873       alpha = 
  0.992348495731953     
 delta_qm =   0.104032E-01 delta_en =   0.187016E+03 tol =   0.100000E-04
 Iteration #          2
  pAp =    49.5174021319301       rzold =    5.43829499518036       alpha = 
  0.109825935146820     
 delta_qm =   0.220134E-02 delta_en =   0.837375E+01 tol =   0.100000E-04
 Iteration #          3
  pAp =   0.709920112969488       rzold =   0.100995470932146       alpha = 
  0.142263149172796     
 delta_qm =   0.100266E-02 delta_en =   0.173721E+01 tol =   0.100000E-04
 Iteration #          4
  pAp =   6.361327334765510E-002  rzold =   1.119124316082411E-002  alpha = 
  0.175926226900201     
 delta_qm =   0.926046E-03 delta_en =   0.148187E+01 tol =   0.100000E-04
 Iteration #          5
  pAp =   6.235843823915448E-003  rzold =   2.109474083285335E-003  alpha = 
  0.338282058186763     
 delta_qm =   0.641274E-03 delta_en =   0.710609E+00 tol =   0.100000E-04
 Iteration #          6
  pAp =   3.041919391638284E-003  rzold =   1.365044175594610E-003  alpha = 
  0.448744361651030     
 delta_qm =   0.370822E-03 delta_en =   0.237616E+00 tol =   0.100000E-04
 Iteration #          7
  pAp =   4.392663819453766E-003  rzold =   9.758553013112156E-004  alpha = 
  0.222155699006478     
 delta_qm =   0.260327E-03 delta_en =   0.117107E+00 tol =   0.100000E-04
 Iteration #          8
  pAp =   1.722912845041734E-003  rzold =   4.888040650205286E-004  alpha = 
  0.283707946357953     
 delta_qm =   0.183511E-03 delta_en =   0.581929E-01 tol =   0.100000E-04
 Iteration #          9
  pAp =   3.017354664025377E-004  rzold =   1.452209009118403E-004  alpha = 
  0.481285487063376     
 delta_qm =   0.764109E-04 delta_en =   0.100891E-01 tol =   0.100000E-04
 Iteration #         10
  pAp =   2.023425866845620E-004  rzold =   5.924646830122319E-005  alpha = 
  0.292802762245915     
 delta_qm =   0.459688E-04 delta_en =   0.365150E-02 tol =   0.100000E-04
 Iteration #         11
  pAp =   2.453201840519884E-005  rzold =   8.638563822313869E-006  alpha = 
  0.352134246747637     
 delta_qm =   0.317501E-04 delta_en =   0.174194E-02 tol =   0.100000E-04
 Iteration #         12
  pAp =   5.393821433873451E-006  rzold =   2.209309184236556E-006  alpha = 
  0.409599986080739     
 delta_qm =   0.208590E-04 delta_en =   0.751850E-03 tol =   0.100000E-04
 Iteration #         13
  pAp =   3.337983804308361E-006  rzold =   1.397679761687406E-006  alpha = 
  0.418719755285634     
 delta_qm =   0.110056E-04 delta_en =   0.209302E-03 tol =   0.100000E-04
 Iteration #         14
  pAp =   1.495959246493376E-006  rzold =   6.104484517319730E-007  alpha = 
  0.408064894256246     
 delta_qm =   0.573655E-05 delta_en =   0.568651E-04 tol =   0.100000E-04
 Iteration #         15
  pAp =   3.740932326265650E-007  rzold =   1.385978375671319E-007  alpha = 
  0.370490095728318     
 delta_qm =   0.381715E-05 delta_en =   0.251780E-04 tol =   0.100000E-04
 Iteration #         16
  pAp =   9.872011427373665E-008  rzold =   3.248491978095229E-008  alpha = 
  0.329060800019703     
 delta_qm =   0.267596E-05 delta_en =   0.123738E-04 tol =   0.100000E-04
 Iteration #         17
  pAp =   8.653023366562788E-008  rzold =   2.661072588960811E-008  alpha = 
  0.307530960709501     
 delta_qm =   0.146795E-05 delta_en =   0.372362E-05 tol =   0.100000E-04
 Charges are converged, EXIT

%%%% ELECTRONS %%%%%%%%%%%%%%%%%%%%%%%%%%%%%%%%%%%%%%%%%%%%%%%%%%%%%%%%%%%%%%%%%
 number of electrons        =         24
 total electronic charge    =     24.0000000
 number of spin components  =  1

%%%% COMPUTE ELECTROSTATIC POTENTIAL %%%%%%%%%%%%%%%%%%%%%%%%%%%%%%%%%%%%%%%%%%%
 Warning: bad guess with residual norm =   0.781960E+03, reset to no guess
 Iteration #          1
  pAp =    92.8026841023958       rzold =    92.3324789798940       alpha = 
  0.994933281003133     
 delta_qm =   0.847300E-02 delta_en =   0.124056E+03 tol =   0.100000E-04
 Iteration #          2
  pAp =    31.2558433820558       rzold =    3.52051447815775       alpha = 
  0.112635401807104     
 delta_qm =   0.200585E-02 delta_en =   0.695247E+01 tol =   0.100000E-04
 Iteration #          3
  pAp =   0.490915519029074       rzold =   7.450247999869213E-002  alpha = 
  0.151762323884244     
 delta_qm =   0.911469E-03 delta_en =   0.143558E+01 tol =   0.100000E-04
 Iteration #          4
  pAp =   6.034957372474004E-002  rzold =   1.023668635673972E-002  alpha = 
  0.169623175855892     
 delta_qm =   0.887501E-03 delta_en =   0.136107E+01 tol =   0.100000E-04
 Iteration #          5
  pAp =   5.749908471146042E-003  rzold =   1.893460161916502E-003  alpha = 
  0.329302661323774     
 delta_qm =   0.625964E-03 delta_en =   0.677084E+00 tol =   0.100000E-04
 Iteration #          6
  pAp =   2.492765309146524E-003  rzold =   1.252219317653002E-003  alpha = 
  0.502341441072821     
 delta_qm =   0.341439E-03 delta_en =   0.201451E+00 tol =   0.100000E-04
 Iteration #          7
  pAp =   3.219867431384236E-003  rzold =   8.202317081169339E-004  alpha = 
  0.254740831911925     
 delta_qm =   0.234805E-03 delta_en =   0.952705E-01 tol =   0.100000E-04
 Iteration #          8
  pAp =   2.098512395503955E-003  rzold =   4.733662395078578E-004  alpha = 
  0.225572286597897     
 delta_qm =   0.171714E-03 delta_en =   0.509514E-01 tol =   0.100000E-04
 Iteration #          9
  pAp =   2.959608412839456E-004  rzold =   1.301358380079758E-004  alpha = 
  0.439706271422317     
 delta_qm =   0.764674E-04 delta_en =   0.101041E-01 tol =   0.100000E-04
 Iteration #         10
  pAp =   1.639782528201110E-004  rzold =   5.100719113643202E-005  alpha = 
  0.311060706277853     
 delta_qm =   0.455353E-04 delta_en =   0.358295E-02 tol =   0.100000E-04
 Iteration #         11
  pAp =   2.447462210110715E-005  rzold =   8.300130663934896E-006  alpha = 
  0.339132127541999     
 delta_qm =   0.309089E-04 delta_en =   0.165086E-02 tol =   0.100000E-04
 Iteration #         12
  pAp =   4.765672000721633E-006  rzold =   2.089927651529929E-006  alpha = 
  0.438537870674580     
 delta_qm =   0.200809E-04 delta_en =   0.696802E-03 tol =   0.100000E-04
 Iteration #         13
  pAp =   3.332788872044310E-006  rzold =   1.345347160882998E-006  alpha = 
  0.403670083085032     
 delta_qm =   0.108382E-04 delta_en =   0.202983E-03 tol =   0.100000E-04
 Iteration #         14
  pAp =   1.564162825064612E-006  rzold =   6.155372429258835E-007  alpha = 
  0.393525042957377     
 delta_qm =   0.551442E-05 delta_en =   0.525465E-04 tol =   0.100000E-04
 Iteration #         15
  pAp =   3.233337143810917E-007  rzold =   1.256795456746026E-007  alpha = 
  0.388699167716462     
 delta_qm =   0.363172E-05 delta_en =   0.227913E-04 tol =   0.100000E-04
 Iteration #         16
  pAp =   4.270613931008586E-008  rzold =   2.363891519711118E-008  alpha = 
  0.553524986781664     
 delta_qm =   0.194460E-05 delta_en =   0.653436E-05 tol =   0.100000E-04
 Charges are converged, EXIT

%%%% ELECTRONS %%%%%%%%%%%%%%%%%%%%%%%%%%%%%%%%%%%%%%%%%%%%%%%%%%%%%%%%%%%%%%%%%
 number of electrons        =         24
 total electronic charge    =     24.0000000
 number of spin components  =  1

%%%% COMPUTE ELECTROSTATIC POTENTIAL %%%%%%%%%%%%%%%%%%%%%%%%%%%%%%%%%%%%%%%%%%%
 Warning: bad guess with residual norm =   0.798690E+03, reset to no guess
 Iteration #          1
  pAp =    92.6757964232629       rzold =    92.1418193607949       alpha = 
  0.994238225264025     
 delta_qm =   0.903585E-02 delta_en =   0.141085E+03 tol =   0.100000E-04
 Iteration #          2
  pAp =    33.4460334717238       rzold =    3.87699565221588       alpha = 
  0.115917950494596     
 delta_qm =   0.196929E-02 delta_en =   0.670135E+01 tol =   0.100000E-04
 Iteration #          3
  pAp =   0.445949641372227       rzold =   7.309134628752730E-002  alpha = 
  0.163900448630519     
 delta_qm =   0.843143E-03 delta_en =   0.122842E+01 tol =   0.100000E-04
 Iteration #          4
  pAp =   6.507039579424725E-002  rzold =   1.033401593864523E-002  alpha = 
  0.158812864321917     
 delta_qm =   0.871638E-03 delta_en =   0.131285E+01 tol =   0.100000E-04
 Iteration #          5
  pAp =   6.888536478771523E-003  rzold =   2.055861090385875E-003  alpha = 
  0.298446716036337     
 delta_qm =   0.613766E-03 delta_en =   0.650952E+00 tol =   0.100000E-04
 Iteration #          6
  pAp =   2.242973192552308E-003  rzold =   1.159067005219018E-003  alpha = 
  0.516754729422379     
 delta_qm =   0.358809E-03 delta_en =   0.222469E+00 tol =   0.100000E-04
 Iteration #          7
  pAp =   2.838246406096398E-003  rzold =   8.046282191939686E-004  alpha = 
  0.283494842965597     
 delta_qm =   0.237033E-03 delta_en =   0.970870E-01 tol =   0.100000E-04
 Iteration #          8
  pAp =   2.251737946075959E-003  rzold =   4.683177369087066E-004  alpha = 
  0.207980567954113     
 delta_qm =   0.177228E-03 delta_en =   0.542760E-01 tol =   0.100000E-04
 Iteration #          9
  pAp =   3.649641899471529E-004  rzold =   1.437245366464016E-004  alpha = 
  0.393804489879440     
 delta_qm =   0.858955E-04 delta_en =   0.127493E-01 tol =   0.100000E-04
 Iteration #         10
  pAp =   1.753918821663450E-004  rzold =   5.866830069535935E-005  alpha = 
  0.334498381400099     
 delta_qm =   0.460785E-04 delta_en =   0.366893E-02 tol =   0.100000E-04
 Iteration #         11
  pAp =   2.749531006832558E-005  rzold =   9.416439195399568E-006  alpha = 
  0.342474377339256     
 delta_qm =   0.307907E-04 delta_en =   0.163826E-02 tol =   0.100000E-04
 Iteration #         12
  pAp =   4.898824163485501E-006  rzold =   2.102293665355980E-006  alpha = 
  0.429142503424782     
 delta_qm =   0.206879E-04 delta_en =   0.739563E-03 tol =   0.100000E-04
 Iteration #         13
  pAp =   3.291082362764568E-006  rzold =   1.319797437778715E-006  alpha = 
  0.401022305825875     
 delta_qm =   0.113501E-04 delta_en =   0.222609E-03 tol =   0.100000E-04
 Iteration #         14
  pAp =   1.582961645671431E-006  rzold =   6.426161439562406E-007  alpha = 
  0.405958126473537     
 delta_qm =   0.559328E-05 delta_en =   0.540601E-04 tol =   0.100000E-04
 Iteration #         15
  pAp =   3.560767525431725E-007  rzold =   1.393774960205746E-007  alpha = 
  0.391425430121771     
 delta_qm =   0.362497E-05 delta_en =   0.227067E-04 tol =   0.100000E-04
 Iteration #         16
  pAp =   4.909155347648579E-008  rzold =   2.483694435922265E-008  alpha = 
  0.505931114425198     
 delta_qm =   0.209528E-05 delta_en =   0.758626E-05 tol =   0.100000E-04
 Charges are converged, EXIT

%%%% ELECTRONS %%%%%%%%%%%%%%%%%%%%%%%%%%%%%%%%%%%%%%%%%%%%%%%%%%%%%%%%%%%%%%%%%
 number of electrons        =         24
 total electronic charge    =     24.0000000
 number of spin components  =  1

%%%% COMPUTE ELECTROSTATIC POTENTIAL %%%%%%%%%%%%%%%%%%%%%%%%%%%%%%%%%%%%%%%%%%%
 Warning: bad guess with residual norm =   0.833366E+03, reset to no guess
 Iteration #          1
  pAp =    92.8209502248425       rzold =    92.2814319001786       alpha = 
  0.994187537152367     
 delta_qm =   0.909394E-02 delta_en =   0.142905E+03 tol =   0.100000E-04
 Iteration #          2
  pAp =    33.6227463999518       rzold =    3.90814182371716       alpha = 
  0.116235056387980     
 delta_qm =   0.194884E-02 delta_en =   0.656290E+01 tol =   0.100000E-04
 Iteration #          3
  pAp =   0.431495664904500       rzold =   7.157614888061907E-002  alpha = 
  0.165879184200983     
 delta_qm =   0.837849E-03 delta_en =   0.121304E+01 tol =   0.100000E-04
 Iteration #          4
  pAp =   6.288862203446474E-002  rzold =   1.001174538479481E-002  alpha = 
  0.159198040295876     
 delta_qm =   0.871035E-03 delta_en =   0.131104E+01 tol =   0.100000E-04
 Iteration #          5
  pAp =   7.147571469988433E-003  rzold =   2.080706295504164E-003  alpha = 
  0.291106749228145     
 delta_qm =   0.612067E-03 delta_en =   0.647355E+00 tol =   0.100000E-04
 Iteration #          6
  pAp =   2.230754505633257E-003  rzold =   1.155049973405625E-003  alpha = 
  0.517784440416376     
 delta_qm =   0.360620E-03 delta_en =   0.224721E+00 tol =   0.100000E-04
 Iteration #          7
  pAp =   2.839563537130374E-003  rzold =   8.047176049130621E-004  alpha = 
  0.283394822616401     
 delta_qm =   0.238066E-03 delta_en =   0.979349E-01 tol =   0.100000E-04
 Iteration #          8
  pAp =   2.296678588611706E-003  rzold =   4.764949119631224E-004  alpha = 
  0.207471308491256     
 delta_qm =   0.178148E-03 delta_en =   0.548410E-01 tol =   0.100000E-04
 Iteration #          9
  pAp =   3.496381205980319E-004  rzold =   1.411365016328051E-004  alpha = 
  0.403664512872340     
 delta_qm =   0.850807E-04 delta_en =   0.125085E-01 tol =   0.100000E-04
 Iteration #         10
  pAp =   1.761106110139997E-004  rzold =   5.823332350471342E-005  alpha = 
  0.330663343732787     
 delta_qm =   0.461035E-04 delta_en =   0.367292E-02 tol =   0.100000E-04
 Iteration #         11
  pAp =   2.766104447223496E-005  rzold =   9.428717149952216E-006  alpha = 
  0.340866273484950     
 delta_qm =   0.307030E-04 delta_en =   0.162894E-02 tol =   0.100000E-04
 Iteration #         12
  pAp =   4.931105352953120E-006  rzold =   2.102363761907976E-006  alpha = 
  0.426347362594661     
 delta_qm =   0.206321E-04 delta_en =   0.735578E-03 tol =   0.100000E-04
 Iteration #         13
  pAp =   3.267987477666859E-006  rzold =   1.319064604067887E-006  alpha = 
  0.403632086439210     
 delta_qm =   0.113268E-04 delta_en =   0.221696E-03 tol =   0.100000E-04
 Iteration #         14
  pAp =   1.568105075269174E-006  rzold =   6.376222335510752E-007  alpha = 
  0.406619584112770     
 delta_qm =   0.558944E-05 delta_en =   0.539859E-04 tol =   0.100000E-04
 Iteration #         15
  pAp =   3.598735091591272E-007  rzold =   1.406187177451794E-007  alpha = 
  0.390744842746959     
 delta_qm =   0.362912E-05 delta_en =   0.227586E-04 tol =   0.100000E-04
 Iteration #         16
  pAp =   4.424703469455890E-008  rzold =   2.422644698993757E-008  alpha = 
  0.547527018639211     
 delta_qm =   0.197651E-05 delta_en =   0.675060E-05 tol =   0.100000E-04
 Charges are converged, EXIT

%%%% ELECTRONS %%%%%%%%%%%%%%%%%%%%%%%%%%%%%%%%%%%%%%%%%%%%%%%%%%%%%%%%%%%%%%%%%
 number of electrons        =         24
 total electronic charge    =     24.0000000
 number of spin components  =  1
