
     Program PWSCF v.6.1 (svn rev. 13369) starts on  1Feb2018 at 12:40:32 

     This program is part of the open-source Quantum ESPRESSO suite
     for quantum simulation of materials; please cite
         "P. Giannozzi et al., J. Phys.:Condens. Matter 21 395502 (2009);
          URL http://www.quantum-espresso.org", 
     in publications or presentations arising from this work. More details at
     http://www.quantum-espresso.org/quote

     Parallel version (MPI), running on     1 processors
     Reading input from neutral.in

     Current dimensions of program PWSCF are:
     Max number of different atomic species (ntypx) = 10
     Max number of k-points (npk) =  40000
     Max angular momentum in pseudopotentials (lmaxx) =  3
               file C.pbe-rrkjus.UPF: wavefunction(s)  2S 2P renormalized
               file H.pbe-rrkjus.UPF: wavefunction(s)  1S renormalized
               file N.pbe-rrkjus.UPF: wavefunction(s)  2S renormalized
               file O.pbe-rrkjus.UPF: wavefunction(s)  2S renormalized

     gamma-point specific algorithms are used

     Subspace diagonalization in iterative solution of the eigenvalue problem:
     a serial algorithm will be used

 
     G-vector sticks info
     --------------------
     sticks:   dense  smooth     PW     G-vecs:    dense   smooth      PW
     Sum        9549    3809    949               701475   177509   22119
 


     bravais-lattice index     =            1
     lattice parameter (alat)  =      20.0000  a.u.
     unit-cell volume          =    8000.0000 (a.u.)^3
     number of atoms/cell      =            9
     number of atomic types    =            4
     number of electrons       =        24.00
     number of Kohn-Sham states=           12
     kinetic-energy cutoff     =      30.0000  Ry
     charge density cutoff     =     300.0000  Ry
     convergence threshold     =      1.0E-03
     mixing beta               =       0.7000
     number of iterations used =            8  plain     mixing
     Exchange-correlation      =  SLA  PW   PBE  PBE ( 1  4  3  4 0 0)
 

     Environ Module
     ==============

     Plese cite
         O. Andreussi, I. Dabo and N. Marzari, J. Chem. Phys. 136, 064102 (2012)         
     in publications or presentations arising from this work.

     compensation onset threshold      =               0.1000E+03 
     static permittivity               =                    78.30 
     epsilon calculation mode          =                    ionic 
     surface tension in input (dyn/cm) =                    50.00 
     surface tension in internal units =               0.6423E-04 
     external pressure in input (GPa)  =                    -0.35 
     external pressure in inter. units =              -0.2379E-04 

     Electrostatic Setup
     -------------------
     electrostatic problem to solve    = generalized              
     numerical solver adopted          = cg                       
     type of auxiliary density adopted = none                     
     type of core tool for poisson     = fft                      
     type of core tool for s(r) deriv  = analytic                 



     celldm(1)=  20.000000  celldm(2)=   0.000000  celldm(3)=   0.000000
     celldm(4)=   0.000000  celldm(5)=   0.000000  celldm(6)=   0.000000

     crystal axes: (cart. coord. in units of alat)
               a(1) = (   1.000000   0.000000   0.000000 )  
               a(2) = (   0.000000   1.000000   0.000000 )  
               a(3) = (   0.000000   0.000000   1.000000 )  

     reciprocal axes: (cart. coord. in units 2 pi/alat)
               b(1) = (  1.000000  0.000000  0.000000 )  
               b(2) = (  0.000000  1.000000  0.000000 )  
               b(3) = (  0.000000  0.000000  1.000000 )  


     PseudoPot. # 1 for C  read from file:
     /home/fnattino/Programs/qe-6.1/Environ/tests/../..//pseudo/C.pbe-rrkjus.UPF
     MD5 check sum: 00fb224312de0c5b6853bd333518df6f
     Pseudo is Ultrasoft, Zval =  4.0
     Generated by new atomic code, or converted to UPF format
     Using radial grid of  627 points,  4 beta functions with: 
                l(1) =   0
                l(2) =   0
                l(3) =   1
                l(4) =   1
     Q(r) pseudized with 0 coefficients 


     PseudoPot. # 2 for H  read from file:
     /home/fnattino/Programs/qe-6.1/Environ/tests/../..//pseudo/H.pbe-rrkjus.UPF
     MD5 check sum: 7cc9d459525c9a0585f487a71c3c9563
     Pseudo is Ultrasoft, Zval =  1.0
     Generated by new atomic code, or converted to UPF format
     Using radial grid of 1061 points,  2 beta functions with: 
                l(1) =   0
                l(2) =   0
     Q(r) pseudized with 0 coefficients 


     PseudoPot. # 3 for N  read from file:
     /home/fnattino/Programs/qe-6.1/Environ/tests/../..//pseudo/N.pbe-rrkjus.UPF
     MD5 check sum: 0c3fbe5807a93f9ba59d5a7019aa238b
     Pseudo is Ultrasoft, Zval =  5.0
     Generated by new atomic code, or converted to UPF format
     Using radial grid of 1257 points,  4 beta functions with: 
                l(1) =   0
                l(2) =   0
                l(3) =   1
                l(4) =   1
     Q(r) pseudized with 0 coefficients 


     PseudoPot. # 4 for O  read from file:
     /home/fnattino/Programs/qe-6.1/Environ/tests/../..//pseudo/O.pbe-rrkjus.UPF
     MD5 check sum: 390ba29e75625707450f3bd3f0eb6be9
     Pseudo is Ultrasoft, Zval =  6.0
     Generated by new atomic code, or converted to UPF format
     Using radial grid of 1269 points,  4 beta functions with: 
                l(1) =   0
                l(2) =   0
                l(3) =   1
                l(4) =   1
     Q(r) pseudized with 0 coefficients 


     atomic species   valence    mass     pseudopotential
        C              4.00    12.00000     C ( 1.00)
        H              1.00     1.00000     H ( 1.00)
        N              5.00    14.00000     N ( 1.00)
        O              6.00    16.00000     O ( 1.00)

     No symmetry found



   Cartesian axes

     site n.     atom                  positions (alat units)
         1           C   tau(   1) = (   0.0000000   0.0000000   0.0000000  )
         2           C   tau(   2) = (   0.0000000   0.0000000   0.1455089  )
         3           N   tau(   3) = (   0.1170969   0.0000000  -0.0545024  )
         4           H   tau(   4) = (   0.0476617  -0.0825466   0.1792090  )
         5           H   tau(   5) = (  -0.0953183  -0.0000030   0.1792090  )
         6           H   tau(   6) = (   0.0476566   0.0825496   0.1792090  )
         7           O   tau(   7) = (  -0.0984002  -0.0000019  -0.0641310  )
         8           H   tau(   8) = (   0.1263131  -0.0000015  -0.1475548  )
         9           H   tau(   9) = (   0.1944645   0.0000134  -0.0025716  )

     number of k points=     1
                       cart. coord. in units 2pi/alat
        k(    1) = (   0.0000000   0.0000000   0.0000000), wk =   2.0000000

     Dense  grid:   350738 G-vectors     FFT dimensions: ( 120, 120, 120)

     Smooth grid:    88755 G-vectors     FFT dimensions: (  72,  72,  72)

     Estimated max dynamical RAM per process >     298.64MB

     Initial potential from superposition of free atoms
     Check: negative starting charge=   -0.000530

     starting charge   23.51886, renormalised to   24.00000

     negative rho (up, down):  5.411E-04 0.000E+00
     Starting wfc are   21 randomized atomic wfcs

     total cpu time spent up to now is       40.1 secs

     per-process dynamical memory:   566.8 Mb

     Self-consistent Calculation

     iteration #  1     ecut=    30.00 Ry     beta=0.70
     Davidson diagonalization with overlap
     ethr =  1.00E-02,  avg # of iterations =  2.0

     negative rho (up, down):  1.677E-04 0.000E+00

     add environment contribution to local potential
     polarization accuracy = 9.9E-06, # of iterations =  16

     total cpu time spent up to now is       43.3 secs

     total energy              =     -79.57096120 Ry
     Harris-Foulkes estimate   =     -81.75208041 Ry
     estimated scf accuracy    <       2.90357113 Ry
     electrostatic embedding   =       0.00000000 Ry
     cavitation energy         =       0.02739809 Ry
     PV energy                 =      -0.01763538 Ry
     correction to one-el term =       0.00000000 Ry

     iteration #  2     ecut=    30.00 Ry     beta=0.70
     Davidson diagonalization with overlap
     ethr =  1.00E-02,  avg # of iterations =  4.0

     negative rho (up, down):  1.539E-03 0.000E+00

     add environment contribution to local potential
     polarization accuracy = 3.1E-06, # of iterations =  17

     total cpu time spent up to now is       46.8 secs

     total energy              =     -79.97512527 Ry
     Harris-Foulkes estimate   =     -79.83791561 Ry
     estimated scf accuracy    <       1.89975384 Ry
     electrostatic embedding   =      -0.03021818 Ry
     cavitation energy         =       0.02739809 Ry
     PV energy                 =      -0.01763538 Ry
     correction to one-el term =      -1.12246483 Ry

     iteration #  3     ecut=    30.00 Ry     beta=0.70
     Davidson diagonalization with overlap
     ethr =  7.92E-03,  avg # of iterations =  3.0

     negative rho (up, down):  3.786E-04 0.000E+00

     add environment contribution to local potential
     polarization accuracy = 5.7E-06, # of iterations =  16

     total cpu time spent up to now is       50.1 secs

     total energy              =     -80.44168477 Ry
     Harris-Foulkes estimate   =     -79.89306736 Ry
     estimated scf accuracy    <       0.19899962 Ry
     electrostatic embedding   =      -0.04884171 Ry
     cavitation energy         =       0.02739809 Ry
     PV energy                 =      -0.01763538 Ry
     correction to one-el term =      -0.61010619 Ry

     iteration #  4     ecut=    30.00 Ry     beta=0.70
     Davidson diagonalization with overlap
     ethr =  8.29E-04,  avg # of iterations =  4.0

     negative rho (up, down):  2.092E-04 0.000E+00

     add environment contribution to local potential
     polarization accuracy = 8.0E-06, # of iterations =  16

     total cpu time spent up to now is       53.5 secs

     total energy              =     -80.49084927 Ry
     Harris-Foulkes estimate   =     -80.21363635 Ry
     estimated scf accuracy    <       0.02936973 Ry
     electrostatic embedding   =      -0.03901627 Ry
     cavitation energy         =       0.02739809 Ry
     PV energy                 =      -0.01763538 Ry
     correction to one-el term =      -0.26271495 Ry

     iteration #  5     ecut=    30.00 Ry     beta=0.70
     Davidson diagonalization with overlap
     ethr =  1.22E-04,  avg # of iterations =  2.0

     negative rho (up, down):  9.978E-05 0.000E+00

     add environment contribution to local potential
     polarization accuracy = 6.0E-06, # of iterations =  16

     total cpu time spent up to now is       56.8 secs

     total energy              =     -80.49902234 Ry
     Harris-Foulkes estimate   =     -80.52500821 Ry
     estimated scf accuracy    <       0.00339991 Ry
     electrostatic embedding   =      -0.04629062 Ry
     cavitation energy         =       0.02739809 Ry
     PV energy                 =      -0.01763538 Ry
     correction to one-el term =       0.06074683 Ry

     iteration #  6     ecut=    30.00 Ry     beta=0.70
     Davidson diagonalization with overlap
     ethr =  1.42E-05,  avg # of iterations =  3.0

     negative rho (up, down):  2.259E-04 0.000E+00

     total cpu time spent up to now is       58.2 secs

     End of self-consistent calculation

          k = 0.0000 0.0000 0.0000 ( 11060 PWs)   bands (ev):

   -25.5936 -22.2074 -17.7411 -14.2487 -12.8805 -11.1433 -10.5368  -9.5451
    -9.2184  -8.6389  -6.3057  -5.7900

     highest occupied level (ev):    -5.7900

!    total energy              =     -80.49997072 Ry
     Harris-Foulkes estimate   =     -80.58055837 Ry
     estimated scf accuracy    <       0.00032688 Ry

     The total energy is the sum of the following terms:

     one-electron contribution =    -236.16695533 Ry
     hartree contribution      =     121.53396058 Ry
     xc contribution           =     -22.69502042 Ry
     ewald contribution        =      56.74764018 Ry
     electrostatic embedding   =      -0.04701254 Ry
     cavitation energy         =       0.02739809 Ry
     PV energy                 =      -0.01763538 Ry
     correction to one-el term =       0.11765409 Ry

     convergence has been achieved in   6 iterations

     Forces acting on atoms (cartesian axes, Ry/au):

     atom    1 type  1   force =     0.02867803    0.00000252    0.01234819
     atom    2 type  1   force =    -0.00683448    0.00000790   -0.06269005
     atom    3 type  3   force =    -0.07003297    0.00000124    0.03145080
     atom    4 type  2   force =     0.02177070   -0.03033694    0.01471021
     atom    5 type  2   force =    -0.03292720   -0.00000636    0.01000444
     atom    6 type  2   force =     0.02177007    0.03032960    0.01471173
     atom    7 type  4   force =    -0.00682433    0.00000881   -0.00342373
     atom    8 type  2   force =     0.00167216   -0.00000413   -0.04661248
     atom    9 type  2   force =     0.04272802   -0.00000264    0.02950089

     Total force =     0.142058     Total SCF correction =     0.029108
     SCF correction compared to forces is large: reduce conv_thr to get better values

     Writing output data file pwscf.save
 
     init_run     :     39.51s CPU     39.97s WALL (       1 calls)
     electrons    :     17.08s CPU     18.23s WALL (       1 calls)
     forces       :     12.75s CPU     12.88s WALL (       1 calls)

     Called by init_run:
     wfcinit      :      0.09s CPU      0.10s WALL (       1 calls)
     potinit      :      0.91s CPU      0.98s WALL (       1 calls)

     Called by electrons:
     c_bands      :      1.09s CPU      1.10s WALL (       6 calls)
     sum_band     :      2.83s CPU      3.09s WALL (       6 calls)
     v_of_rho     :      3.78s CPU      3.89s WALL (       7 calls)
     newd         :      1.49s CPU      1.85s WALL (       7 calls)
     mix_rho      :      0.32s CPU      0.33s WALL (       6 calls)

     Called by c_bands:
     init_us_2    :      0.06s CPU      0.06s WALL (      13 calls)
     regterg      :      0.98s CPU      0.99s WALL (       6 calls)

     Called by sum_band:
     sum_band:bec :      0.00s CPU      0.00s WALL (       6 calls)
     addusdens    :      2.09s CPU      2.33s WALL (       6 calls)

     Called by *egterg:
     h_psi        :      0.96s CPU      0.95s WALL (      25 calls)
     s_psi        :      0.01s CPU      0.02s WALL (      25 calls)
     g_psi        :      0.01s CPU      0.01s WALL (      18 calls)
     rdiaghg      :      0.01s CPU      0.01s WALL (      24 calls)

     Called by h_psi:
     h_psi:pot    :      0.95s CPU      0.95s WALL (      25 calls)
     h_psi:calbec :      0.03s CPU      0.03s WALL (      25 calls)
     vloc_psi     :      0.89s CPU      0.89s WALL (      25 calls)
     add_vuspsi   :      0.03s CPU      0.02s WALL (      25 calls)

     General routines
     calbec       :      0.04s CPU      0.04s WALL (      35 calls)
     fft          :      6.64s CPU      7.01s WALL (     315 calls)
     ffts         :      0.05s CPU      0.04s WALL (      13 calls)
     fftw         :      0.72s CPU      0.69s WALL (     282 calls)
     interpolate  :      0.39s CPU      0.43s WALL (      13 calls)
     davcio       :      0.00s CPU      0.00s WALL (       1 calls)
 
     Parallel routines
     fft_scatter  :      1.83s CPU      1.97s WALL (     610 calls)
 
     Environ routines
     calc_eelect  :      0.03s CPU      0.02s WALL (      12 calls)
     calc_velect  :      7.24s CPU      7.68s WALL (      10 calls)
     dielectric   :      0.10s CPU      0.11s WALL (       2 calls)
     calc_felect  :      0.08s CPU      0.08s WALL (       1 calls)
 
     PWSCF        :  1m 9.52s CPU     1m11.27s WALL

 
   This run was terminated on:  12:41:43   1Feb2018            

=------------------------------------------------------------------------------=
   JOB DONE.
=------------------------------------------------------------------------------=

%%%% IONS %%%%%%%%%%%%%%%%%%%%%%%%%%%%%%%%%%%%%%%%%%%%%%%%%%%%%%%%%%%%%%%%%%%%%%
 number of ions             =          9
 ionic center of charge     =      0.0131609     0.0000000     0.0130099
 total ionic charge         =    -24.0000000
 ionic dipole               =      0.0000000     0.0000000     0.0000000
 ionic quadrupole (pc)      =    -75.9587432    -5.4513517   -95.3140149
 ionic quadrupole (gauss)   =    -78.9587432    -8.4513517   -98.3140149
 ion   1 type =  1 coordinates =      0.0000000     0.0000000     0.0000000
 ion   2 type =  1 coordinates =      0.0000000     0.0000000     2.9101782
 ion   3 type =  3 coordinates =      2.3419379     0.0000000    -1.0900479
 ion   4 type =  2 coordinates =      0.9532347    -1.6509323     3.5841800
 ion   5 type =  2 coordinates =     -1.9063663    -0.0000596     3.5841809
 ion   6 type =  2 coordinates =      0.9531315     1.6509919     3.5841800
 ion   7 type =  4 coordinates =     -1.9680045    -0.0000375    -1.2826193
 ion   8 type =  2 coordinates =      2.5262613    -0.0000303    -2.9510950
 ion   9 type =  2 coordinates =      3.8892907     0.0002681    -0.0514326

%%%% SYSTEM %%%%%%%%%%%%%%%%%%%%%%%%%%%%%%%%%%%%%%%%%%%%%%%%%%%%%%%%%%%%%%%%%%%%
 system is built from all present ionic types
 system defined dimension   =  0 
 system defined axis        =  3 
 system center              =      0.0131609     0.0000000     0.0130099 
 system width               =      0.1984688 

%%%% BOUNDARY %%%%%%%%%%%%%%%%%%%%%%%%%%%%%%%%%%%%%%%%%%%%%%%%%%%%%%%%%%%%%%%%%%
 boundary mode              = ionic                
 boundary is built from soft-spheres centered on ionic positions
 solvent-dependent scaling  =      1.1200000 
 softness parameter         =      0.5000000 
 volume of the QM region    =    741.2152861 
 surface of the QM region   =    426.5589287 

%%%% DIELECTRIC %%%%%%%%%%%%%%%%%%%%%%%%%%%%%%%%%%%%%%%%%%%%%%%%%%%%%%%%%%%%%%%%%
 dielectric build on homogeneous background
 environment bulk permitt.  =     78.3000000 
 dielectric flags
 need gradient              =  F 
 need factor depend. sqrt   =  T 
 total dielectric charge    =      0.0000000

%%%% ELECTRONS %%%%%%%%%%%%%%%%%%%%%%%%%%%%%%%%%%%%%%%%%%%%%%%%%%%%%%%%%%%%%%%%%
 number of electrons        =         24
 total electronic charge    =     24.0000000
 number of spin components  =  1

%%%% ELECTRONS %%%%%%%%%%%%%%%%%%%%%%%%%%%%%%%%%%%%%%%%%%%%%%%%%%%%%%%%%%%%%%%%%
 number of electrons        =         24
 total electronic charge    =     24.0000000
 number of spin components  =  1

%%%% COMPUTE ELECTROSTATIC POTENTIAL %%%%%%%%%%%%%%%%%%%%%%%%%%%%%%%%%%%%%%%%%%%
 Iteration #          1
  pAp =    89.8103133802622       rzold =    89.3166331017610       alpha = 
  0.994503078099606     
 delta_qm =   0.832502E-02 delta_en =   0.119761E+03 tol =   0.100000E-04
 Iteration #          2
  pAp =    39.2993876536918       rzold =    3.97929354217232       alpha = 
  0.101255866306062     
 delta_qm =   0.239908E-02 delta_en =   0.994565E+01 tol =   0.100000E-04
 Iteration #          3
  pAp =   0.568271263353295       rzold =   0.114500631780706       alpha = 
  0.201489392768258     
 delta_qm =   0.103021E-02 delta_en =   0.183399E+01 tol =   0.100000E-04
 Iteration #          4
  pAp =   5.276866831989999E-002  rzold =   9.375233214604274E-003  alpha = 
  0.177666663061662     
 delta_qm =   0.844957E-03 delta_en =   0.123371E+01 tol =   0.100000E-04
 Iteration #          5
  pAp =   5.697509001554349E-003  rzold =   1.783242603274481E-003  alpha = 
  0.312986359966784     
 delta_qm =   0.610325E-03 delta_en =   0.643674E+00 tol =   0.100000E-04
 Iteration #          6
  pAp =   3.105584913556148E-003  rzold =   1.243579583305896E-003  alpha = 
  0.400433289676789     
 delta_qm =   0.336434E-03 delta_en =   0.195588E+00 tol =   0.100000E-04
 Iteration #          7
  pAp =   2.158052021375995E-003  rzold =   6.810194088974083E-004  alpha = 
  0.315571358869831     
 delta_qm =   0.215984E-03 delta_en =   0.806098E-01 tol =   0.100000E-04
 Iteration #          8
  pAp =   1.688587045470350E-003  rzold =   3.539263943811919E-004  alpha = 
  0.209599141086983     
 delta_qm =   0.172273E-03 delta_en =   0.512833E-01 tol =   0.100000E-04
 Iteration #          9
  pAp =   3.225010640965353E-004  rzold =   1.581106404695821E-004  alpha = 
  0.490263934205980     
 delta_qm =   0.807306E-04 delta_en =   0.112621E-01 tol =   0.100000E-04
 Iteration #         10
  pAp =   1.581224650391878E-004  rzold =   4.726930405770744E-005  alpha = 
  0.298941102682611     
 delta_qm =   0.398133E-04 delta_en =   0.273906E-02 tol =   0.100000E-04
 Iteration #         11
  pAp =   2.273432352609739E-005  rzold =   8.055055438164979E-006  alpha = 
  0.354312519082362     
 delta_qm =   0.284375E-04 delta_en =   0.139742E-02 tol =   0.100000E-04
 Iteration #         12
  pAp =   3.427906725615858E-006  rzold =   1.624584657630172E-006  alpha = 
  0.473929073241717     
 delta_qm =   0.175693E-04 delta_en =   0.533401E-03 tol =   0.100000E-04
 Iteration #         13
  pAp =   1.973779786613597E-006  rzold =   9.752691038483514E-007  alpha = 
  0.494112418448471     
 delta_qm =   0.846469E-05 delta_en =   0.123813E-03 tol =   0.100000E-04
 Iteration #         14
  pAp =   1.485960926074952E-006  rzold =   4.596846035857195E-007  alpha = 
  0.309351743723127     
 delta_qm =   0.570127E-05 delta_en =   0.561677E-04 tol =   0.100000E-04
 Iteration #         15
  pAp =   3.728266063312692E-007  rzold =   1.225135687124525E-007  alpha = 
  0.328607365010841     
 delta_qm =   0.368288E-05 delta_en =   0.234379E-04 tol =   0.100000E-04
 Iteration #         16
  pAp =   1.027687986441672E-007  rzold =   3.488982610842883E-008  alpha = 
  0.339498238460814     
 delta_qm =   0.239433E-05 delta_en =   0.990628E-05 tol =   0.100000E-04
 Charges are converged, EXIT

%%%% ELECTRONS %%%%%%%%%%%%%%%%%%%%%%%%%%%%%%%%%%%%%%%%%%%%%%%%%%%%%%%%%%%%%%%%%
 number of electrons        =         24
 total electronic charge    =     24.0000000
 number of spin components  =  1

%%%% COMPUTE ELECTROSTATIC POTENTIAL %%%%%%%%%%%%%%%%%%%%%%%%%%%%%%%%%%%%%%%%%%%
 Warning: bad guess with residual norm =   0.221123E+03, reset to no guess
 Iteration #          1
  pAp =    92.0165173848245       rzold =    91.1928497806940       alpha = 
  0.991048698347430     
 delta_qm =   0.112280E-01 delta_en =   0.217845E+03 tol =   0.100000E-04
 Iteration #          2
  pAp =    58.9728128082160       rzold =    6.40879181735190       alpha = 
  0.108673666935199     
 delta_qm =   0.240840E-02 delta_en =   0.100230E+02 tol =   0.100000E-04
 Iteration #          3
  pAp =   0.973159148790019       rzold =   0.133541436332657       alpha = 
  0.137224663097188     
 delta_qm =   0.107098E-02 delta_en =   0.198200E+01 tol =   0.100000E-04
 Iteration #          4
  pAp =   7.599760283809405E-002  rzold =   1.388821512030254E-002  alpha = 
  0.182745436719762     
 delta_qm =   0.928116E-03 delta_en =   0.148850E+01 tol =   0.100000E-04
 Iteration #          5
  pAp =   6.982292919069527E-003  rzold =   2.278015703668251E-003  alpha = 
  0.326256106707684     
 delta_qm =   0.650455E-03 delta_en =   0.731103E+00 tol =   0.100000E-04
 Iteration #          6
  pAp =   3.097151234742663E-003  rzold =   1.329973995066339E-003  alpha = 
  0.429418486300313     
 delta_qm =   0.383722E-03 delta_en =   0.254435E+00 tol =   0.100000E-04
 Iteration #          7
  pAp =   4.916058507168697E-003  rzold =   1.057830167565131E-003  alpha = 
  0.215178514662220     
 delta_qm =   0.268306E-03 delta_en =   0.124396E+00 tol =   0.100000E-04
 Iteration #          8
  pAp =   1.353549118822999E-003  rzold =   4.499632193857153E-004  alpha = 
  0.332432132035953     
 delta_qm =   0.185347E-03 delta_en =   0.593628E-01 tol =   0.100000E-04
 Iteration #          9
  pAp =   2.915988190153264E-004  rzold =   1.492807448306234E-004  alpha = 
  0.511938784027713     
 delta_qm =   0.750807E-04 delta_en =   0.974094E-02 tol =   0.100000E-04
 Iteration #         10
  pAp =   2.033452898862751E-004  rzold =   6.004661515702155E-005  alpha = 
  0.295293858001844     
 delta_qm =   0.454688E-04 delta_en =   0.357249E-02 tol =   0.100000E-04
 Iteration #         11
  pAp =   2.357683837594253E-005  rzold =   8.459772005595137E-006  alpha = 
  0.358817067441382     
 delta_qm =   0.309715E-04 delta_en =   0.165755E-02 tol =   0.100000E-04
 Iteration #         12
  pAp =   5.143452486204349E-006  rzold =   2.119296918950693E-006  alpha = 
  0.412037814023756     
 delta_qm =   0.202674E-04 delta_en =   0.709809E-03 tol =   0.100000E-04
 Iteration #         13
  pAp =   3.055812527465568E-006  rzold =   1.305440138369911E-006  alpha = 
  0.427199026981089     
 delta_qm =   0.106714E-04 delta_en =   0.196782E-03 tol =   0.100000E-04
 Iteration #         14
  pAp =   1.333868613557944E-006  rzold =   5.521765961308366E-007  alpha = 
  0.413966256135203     
 delta_qm =   0.560536E-05 delta_en =   0.542939E-04 tol =   0.100000E-04
 Iteration #         15
  pAp =   3.306538590284853E-007  rzold =   1.260607388595130E-007  alpha = 
  0.381246839912590     
 delta_qm =   0.365596E-05 delta_en =   0.230965E-04 tol =   0.100000E-04
 Iteration #         16
  pAp =   8.916062839533087E-008  rzold =   3.025548682027375E-008  alpha = 
  0.339336850410289     
 delta_qm =   0.249645E-05 delta_en =   0.107693E-04 tol =   0.100000E-04
 Iteration #         17
  pAp =   7.935864160727987E-008  rzold =   2.435554381346995E-008  alpha = 
  0.306904746857911     
 delta_qm =   0.134967E-05 delta_en =   0.314772E-05 tol =   0.100000E-04
 Charges are converged, EXIT

%%%% ELECTRONS %%%%%%%%%%%%%%%%%%%%%%%%%%%%%%%%%%%%%%%%%%%%%%%%%%%%%%%%%%%%%%%%%
 number of electrons        =         24
 total electronic charge    =     24.0000000
 number of spin components  =  1

%%%% COMPUTE ELECTROSTATIC POTENTIAL %%%%%%%%%%%%%%%%%%%%%%%%%%%%%%%%%%%%%%%%%%%
 Warning: bad guess with residual norm =   0.146242E+03, reset to no guess
 Iteration #          1
  pAp =    92.8814217551078       rzold =    92.3285644361384       alpha = 
  0.994047708265846     
 delta_qm =   0.915392E-02 delta_en =   0.144796E+03 tol =   0.100000E-04
 Iteration #          2
  pAp =    37.5591030955064       rzold =    4.17373222985574       alpha = 
  0.111124384925877     
 delta_qm =   0.221312E-02 delta_en =   0.846355E+01 tol =   0.100000E-04
 Iteration #          3
  pAp =   0.698315447252449       rzold =   0.100379298850683       alpha = 
  0.143744921074895     
 delta_qm =   0.985354E-03 delta_en =   0.167776E+01 tol =   0.100000E-04
 Iteration #          4
  pAp =   7.413012848581579E-002  rzold =   1.319752248589241E-002  alpha = 
  0.178031830720726     
 delta_qm =   0.887771E-03 delta_en =   0.136190E+01 tol =   0.100000E-04
 Iteration #          5
  pAp =   6.234114180270240E-003  rzold =   2.015146485776257E-003  alpha = 
  0.323245039712908     
 delta_qm =   0.635037E-03 delta_en =   0.696854E+00 tol =   0.100000E-04
 Iteration #          6
  pAp =   2.432148736516723E-003  rzold =   1.200272111093702E-003  alpha = 
  0.493502758722194     
 delta_qm =   0.350919E-03 delta_en =   0.212793E+00 tol =   0.100000E-04
 Iteration #          7
  pAp =   3.705513268759214E-003  rzold =   8.731438719249024E-004  alpha = 
  0.235633718892949     
 delta_qm =   0.246229E-03 delta_en =   0.104767E+00 tol =   0.100000E-04
 Iteration #          8
  pAp =   1.774699185330744E-003  rzold =   4.708336427922489E-004  alpha = 
  0.265303352074567     
 delta_qm =   0.175073E-03 delta_en =   0.529641E-01 tol =   0.100000E-04
 Iteration #          9
  pAp =   2.876004175335987E-004  rzold =   1.360803553981945E-004  alpha = 
  0.473157711540169     
 delta_qm =   0.756291E-04 delta_en =   0.988375E-02 tol =   0.100000E-04
 Iteration #         10
  pAp =   1.700140273386057E-004  rzold =   5.320277706290950E-005  alpha = 
  0.312931690965411     
 delta_qm =   0.451348E-04 delta_en =   0.352020E-02 tol =   0.100000E-04
 Iteration #         11
  pAp =   2.368823570191359E-005  rzold =   8.178007875872951E-006  alpha = 
  0.345234992541564     
 delta_qm =   0.302997E-04 delta_en =   0.158643E-02 tol =   0.100000E-04
 Iteration #         12
  pAp =   4.589595603814194E-006  rzold =   2.021750971639147E-006  alpha = 
  0.440507431626213     
 delta_qm =   0.196616E-04 delta_en =   0.668011E-03 tol =   0.100000E-04
 Iteration #         13
  pAp =   3.073081160210623E-006  rzold =   1.268773322730197E-006  alpha = 
  0.412866844897529     
 delta_qm =   0.105822E-04 delta_en =   0.193505E-03 tol =   0.100000E-04
 Iteration #         14
  pAp =   1.420458905649238E-006  rzold =   5.671903565138810E-007  alpha = 
  0.399300785301240     
 delta_qm =   0.540459E-05 delta_en =   0.504741E-04 tol =   0.100000E-04
 Iteration #         15
  pAp =   2.873660257330565E-007  rzold =   1.149719864263475E-007  alpha = 
  0.400089001937719     
 delta_qm =   0.348720E-05 delta_en =   0.210135E-04 tol =   0.100000E-04
 Iteration #         16
  pAp =   4.041535223509073E-008  rzold =   2.239788643543975E-008  alpha = 
  0.554192533202587     
 delta_qm =   0.181893E-05 delta_en =   0.571707E-05 tol =   0.100000E-04
 Charges are converged, EXIT

%%%% ELECTRONS %%%%%%%%%%%%%%%%%%%%%%%%%%%%%%%%%%%%%%%%%%%%%%%%%%%%%%%%%%%%%%%%%
 number of electrons        =         24
 total electronic charge    =     24.0000000
 number of spin components  =  1

%%%% COMPUTE ELECTROSTATIC POTENTIAL %%%%%%%%%%%%%%%%%%%%%%%%%%%%%%%%%%%%%%%%%%%
 Warning: bad guess with residual norm =   0.159855E+03, reset to no guess
 Iteration #          1
  pAp =    92.7446157290420       rzold =    92.1418379381782       alpha = 
  0.993500670781527     
 delta_qm =   0.956574E-02 delta_en =   0.158118E+03 tol =   0.100000E-04
 Iteration #          2
  pAp =    37.7868765840970       rzold =    4.36426633116838       alpha = 
  0.115496879490832     
 delta_qm =   0.218792E-02 delta_en =   0.827192E+01 tol =   0.100000E-04
 Iteration #          3
  pAp =   0.642849487063478       rzold =   9.687901794055546E-002  alpha = 
  0.150702489292006     
 delta_qm =   0.912177E-03 delta_en =   0.143781E+01 tol =   0.100000E-04
 Iteration #          4
  pAp =   8.993524883749406E-002  rzold =   1.479264323625842E-002  alpha = 
  0.164481039719894     
 delta_qm =   0.872555E-03 delta_en =   0.131562E+01 tol =   0.100000E-04
 Iteration #          5
  pAp =   7.223557424819118E-003  rzold =   2.191786378705305E-003  alpha = 
  0.303422019069806     
 delta_qm =   0.624812E-03 delta_en =   0.674594E+00 tol =   0.100000E-04
 Iteration #          6
  pAp =   2.189993005471990E-003  rzold =   1.115676905849051E-003  alpha = 
  0.509443136604264     
 delta_qm =   0.366143E-03 delta_en =   0.231657E+00 tol =   0.100000E-04
 Iteration #          7
  pAp =   3.280687669650709E-003  rzold =   8.486016893747187E-004  alpha = 
  0.258665796572177     
 delta_qm =   0.250462E-03 delta_en =   0.108399E+00 tol =   0.100000E-04
 Iteration #          8
  pAp =   2.062385123918977E-003  rzold =   4.938015995371716E-004  alpha = 
  0.239432293130025     
 delta_qm =   0.181396E-03 delta_en =   0.568592E-01 tol =   0.100000E-04
 Iteration #          9
  pAp =   3.398217308297664E-004  rzold =   1.468852510034351E-004  alpha = 
  0.432242077764642     
 delta_qm =   0.858924E-04 delta_en =   0.127483E-01 tol =   0.100000E-04
 Iteration #         10
  pAp =   1.811201762065462E-004  rzold =   6.156555137047025E-005  alpha = 
  0.339915478550893     
 delta_qm =   0.457582E-04 delta_en =   0.361811E-02 tol =   0.100000E-04
 Iteration #         11
  pAp =   2.667966796183467E-005  rzold =   9.328540868899608E-006  alpha = 
  0.349649811318646     
 delta_qm =   0.302442E-04 delta_en =   0.158062E-02 tol =   0.100000E-04
 Iteration #         12
  pAp =   4.723388110932639E-006  rzold =   2.040304949513625E-006  alpha = 
  0.431957929688476     
 delta_qm =   0.202840E-04 delta_en =   0.710967E-03 tol =   0.100000E-04
 Iteration #         13
  pAp =   3.062309384855447E-006  rzold =   1.252236078737902E-006  alpha = 
  0.408918865262535     
 delta_qm =   0.110602E-04 delta_en =   0.211382E-03 tol =   0.100000E-04
 Iteration #         14
  pAp =   1.447247945587528E-006  rzold =   5.958875955664115E-007  alpha = 
  0.411738429053015     
 delta_qm =   0.548421E-05 delta_en =   0.519722E-04 tol =   0.100000E-04
 Iteration #         15
  pAp =   3.193066419438868E-007  rzold =   1.275637745579212E-007  alpha = 
  0.399502414924205     
 delta_qm =   0.349753E-05 delta_en =   0.211382E-04 tol =   0.100000E-04
 Iteration #         16
  pAp =   5.549103661789580E-008  rzold =   2.465114457228792E-008  alpha = 
  0.444236512322387     
 delta_qm =   0.214670E-05 delta_en =   0.796320E-05 tol =   0.100000E-04
 Charges are converged, EXIT

%%%% ELECTRONS %%%%%%%%%%%%%%%%%%%%%%%%%%%%%%%%%%%%%%%%%%%%%%%%%%%%%%%%%%%%%%%%%
 number of electrons        =         24
 total electronic charge    =     24.0000000
 number of spin components  =  1

%%%% COMPUTE ELECTROSTATIC POTENTIAL %%%%%%%%%%%%%%%%%%%%%%%%%%%%%%%%%%%%%%%%%%%
 Warning: bad guess with residual norm =   0.160445E+03, reset to no guess
 Iteration #          1
  pAp =    92.8794506860606       rzold =    92.2756679887176       alpha = 
  0.993499286517275     
 delta_qm =   0.958330E-02 delta_en =   0.158699E+03 tol =   0.100000E-04
 Iteration #          2
  pAp =    37.5684724392326       rzold =    4.35582646152309       alpha = 
  0.115943667088639     
 delta_qm =   0.216781E-02 delta_en =   0.812059E+01 tol =   0.100000E-04
 Iteration #          3
  pAp =   0.620606575567015       rzold =   9.438435856268879E-002  alpha = 
  0.152084045317204     
 delta_qm =   0.901487E-03 delta_en =   0.140431E+01 tol =   0.100000E-04
 Iteration #          4
  pAp =   8.948651201937116E-002  rzold =   1.462779510898301E-002  alpha = 
  0.163463686078373     
 delta_qm =   0.872904E-03 delta_en =   0.131667E+01 tol =   0.100000E-04
 Iteration #          5
  pAp =   7.422831731551825E-003  rzold =   2.215922952927353E-003  alpha = 
  0.298527978683425     
 delta_qm =   0.624680E-03 delta_en =   0.674309E+00 tol =   0.100000E-04
 Iteration #          6
  pAp =   2.175977847976840E-003  rzold =   1.112757983455551E-003  alpha = 
  0.511382955708929     
 delta_qm =   0.367593E-03 delta_en =   0.233495E+00 tol =   0.100000E-04
 Iteration #          7
  pAp =   3.323070035756377E-003  rzold =   8.537754475760785E-004  alpha = 
  0.256923699587856     
 delta_qm =   0.251954E-03 delta_en =   0.109695E+00 tol =   0.100000E-04
 Iteration #          8
  pAp =   2.070044025645406E-003  rzold =   4.997348223518176E-004  alpha = 
  0.241412654108170     
 delta_qm =   0.181989E-03 delta_en =   0.572311E-01 tol =   0.100000E-04
 Iteration #          9
  pAp =   3.257652707381251E-004  rzold =   1.441245751268884E-004  alpha = 
  0.442418477575367     
 delta_qm =   0.848183E-04 delta_en =   0.124315E-01 tol =   0.100000E-04
 Iteration #         10
  pAp =   1.815726171894395E-004  rzold =   6.089606533779628E-005  alpha = 
  0.335381327208947     
 delta_qm =   0.457983E-04 delta_en =   0.362445E-02 tol =   0.100000E-04
 Iteration #         11
  pAp =   2.681545283409280E-005  rzold =   9.327600984800424E-006  alpha = 
  0.347844246469015     
 delta_qm =   0.301629E-04 delta_en =   0.157214E-02 tol =   0.100000E-04
 Iteration #         12
  pAp =   4.735808016899443E-006  rzold =   2.037614401405102E-006  alpha = 
  0.430256968638509     
 delta_qm =   0.202125E-04 delta_en =   0.705968E-03 tol =   0.100000E-04
 Iteration #         13
  pAp =   3.044549719973377E-006  rzold =   1.251875528139280E-006  alpha = 
  0.411185772374323     
 delta_qm =   0.110271E-04 delta_en =   0.210119E-03 tol =   0.100000E-04
 Iteration #         14
  pAp =   1.435064645427214E-006  rzold =   5.909819069548889E-007  alpha = 
  0.411815529591669     
 delta_qm =   0.547546E-05 delta_en =   0.518066E-04 tol =   0.100000E-04
 Iteration #         15
  pAp =   3.195189928235954E-007  rzold =   1.280352533702987E-007  alpha = 
  0.400712496740330     
 delta_qm =   0.348963E-05 delta_en =   0.210428E-04 tol =   0.100000E-04
 Iteration #         16
  pAp =   4.154444279131257E-008  rzold =   2.279214613567582E-008  alpha = 
  0.548620816751980     
 delta_qm =   0.185619E-05 delta_en =   0.595371E-05 tol =   0.100000E-04
 Charges are converged, EXIT

%%%% ELECTRONS %%%%%%%%%%%%%%%%%%%%%%%%%%%%%%%%%%%%%%%%%%%%%%%%%%%%%%%%%%%%%%%%%
 number of electrons        =         24
 total electronic charge    =     24.0000000
 number of spin components  =  1
