
     Program PWSCF v.6.7+ starts on 22Apr2021 at 11:42:17 

     This program is part of the open-source Quantum ESPRESSO suite
     for quantum simulation of materials; please cite
         "P. Giannozzi et al., J. Phys.:Condens. Matter 21 395502 (2009);
         "P. Giannozzi et al., J. Phys.:Condens. Matter 29 465901 (2017);
          URL http://www.quantum-espresso.org", 
     in publications or presentations arising from this work. More details at
     http://www.quantum-espresso.org/quote

     Parallel version (MPI), running on     1 processors

     MPI processes distributed on     1 nodes
     Reading input from cation-dblcell.in

     Current dimensions of program PWSCF are:
     Max number of different atomic species (ntypx) = 10
     Max number of k-points (npk) =  40000
     Max angular momentum in pseudopotentials (lmaxx) =  3
     file C.pbe-rrkjus.UPF: wavefunction(s)  2S 2P renormalized
     file H.pbe-rrkjus.UPF: wavefunction(s)  1S renormalized
     file N.pbe-rrkjus.UPF: wavefunction(s)  2S renormalized
     file O.pbe-rrkjus.UPF: wavefunction(s)  2S renormalized

     gamma-point specific algorithms are used

     Subspace diagonalization in iterative solution of the eigenvalue problem:
     a serial algorithm will be used


     G-vector sticks info
     --------------------
     sticks:   dense  smooth     PW     G-vecs:    dense   smooth      PW
     Sum        2385     949    241                87655    22119    2777



     bravais-lattice index     =            1
     lattice parameter (alat)  =      10.0000  a.u.
     unit-cell volume          =    1000.0000 (a.u.)^3
     number of atoms/cell      =           10
     number of atomic types    =            4
     number of electrons       =        24.00
     number of Kohn-Sham states=           12
     kinetic-energy cutoff     =      30.0000  Ry
     charge density cutoff     =     300.0000  Ry
     scf convergence threshold =      1.0E-03
     mixing beta               =       0.7000
     number of iterations used =            8  plain     mixing
     Exchange-correlation= SLA  PW   PBE  PBE
                           (   1   4   3   4   0   0   0)


     Environ Module
     ==============

     Plese cite
         O. Andreussi, I. Dabo and N. Marzari, J. Chem. Phys. 136, 064102 (2012)         
     in publications or presentations arising from this work.

     compensation onset threshold      =               0.1000E+03 
     static permittivity               =                    78.30 
     epsilon calculation mode          =                    ionic 
     surface tension in input (dyn/cm) =                    50.00 
     surface tension in internal units =               0.6423E-04 
     external pressure in input (GPa)  =                    -0.35 
     external pressure in inter. units =              -0.2379E-04 

     Electrostatic Setup
     -------------------
     electrostatic problem to solve    = generalized              
     numerical solver adopted          = cg                       
     type of auxiliary density adopted = none                     
     type of core tool for poisson     = fft                      



     celldm(1)=  10.000000  celldm(2)=   0.000000  celldm(3)=   0.000000
     celldm(4)=   0.000000  celldm(5)=   0.000000  celldm(6)=   0.000000

     crystal axes: (cart. coord. in units of alat)
               a(1) = (   1.000000   0.000000   0.000000 )  
               a(2) = (   0.000000   1.000000   0.000000 )  
               a(3) = (   0.000000   0.000000   1.000000 )  

     reciprocal axes: (cart. coord. in units 2 pi/alat)
               b(1) = (  1.000000  0.000000  0.000000 )  
               b(2) = (  0.000000  1.000000  0.000000 )  
               b(3) = (  0.000000  0.000000  1.000000 )  


     PseudoPot. # 1 for C  read from file:
     ../../../pseudo/C.pbe-rrkjus.UPF
     MD5 check sum: c9ac5a99bc85b198593446162950cd17
     Pseudo is Ultrasoft, Zval =  4.0
     Generated by new atomic code, or converted to UPF format
     Using radial grid of  627 points,  4 beta functions with: 
                l(1) =   0
                l(2) =   0
                l(3) =   1
                l(4) =   1
     Q(r) pseudized with 0 coefficients 


     PseudoPot. # 2 for H  read from file:
     ../../../pseudo/H.pbe-rrkjus.UPF
     MD5 check sum: 2d52a7f45632fd764c17cc6affed14c8
     Pseudo is Ultrasoft, Zval =  1.0
     Generated by new atomic code, or converted to UPF format
     Using radial grid of 1061 points,  2 beta functions with: 
                l(1) =   0
                l(2) =   0
     Q(r) pseudized with 0 coefficients 


     PseudoPot. # 3 for N  read from file:
     ../../../pseudo/N.pbe-rrkjus.UPF
     MD5 check sum: 28c76d763763edb36c62a6ca2be9aebd
     Pseudo is Ultrasoft, Zval =  5.0
     Generated by new atomic code, or converted to UPF format
     Using radial grid of 1257 points,  4 beta functions with: 
                l(1) =   0
                l(2) =   0
                l(3) =   1
                l(4) =   1
     Q(r) pseudized with 0 coefficients 


     PseudoPot. # 4 for O  read from file:
     ../../../pseudo/O.pbe-rrkjus.UPF
     MD5 check sum: fadcf19ee70a498d3030e2e79cf929a4
     Pseudo is Ultrasoft, Zval =  6.0
     Generated by new atomic code, or converted to UPF format
     Using radial grid of 1269 points,  4 beta functions with: 
                l(1) =   0
                l(2) =   0
                l(3) =   1
                l(4) =   1
     Q(r) pseudized with 0 coefficients 


     atomic species   valence    mass     pseudopotential
        C              4.00    12.00000     C ( 1.00)
        H              1.00     1.00000     H ( 1.00)
        N              5.00    14.00000     N ( 1.00)
        O              6.00    16.00000     O ( 1.00)

     No symmetry found



   Cartesian axes

     site n.     atom                  positions (alat units)
         1           C   tau(   1) = (   0.0000000   0.0000000   0.0000000  )
         2           C   tau(   2) = (   0.0000000   0.0000000   0.2910178  )
         3           N   tau(   3) = (   0.2341938   0.0000000  -0.1090048  )
         4           H   tau(   4) = (   0.0953235  -0.1650932   0.3584180  )
         5           H   tau(   5) = (  -0.1906366  -0.0000060   0.3584181  )
         6           H   tau(   6) = (   0.0953131   0.1650992   0.3584180  )
         7           O   tau(   7) = (  -0.1968004  -0.0000037  -0.1282619  )
         8           H   tau(   8) = (   0.2526261  -0.0000030  -0.2951095  )
         9           H   tau(   9) = (   0.3889291   0.0000268  -0.0051433  )
        10           H   tau(  10) = (  -0.1540732  -0.0000089  -0.3045722  )

     number of k points=     1
                       cart. coord. in units 2pi/alat
        k(    1) = (   0.0000000   0.0000000   0.0000000), wk =   2.0000000

     Dense  grid:    43828 G-vectors     FFT dimensions: (  60,  60,  60)

     Smooth grid:    11060 G-vectors     FFT dimensions: (  36,  36,  36)

     Estimated max dynamical RAM per process >      79.39 MB

     Initial potential from superposition of free atoms

     starting charge   24.42266, renormalised to   24.00000
     Starting wfcs are   22 randomized atomic wfcs

     total cpu time spent up to now is      166.2 secs

     Self-consistent Calculation

     iteration #  1     ecut=    30.00 Ry     beta= 0.70
     Davidson diagonalization with overlap
     ethr =  1.00E-02,  avg # of iterations =  2.0

     add environment contribution to local potential
     polarization accuracy = 6.9E-06, # of iterations =  16

     total cpu time spent up to now is      177.2 secs

     total energy              =     -80.54751845 Ry
     estimated scf accuracy    <       3.21197354 Ry
     electrostatic embedding   =       0.03781547 Ry
     cavitation energy         =       0.02741319 Ry
     PV energy                 =      -0.01754709 Ry
     correction to one-el term =      -0.00000000 Ry

     iteration #  2     ecut=    30.00 Ry     beta= 0.70
     Davidson diagonalization with overlap
     ethr =  1.00E-02,  avg # of iterations =  3.0

     add environment contribution to local potential
     polarization accuracy = 4.9E-06, # of iterations =  16

     total cpu time spent up to now is      188.6 secs

     total energy              =     -81.16949321 Ry
     estimated scf accuracy    <       0.84067886 Ry
     electrostatic embedding   =       0.18141490 Ry
     cavitation energy         =       0.02741319 Ry
     PV energy                 =      -0.01754709 Ry
     correction to one-el term =       4.91149814 Ry

     iteration #  3     ecut=    30.00 Ry     beta= 0.70
     Davidson diagonalization with overlap
     ethr =  3.50E-03,  avg # of iterations =  2.0

     add environment contribution to local potential
     polarization accuracy = 5.9E-06, # of iterations =  15

     total cpu time spent up to now is      199.5 secs

     total energy              =     -81.26221001 Ry
     estimated scf accuracy    <       0.03504370 Ry
     electrostatic embedding   =       0.19378124 Ry
     cavitation energy         =       0.02741319 Ry
     PV energy                 =      -0.01754709 Ry
     correction to one-el term =       5.00919835 Ry

     iteration #  4     ecut=    30.00 Ry     beta= 0.70
     Davidson diagonalization with overlap
     ethr =  1.46E-04,  avg # of iterations =  5.0

     add environment contribution to local potential
     polarization accuracy = 8.7E-06, # of iterations =  15

     total cpu time spent up to now is      210.4 secs

     total energy              =     -81.28114176 Ry
     estimated scf accuracy    <       0.04894609 Ry
     electrostatic embedding   =       0.19855099 Ry
     cavitation energy         =       0.02741319 Ry
     PV energy                 =      -0.01754709 Ry
     correction to one-el term =       5.00949477 Ry

     iteration #  5     ecut=    30.00 Ry     beta= 0.70
     Davidson diagonalization with overlap
     ethr =  1.46E-04,  avg # of iterations =  3.0

     add environment contribution to local potential
     polarization accuracy = 8.9E-06, # of iterations =  15

     total cpu time spent up to now is      221.3 secs

     total energy              =     -81.28261910 Ry
     estimated scf accuracy    <       0.00703201 Ry
     electrostatic embedding   =       0.19974086 Ry
     cavitation energy         =       0.02741319 Ry
     PV energy                 =      -0.01754709 Ry
     correction to one-el term =       5.02720417 Ry

     iteration #  6     ecut=    30.00 Ry     beta= 0.70
     Davidson diagonalization with overlap
     ethr =  2.93E-05,  avg # of iterations =  3.0

     the potential shift due to the Gaussian-smeared nuclei is    -0.0198 ev

     total cpu time spent up to now is      222.0 secs

     End of self-consistent calculation

          k = 0.0000 0.0000 0.0000 (  1389 PWs)   bands (ev):

   -28.9603 -22.9776 -18.4584 -16.3661 -14.6987 -13.6367 -11.6877 -10.5525
    -9.6994  -9.4235  -8.8102  -7.1322

     highest occupied level (ev):    -7.1322

!    total energy              =     -81.28517243 Ry
     estimated scf accuracy    <       0.00086240 Ry

     The total energy is the sum of the following terms:
     one-electron contribution =    -121.89676750 Ry
     hartree contribution      =      63.21815507 Ry
     xc contribution           =     -23.00590295 Ry
     ewald contribution        =      -4.85220152 Ry
     electrostatic embedding   =       0.20044722 Ry
     cavitation energy         =       0.02741319 Ry
     PV energy                 =      -0.01754709 Ry
     correction to one-el term =       5.04123115 Ry

     convergence has been achieved in   6 iterations
 forces lc
       1   -0.0359   -0.0011   -0.0208
       2   -0.0370   -0.0007    0.0640
       3    0.0423   -0.0029    1.9365
       4    0.0098   -0.0035    0.0332
       5   -0.0207    0.0003    0.0213
       6    0.0001   -0.0006    0.0274
       7-1710.1464  -39.9683  796.3451
       8    0.0460   -0.0000   -0.0124
       9    0.0946    0.0002    0.0224
      10    0.0337    0.0000   -0.0158

     Forces acting on atoms (cartesian axes, Ry/au):

     atom    1 type  1   force =   171.22074991    3.99654990  -79.72050689
     atom    2 type  1   force =   170.95735301    3.99699637  -80.05983244
     atom    3 type  3   force =   170.87663476    3.99473687  -77.74973204
     atom    4 type  2   force =   171.01517587    3.95732731  -79.85310908
     atom    5 type  2   force =   170.94802696    3.99800022  -79.87514374
     atom    6 type  2   force =   171.00550778    4.03390771  -79.85894337
     atom    7 type  4   force = -1539.17480959  -35.97070269  716.62776714
     atom    8 type  2   force =   171.06041035    3.99764054  -79.85881639
     atom    9 type  2   force =   171.08436406    3.99788158  -79.80078947
     atom   10 type  2   force =   171.00658690    3.99766220  -79.85089370

     Total force =  1790.068910     Total SCF correction =     0.064664

     Writing output data file ./tmp/pwscf.save/

     init_run     :    158.52s CPU    166.13s WALL (       1 calls)
     electrons    :     53.41s CPU     55.80s WALL (       1 calls)
     forces       :     51.61s CPU     52.52s WALL (       1 calls)

     Called by init_run:
     wfcinit      :      0.01s CPU      0.02s WALL (       1 calls)
     potinit      :      0.52s CPU      0.57s WALL (       1 calls)
     hinit0       :    157.45s CPU    164.78s WALL (       1 calls)

     Called by electrons:
     c_bands      :      0.13s CPU      0.18s WALL (       6 calls)
     sum_band     :      0.73s CPU      0.45s WALL (       6 calls)
     v_of_rho     :      0.52s CPU      0.61s WALL (       7 calls)
     newd         :      0.26s CPU      0.31s WALL (       7 calls)
     mix_rho      :      0.03s CPU      0.04s WALL (       6 calls)

     Called by c_bands:
     init_us_2    :      0.01s CPU      0.01s WALL (      13 calls)
     regterg      :      0.13s CPU      0.17s WALL (       6 calls)

     Called by *egterg:
     rdiaghg      :      0.00s CPU      0.00s WALL (      24 calls)
     h_psi        :      0.11s CPU      0.16s WALL (      25 calls)
     s_psi        :      0.01s CPU      0.00s WALL (      25 calls)
     g_psi        :      0.00s CPU      0.00s WALL (      18 calls)

     Called by h_psi:
     h_psi:calbec :      0.00s CPU      0.00s WALL (      25 calls)
     vloc_psi     :      0.09s CPU      0.09s WALL (      25 calls)
     add_vuspsi   :      0.01s CPU      0.06s WALL (      25 calls)

     General routines
     calbec       :      0.00s CPU      0.01s WALL (      35 calls)
     fft          :     33.68s CPU     34.76s WALL (     282 calls)
     ffts         :      0.01s CPU      0.01s WALL (      13 calls)
     fftw         :      0.08s CPU      0.09s WALL (     276 calls)
     interpolate  :      0.02s CPU      0.04s WALL (       7 calls)

     Parallel routines
     fft_scatt_xy :      3.44s CPU      3.45s WALL (     201 calls)
     fft_scatt_yz :      4.78s CPU      4.80s WALL (     201 calls)

     Environ routines
     calc_eelect  :      0.04s CPU      0.04s WALL (      12 calls)
     calc_velect  :     44.22s CPU     46.04s WALL (      10 calls)
     dielectric   :      0.52s CPU      0.68s WALL (       2 calls)
     calc_felect  :      1.26s CPU      1.37s WALL (       1 calls)

     PWSCF        :   4m23.63s CPU   4m34.66s WALL


   This run was terminated on:  11:46:51  22Apr2021            

=------------------------------------------------------------------------------=
   JOB DONE.
=------------------------------------------------------------------------------=
 Calling electrostatic_initbase now
 electrolyte_distance:    0.0000000000000000     
 sc_distance:    0.0000000000000000     
 velectrostatic started
 vreference created

%%%% IONS %%%%%%%%%%%%%%%%%%%%%%%%%%%%%%%%%%%%%%%%%%%%%%%%%%%%%%%%%%%%%%%%%%%%%%
 number of ions             =         10
 ionic center of charge     =      0.0191059    -0.0000003     0.0127962
 total ionic charge         =    -25.0000000
 ionic dipole               =      0.0000000     0.0000000     0.0000000
 ionic quadrupole (pc)      =    -79.0828051    -5.4513517  -105.8059620
 ionic quadrupole (gauss)   =    -82.2078051    -8.5763517  -108.9309620
 ion   1 type =  1 coordinates =      0.0000000     0.0000000     0.0000000
 ion   2 type =  1 coordinates =      0.0000000     0.0000000     2.9101782
 ion   3 type =  3 coordinates =      2.3419379     0.0000000    -1.0900479
 ion   4 type =  2 coordinates =      0.9532347    -1.6509323     3.5841800
 ion   5 type =  2 coordinates =     -1.9063663    -0.0000596     3.5841809
 ion   6 type =  2 coordinates =      0.9531315     1.6509919     3.5841800
 ion   7 type =  4 coordinates =     -1.9680045    -0.0000375    -1.2826193
 ion   8 type =  2 coordinates =      2.5262613    -0.0000303    -2.9510950
 ion   9 type =  2 coordinates =      3.8892907     0.0002681    -0.0514326
 ion  10 type =  2 coordinates =     -1.5407317    -0.0000890    -3.0457220

%%%% SYSTEM %%%%%%%%%%%%%%%%%%%%%%%%%%%%%%%%%%%%%%%%%%%%%%%%%%%%%%%%%%%%%%%%%%%%
 system is built from all present ionic types
 system defined dimension   =  0 
 system defined axis        =  3 
 system center              =      0.0191059    -0.0000003     0.0127962 
 system width               =      0.4042851 

%%%% IONS %%%%%%%%%%%%%%%%%%%%%%%%%%%%%%%%%%%%%%%%%%%%%%%%%%%%%%%%%%%%%%%%%%%%%%
 number of ions             =         10
 ionic center of charge     =      0.0191059    -0.0000003     0.0127962
 total ionic charge         =    -25.0000000
 ionic dipole               =      0.0000000     0.0000000     0.0000000
 ionic quadrupole (pc)      =    -79.0828051    -5.4513517  -105.8059620
 ionic quadrupole (gauss)   =    -82.2078051    -8.5763517  -108.9309620
 ion   1 type =  1 coordinates =      0.0000000     0.0000000     0.0000000
 ion   2 type =  1 coordinates =      0.0000000     0.0000000     2.9101782
 ion   3 type =  3 coordinates =      2.3419379     0.0000000    -1.0900479
 ion   4 type =  2 coordinates =      0.9532347    -1.6509323     3.5841800
 ion   5 type =  2 coordinates =     -1.9063663    -0.0000596     3.5841809
 ion   6 type =  2 coordinates =      0.9531315     1.6509919     3.5841800
 ion   7 type =  4 coordinates =     -1.9680045    -0.0000375    -1.2826193
 ion   8 type =  2 coordinates =      2.5262613    -0.0000303    -2.9510950
 ion   9 type =  2 coordinates =      3.8892907     0.0002681    -0.0514326
 ion  10 type =  2 coordinates =     -1.5407317    -0.0000890    -3.0457220

%%%% SYSTEM %%%%%%%%%%%%%%%%%%%%%%%%%%%%%%%%%%%%%%%%%%%%%%%%%%%%%%%%%%%%%%%%%%%%
 system is built from all present ionic types
 system defined dimension   =  0 
 system defined axis        =  3 
 system center              =      0.0191059    -0.0000003     0.0127962 
 system width               =      0.4042851 

%%%% BOUNDARY %%%%%%%%%%%%%%%%%%%%%%%%%%%%%%%%%%%%%%%%%%%%%%%%%%%%%%%%%%%%%%%%%%
 boundary label             = solvent              
 boundary mode              = ionic                
 boundary is built from soft-spheres centered on ionic positions
 solvent-dependent scaling  =      1.1000000 
 softness parameter         =      0.5000000 
 volume of the QM region    =    737.5043987 
 surface of the QM region   =    426.7939613 

%%%% DIELECTRIC %%%%%%%%%%%%%%%%%%%%%%%%%%%%%%%%%%%%%%%%%%%%%%%%%%%%%%%%%%%%%%%%%
 dielectric build on homogeneous background
 environment bulk permitt.  =     78.3000000 
 dielectric flags
 need gradient              =  F 
 need factor depend. sqrt   =  T 
 total dielectric charge    =      0.0000000

%%%% ELECTRONS %%%%%%%%%%%%%%%%%%%%%%%%%%%%%%%%%%%%%%%%%%%%%%%%%%%%%%%%%%%%%%%%%
 number of electrons        =         24
 total electronic charge    =     24.0000000

%%%% ELECTRONS %%%%%%%%%%%%%%%%%%%%%%%%%%%%%%%%%%%%%%%%%%%%%%%%%%%%%%%%%%%%%%%%%
 number of electrons        =         24
 total electronic charge    =     24.0000000

%%%% DENSITY %%%%%%%%%%%%%%%%%%%%%%%%%%%%%%%%%%%%%%%%%%%%%%%%%%%%%%%%%%%%%%%%%%%
 density label              = dvtot                                                                           
 integral of density        =      0.000000000    

%%%% DENSITY %%%%%%%%%%%%%%%%%%%%%%%%%%%%%%%%%%%%%%%%%%%%%%%%%%%%%%%%%%%%%%%%%%%
 density label              = vreference                                                                      
 integral of density        =      0.000000000    

%%%% DENSITY %%%%%%%%%%%%%%%%%%%%%%%%%%%%%%%%%%%%%%%%%%%%%%%%%%%%%%%%%%%%%%%%%%%
 density label              = velectrostatic                                                                  
 integral of density        =      0.000000000    

%%%% CHARGES %%%%%%%%%%%%%%%%%%%%%%%%%%%%%%%%%%%%%%%%%%%%%%%%%%%%%%%%%%%%%%%%%%%
 total number of charges    =         34
 total charge               =     -1.0000000

%%%% ELECTRONS %%%%%%%%%%%%%%%%%%%%%%%%%%%%%%%%%%%%%%%%%%%%%%%%%%%%%%%%%%%%%%%%%
 number of electrons        =         24
 total electronic charge    =     24.0000000

%%%% ELECTRONS %%%%%%%%%%%%%%%%%%%%%%%%%%%%%%%%%%%%%%%%%%%%%%%%%%%%%%%%%%%%%%%%%
 number of electrons        =         24
 total electronic charge    =     24.0000000

%%%% DENSITY %%%%%%%%%%%%%%%%%%%%%%%%%%%%%%%%%%%%%%%%%%%%%%%%%%%%%%%%%%%%%%%%%%%
 density label              = vreference                                                                      
 integral of density        =    -0.4497719070E-12

%%%% COMPUTE ELECTROSTATIC POTENTIAL %%%%%%%%%%%%%%%%%%%%%%%%%%%%%%%%%%%%%%%%%%%
 Iteration #          1
  pAp =    97.807258536609339       rzold =    90.316236089312184       alpha =   0.92341036279538236     
 delta_qm =   0.191110E-01 delta_en =   0.213003E+04 tol =   0.100000E-04
 Iteration #          2
  pAp =    1257.2717807335043       rzold =    89.336427145272950       alpha =    7.1055780074180327E-002
 delta_qm =   0.160230E-02 delta_en =   0.149729E+02 tol =   0.100000E-04
 Iteration #          3
  pAp =    1.2345646679114797       rzold =   0.22450972406692665       alpha =   0.18185335276663236     
 delta_qm =   0.668569E-03 delta_en =   0.260681E+01 tol =   0.100000E-04
 Iteration #          4
  pAp =   0.22875249848424323       rzold =    3.4945989960542038E-002  alpha =   0.15276768643883976     
 delta_qm =   0.379087E-03 delta_en =   0.838100E+00 tol =   0.100000E-04
 Iteration #          5
  pAp =    1.0500800407134706E-002  rzold =    3.0660473834177226E-003  alpha =   0.29198225511785891     
 delta_qm =   0.222392E-03 delta_en =   0.288440E+00 tol =   0.100000E-04
 Iteration #          6
  pAp =    3.2409241097517195E-003  rzold =    9.7921670960623725E-004  alpha =   0.30214120307841857     
 delta_qm =   0.103420E-03 delta_en =   0.623774E-01 tol =   0.100000E-04
 Iteration #          7
  pAp =    2.5524890130326273E-003  rzold =    4.7377928550996692E-004  alpha =   0.18561462286063554     
 delta_qm =   0.617651E-04 delta_en =   0.222486E-01 tol =   0.100000E-04
 Iteration #          8
  pAp =    6.0193301935007734E-004  rzold =    1.2843568557531536E-004  alpha =   0.21337205543897675     
 delta_qm =   0.357251E-04 delta_en =   0.744330E-02 tol =   0.100000E-04
 Iteration #          9
  pAp =    3.4716721908443117E-005  rzold =    1.5048612767985100E-005  alpha =   0.43346871307930929     
 delta_qm =   0.263998E-04 delta_en =   0.406462E-02 tol =   0.100000E-04
 Iteration #         10
  pAp =    1.1829940228705048E-005  rzold =    7.3418300481665516E-006  alpha =   0.62061429780953481     
 delta_qm =   0.178179E-04 delta_en =   0.185152E-02 tol =   0.100000E-04
 Iteration #         11
  pAp =    1.3998831781692589E-005  rzold =    6.2406729394159978E-006  alpha =   0.44579955218673556     
 delta_qm =   0.114662E-04 delta_en =   0.766753E-03 tol =   0.100000E-04
 Iteration #         12
  pAp =    1.0843866467118408E-005  rzold =    3.0918299738044157E-006  alpha =   0.28512246837230026     
 delta_qm =   0.819941E-05 delta_en =   0.392088E-03 tol =   0.100000E-04
 Iteration #         13
  pAp =    1.9936056551781617E-006  rzold =    6.8115984290477185E-007  alpha =   0.34167230672502230     
 delta_qm =   0.521264E-05 delta_en =   0.158465E-03 tol =   0.100000E-04
 Iteration #         14
  pAp =    1.2398124865691889E-006  rzold =    3.4012237430912688E-007  alpha =   0.27433372223110453     
 delta_qm =   0.314959E-05 delta_en =   0.578530E-04 tol =   0.100000E-04
 Iteration #         15
  pAp =    3.7848113833689463E-007  rzold =    1.1993469457279512E-007  alpha =   0.31688420485048990     
 delta_qm =   0.187598E-05 delta_en =   0.205245E-04 tol =   0.100000E-04
 Iteration #         16
  pAp =    1.0089643392042997E-007  rzold =    3.6995225664669821E-008  alpha =   0.36666534412747820     
 delta_qm =   0.108677E-05 delta_en =   0.688802E-05 tol =   0.100000E-04
 Charges are converged, EXIT

%%%% DENSITY %%%%%%%%%%%%%%%%%%%%%%%%%%%%%%%%%%%%%%%%%%%%%%%%%%%%%%%%%%%%%%%%%%%
 density label              = velectrostatic                                                                  
 integral of density        =     0.1629995968E-10

%%%% CHARGES %%%%%%%%%%%%%%%%%%%%%%%%%%%%%%%%%%%%%%%%%%%%%%%%%%%%%%%%%%%%%%%%%%%
 total number of charges    =         34
 total charge               =     -1.0000000

%%%% DENSITY %%%%%%%%%%%%%%%%%%%%%%%%%%%%%%%%%%%%%%%%%%%%%%%%%%%%%%%%%%%%%%%%%%%
 density label              = dvtot                                                                           
 integral of density        =     -221.2477326    

%%%% ELECTRONS %%%%%%%%%%%%%%%%%%%%%%%%%%%%%%%%%%%%%%%%%%%%%%%%%%%%%%%%%%%%%%%%%
 number of electrons        =         24
 total electronic charge    =     24.0000000

%%%% ELECTRONS %%%%%%%%%%%%%%%%%%%%%%%%%%%%%%%%%%%%%%%%%%%%%%%%%%%%%%%%%%%%%%%%%
 number of electrons        =         24
 total electronic charge    =     24.0000000

%%%% DENSITY %%%%%%%%%%%%%%%%%%%%%%%%%%%%%%%%%%%%%%%%%%%%%%%%%%%%%%%%%%%%%%%%%%%
 density label              = vreference                                                                      
 integral of density        =    -0.7766626848E-13

%%%% COMPUTE ELECTROSTATIC POTENTIAL %%%%%%%%%%%%%%%%%%%%%%%%%%%%%%%%%%%%%%%%%%%
 Warning: bad guess with residual norm =   0.198386E+04, reset to no guess
 Iteration #          1
  pAp =    99.156108494105169       rzold =    93.076956772489353       alpha =   0.93869110220297503     
 delta_qm =   0.174668E-01 delta_en =   0.177928E+04 tol =   0.100000E-04
 Iteration #          2
  pAp =    1065.4954434525628       rzold =    74.678018404393910       alpha =    7.0087599964212016E-002
 delta_qm =   0.161725E-02 delta_en =   0.152537E+02 tol =   0.100000E-04
 Iteration #          3
  pAp =    1.8194662463460172       rzold =   0.27222714225784284       alpha =   0.14961923190636206     
 delta_qm =   0.652092E-03 delta_en =   0.247991E+01 tol =   0.100000E-04
 Iteration #          4
  pAp =   0.20185788180669259       rzold =    3.2429201301364736E-002  alpha =   0.16065362923217572     
 delta_qm =   0.359610E-03 delta_en =   0.754189E+00 tol =   0.100000E-04
 Iteration #          5
  pAp =    1.1878387034989351E-002  rzold =    3.1020827644009075E-003  alpha =   0.26115353500970417     
 delta_qm =   0.223683E-03 delta_en =   0.291799E+00 tol =   0.100000E-04
 Iteration #          6
  pAp =    4.5618410422735463E-003  rzold =    1.0844207954720569E-003  alpha =   0.23771560328888608     
 delta_qm =   0.120095E-03 delta_en =   0.841137E-01 tol =   0.100000E-04
 Iteration #          7
  pAp =    2.5717393997074308E-003  rzold =    5.8259740421910124E-004  alpha =   0.22653827377897595     
 delta_qm =   0.574106E-04 delta_en =   0.192221E-01 tol =   0.100000E-04
 Iteration #          8
  pAp =    3.6383652419537252E-004  rzold =    9.7872773547705722E-005  alpha =   0.26900205735021288     
 delta_qm =   0.334760E-04 delta_en =   0.653560E-02 tol =   0.100000E-04
 Iteration #          9
  pAp =    3.1563421016760086E-005  rzold =    1.2852342722322271E-005  alpha =   0.40719105560508517     
 delta_qm =   0.258023E-04 delta_en =   0.388269E-02 tol =   0.100000E-04
 Iteration #         10
  pAp =    1.1199076023591096E-005  rzold =    6.7147221579414907E-006  alpha =   0.59957822804281202     
 delta_qm =   0.167259E-04 delta_en =   0.163153E-02 tol =   0.100000E-04
 Iteration #         11
  pAp =    1.0216987592788387E-005  rzold =    5.1338107313338266E-006  alpha =   0.50247792558322213     
 delta_qm =   0.102046E-04 delta_en =   0.607312E-03 tol =   0.100000E-04
 Iteration #         12
  pAp =    5.8515982541956153E-006  rzold =    2.0229366338861180E-006  alpha =   0.34570668491051409     
 delta_qm =   0.683782E-05 delta_en =   0.272680E-03 tol =   0.100000E-04
 Iteration #         13
  pAp =    1.7024555402904157E-006  rzold =    5.0743220520323670E-007  alpha =   0.29805900547433717     
 delta_qm =   0.444283E-05 delta_en =   0.115116E-03 tol =   0.100000E-04
 Iteration #         14
  pAp =    8.0817085536934808E-007  rzold =    2.4952073815356072E-007  alpha =   0.30874750864348532     
 delta_qm =   0.241626E-05 delta_en =   0.340490E-04 tol =   0.100000E-04
 Iteration #         15
  pAp =    2.5887192442478483E-007  rzold =    7.4508589248397031E-008  alpha =   0.28782027797705612     
 delta_qm =   0.152273E-05 delta_en =   0.135228E-04 tol =   0.100000E-04
 Iteration #         16
  pAp =    9.2860157954875699E-008  rzold =    2.9493242216017548E-008  alpha =   0.31760921869580971     
 delta_qm =   0.920873E-06 delta_en =   0.494558E-05 tol =   0.100000E-04
 Charges are converged, EXIT

%%%% DENSITY %%%%%%%%%%%%%%%%%%%%%%%%%%%%%%%%%%%%%%%%%%%%%%%%%%%%%%%%%%%%%%%%%%%
 density label              = velectrostatic                                                                  
 integral of density        =    -0.3547356732E-11

%%%% CHARGES %%%%%%%%%%%%%%%%%%%%%%%%%%%%%%%%%%%%%%%%%%%%%%%%%%%%%%%%%%%%%%%%%%%
 total number of charges    =         34
 total charge               =     -1.0000000

%%%% DENSITY %%%%%%%%%%%%%%%%%%%%%%%%%%%%%%%%%%%%%%%%%%%%%%%%%%%%%%%%%%%%%%%%%%%
 density label              = dvtot                                                                           
 integral of density        =     -219.7744165    

%%%% ELECTRONS %%%%%%%%%%%%%%%%%%%%%%%%%%%%%%%%%%%%%%%%%%%%%%%%%%%%%%%%%%%%%%%%%
 number of electrons        =         24
 total electronic charge    =     24.0000000

%%%% ELECTRONS %%%%%%%%%%%%%%%%%%%%%%%%%%%%%%%%%%%%%%%%%%%%%%%%%%%%%%%%%%%%%%%%%
 number of electrons        =         24
 total electronic charge    =     24.0000000

%%%% DENSITY %%%%%%%%%%%%%%%%%%%%%%%%%%%%%%%%%%%%%%%%%%%%%%%%%%%%%%%%%%%%%%%%%%%
 density label              = vreference                                                                      
 integral of density        =    -0.1200850119E-12

%%%% COMPUTE ELECTROSTATIC POTENTIAL %%%%%%%%%%%%%%%%%%%%%%%%%%%%%%%%%%%%%%%%%%%
 Warning: bad guess with residual norm =   0.153899E+04, reset to no guess
 Iteration #          1
  pAp =    98.239783083080752       rzold =    93.521421293044469       alpha =   0.95197096693458705     
 delta_qm =   0.155709E-01 delta_en =   0.141398E+04 tol =   0.100000E-04
 Iteration #          2
  pAp =    849.99639161469690       rzold =    59.032192476687200       alpha =    6.9449933033888078E-002
 delta_qm =   0.173952E-02 delta_en =   0.176472E+02 tol =   0.100000E-04
 Iteration #          3
  pAp =    2.5435194355100692       rzold =   0.35041357557550518       alpha =   0.13776720975015250     
 delta_qm =   0.650396E-03 delta_en =   0.246702E+01 tol =   0.100000E-04
 Iteration #          4
  pAp =   0.23117908903000456       rzold =    3.6512003515691081E-002  alpha =   0.15793817541582325     
 delta_qm =   0.330378E-03 delta_en =   0.636561E+00 tol =   0.100000E-04
 Iteration #          5
  pAp =    1.2789647627144421E-002  rzold =    3.1111154068875200E-003  alpha =   0.24325262881242860     
 delta_qm =   0.208239E-03 delta_en =   0.252897E+00 tol =   0.100000E-04
 Iteration #          6
  pAp =    4.7938195365802771E-003  rzold =    1.0626872986183305E-003  alpha =   0.22167861983732703     
 delta_qm =   0.115994E-03 delta_en =   0.784666E-01 tol =   0.100000E-04
 Iteration #          7
  pAp =    1.8371370999297075E-003  rzold =    4.8515404568509667E-004  alpha =   0.26408156783925357     
 delta_qm =   0.532386E-04 delta_en =   0.165299E-01 tol =   0.100000E-04
 Iteration #          8
  pAp =    3.1401605894221837E-004  rzold =    8.8893392083046346E-005  alpha =   0.28308549690894469     
 delta_qm =   0.315011E-04 delta_en =   0.578722E-02 tol =   0.100000E-04
 Iteration #          9
  pAp =    3.0575621547067982E-005  rzold =    1.1572362994595823E-005  alpha =   0.37848332786240751     
 delta_qm =   0.243557E-04 delta_en =   0.345953E-02 tol =   0.100000E-04
 Iteration #         10
  pAp =    8.1363266640363543E-006  rzold =    4.9569409174152257E-006  alpha =   0.60923573033584844     
 delta_qm =   0.158045E-04 delta_en =   0.145673E-02 tol =   0.100000E-04
 Iteration #         11
  pAp =    7.4828834688745316E-006  rzold =    3.8950963897986408E-006  alpha =   0.52053415050501728     
 delta_qm =   0.862238E-05 delta_en =   0.433583E-03 tol =   0.100000E-04
 Iteration #         12
  pAp =    3.9676277643976145E-006  rzold =    1.5586230665553887E-006  alpha =   0.39283500346006550     
 delta_qm =   0.533036E-05 delta_en =   0.165703E-03 tol =   0.100000E-04
 Iteration #         13
  pAp =    6.2446896228467822E-007  rzold =    2.8312894075307655E-007  alpha =   0.45339153401191118     
 delta_qm =   0.285616E-05 delta_en =   0.475755E-04 tol =   0.100000E-04
 Iteration #         14
  pAp =    5.3728185058837687E-007  rzold =    1.2740083160997043E-007  alpha =   0.23712104079163274     
 delta_qm =   0.185825E-05 delta_en =   0.201384E-04 tol =   0.100000E-04
 Iteration #         15
  pAp =    1.4821816028879573E-007  rzold =    5.0533083617053817E-008  alpha =   0.34093719365152431     
 delta_qm =   0.100694E-05 delta_en =   0.591319E-05 tol =   0.100000E-04
 Charges are converged, EXIT

%%%% DENSITY %%%%%%%%%%%%%%%%%%%%%%%%%%%%%%%%%%%%%%%%%%%%%%%%%%%%%%%%%%%%%%%%%%%
 density label              = velectrostatic                                                                  
 integral of density        =    -0.1514506975E-10

%%%% CHARGES %%%%%%%%%%%%%%%%%%%%%%%%%%%%%%%%%%%%%%%%%%%%%%%%%%%%%%%%%%%%%%%%%%%
 total number of charges    =         34
 total charge               =     -1.0000000

%%%% DENSITY %%%%%%%%%%%%%%%%%%%%%%%%%%%%%%%%%%%%%%%%%%%%%%%%%%%%%%%%%%%%%%%%%%%
 density label              = dvtot                                                                           
 integral of density        =     -211.3512701    

%%%% ELECTRONS %%%%%%%%%%%%%%%%%%%%%%%%%%%%%%%%%%%%%%%%%%%%%%%%%%%%%%%%%%%%%%%%%
 number of electrons        =         24
 total electronic charge    =     24.0000000

%%%% ELECTRONS %%%%%%%%%%%%%%%%%%%%%%%%%%%%%%%%%%%%%%%%%%%%%%%%%%%%%%%%%%%%%%%%%
 number of electrons        =         24
 total electronic charge    =     24.0000000

%%%% DENSITY %%%%%%%%%%%%%%%%%%%%%%%%%%%%%%%%%%%%%%%%%%%%%%%%%%%%%%%%%%%%%%%%%%%
 density label              = vreference                                                                      
 integral of density        =     0.1172313275E-12

%%%% COMPUTE ELECTROSTATIC POTENTIAL %%%%%%%%%%%%%%%%%%%%%%%%%%%%%%%%%%%%%%%%%%%
 Warning: bad guess with residual norm =   0.154120E+04, reset to no guess
 Iteration #          1
  pAp =    98.128084582396198       rzold =    93.401815636054536       alpha =   0.95183571587629323     
 delta_qm =   0.155803E-01 delta_en =   0.141570E+04 tol =   0.100000E-04
 Iteration #          2
  pAp =    855.39845574328024       rzold =    59.302311543574127       alpha =    6.9327120180553342E-002
 delta_qm =   0.166425E-02 delta_en =   0.161531E+02 tol =   0.100000E-04
 Iteration #          3
  pAp =    2.0934292608650176       rzold =   0.30493311153952712       alpha =   0.14566200885790950     
 delta_qm =   0.641275E-03 delta_en =   0.239831E+01 tol =   0.100000E-04
 Iteration #          4
  pAp =   0.22788948000884393       rzold =    3.5423952220297331E-002  alpha =   0.15544356070724547     
 delta_qm =   0.330064E-03 delta_en =   0.635350E+00 tol =   0.100000E-04
 Iteration #          5
  pAp =    1.3300550938361674E-002  rzold =    3.2076340878511586E-003  alpha =   0.24116550530246428     
 delta_qm =   0.205342E-03 delta_en =   0.245909E+00 tol =   0.100000E-04
 Iteration #          6
  pAp =    4.2720903822813187E-003  rzold =    9.8542524076208307E-004  alpha =   0.23066582225160245     
 delta_qm =   0.114043E-03 delta_en =   0.758495E-01 tol =   0.100000E-04
 Iteration #          7
  pAp =    1.9872129651296081E-003  rzold =    4.9493538944160207E-004  alpha =   0.24906006458614358     
 delta_qm =   0.532860E-04 delta_en =   0.165594E-01 tol =   0.100000E-04
 Iteration #          8
  pAp =    3.2695467498223353E-004  rzold =    9.1633956189702892E-005  alpha =   0.28026501286357874     
 delta_qm =   0.301783E-04 delta_en =   0.531137E-02 tol =   0.100000E-04
 Iteration #          9
  pAp =    3.0902242084005521E-005  rzold =    1.1353083948559978E-005  alpha =   0.36738706265058169     
 delta_qm =   0.228855E-04 delta_en =   0.305449E-02 tol =   0.100000E-04
 Iteration #         10
  pAp =    7.5193966726239763E-006  rzold =    4.3916011239451087E-006  alpha =   0.58403636822801253     
 delta_qm =   0.155044E-04 delta_en =   0.140194E-02 tol =   0.100000E-04
 Iteration #         11
  pAp =    6.5370755922523125E-006  rzold =    3.4383297211043518E-006  alpha =   0.52597368235720443     
 delta_qm =   0.837689E-05 delta_en =   0.409245E-03 tol =   0.100000E-04
 Iteration #         12
  pAp =    4.3243042966404134E-006  rzold =    1.6047354895667319E-006  alpha =   0.37109680066073603     
 delta_qm =   0.560328E-05 delta_en =   0.183106E-03 tol =   0.100000E-04
 Iteration #         13
  pAp =    1.1942388960580258E-006  rzold =    3.8959204729518203E-007  alpha =   0.32622622540695784     
 delta_qm =   0.348395E-05 delta_en =   0.707883E-04 tol =   0.100000E-04
 Iteration #         14
  pAp =    5.3168903501873908E-007  rzold =    1.7439717032149967E-007  alpha =   0.32800595617954231     
 delta_qm =   0.194422E-05 delta_en =   0.220448E-04 tol =   0.100000E-04
 Iteration #         15
  pAp =    1.5186381670881560E-007  rzold =    4.8853001289843039E-008  alpha =   0.32168953967167840     
 delta_qm =   0.122063E-05 delta_en =   0.868930E-05 tol =   0.100000E-04
 Charges are converged, EXIT

%%%% DENSITY %%%%%%%%%%%%%%%%%%%%%%%%%%%%%%%%%%%%%%%%%%%%%%%%%%%%%%%%%%%%%%%%%%%
 density label              = velectrostatic                                                                  
 integral of density        =    -0.1175779560E-10

%%%% CHARGES %%%%%%%%%%%%%%%%%%%%%%%%%%%%%%%%%%%%%%%%%%%%%%%%%%%%%%%%%%%%%%%%%%%
 total number of charges    =         34
 total charge               =     -1.0000000

%%%% DENSITY %%%%%%%%%%%%%%%%%%%%%%%%%%%%%%%%%%%%%%%%%%%%%%%%%%%%%%%%%%%%%%%%%%%
 density label              = dvtot                                                                           
 integral of density        =     -212.0502710    

%%%% ELECTRONS %%%%%%%%%%%%%%%%%%%%%%%%%%%%%%%%%%%%%%%%%%%%%%%%%%%%%%%%%%%%%%%%%
 number of electrons        =         24
 total electronic charge    =     24.0000000

%%%% ELECTRONS %%%%%%%%%%%%%%%%%%%%%%%%%%%%%%%%%%%%%%%%%%%%%%%%%%%%%%%%%%%%%%%%%
 number of electrons        =         24
 total electronic charge    =     24.0000000

%%%% DENSITY %%%%%%%%%%%%%%%%%%%%%%%%%%%%%%%%%%%%%%%%%%%%%%%%%%%%%%%%%%%%%%%%%%%
 density label              = vreference                                                                      
 integral of density        =    -0.2002348904E-12

%%%% COMPUTE ELECTROSTATIC POTENTIAL %%%%%%%%%%%%%%%%%%%%%%%%%%%%%%%%%%%%%%%%%%%
 Warning: bad guess with residual norm =   0.151850E+04, reset to no guess
 Iteration #          1
  pAp =    97.952087769917000       rzold =    93.293825422058219       alpha =   0.95244346032929150     
 delta_qm =   0.154738E-01 delta_en =   0.139641E+04 tol =   0.100000E-04
 Iteration #          2
  pAp =    844.75343020732953       rzold =    58.513978110308550       alpha =    6.9267523537545561E-002
 delta_qm =   0.166240E-02 delta_en =   0.161171E+02 tol =   0.100000E-04
 Iteration #          3
  pAp =    2.0087222201001085       rzold =   0.29938337602879539       alpha =   0.14904170075535633     
 delta_qm =   0.644656E-03 delta_en =   0.242367E+01 tol =   0.100000E-04
 Iteration #          4
  pAp =   0.23432348334527978       rzold =    3.6240730139536041E-002  alpha =   0.15466111045359754     
 delta_qm =   0.329678E-03 delta_en =   0.633865E+00 tol =   0.100000E-04
 Iteration #          5
  pAp =    1.4002448917264024E-002  rzold =    3.3288710081801104E-003  alpha =   0.23773491536011598     
 delta_qm =   0.204207E-03 delta_en =   0.243197E+00 tol =   0.100000E-04
 Iteration #          6
  pAp =    4.1236780820918858E-003  rzold =    9.6547553578065371E-004  alpha =   0.23412970570459299     
 delta_qm =   0.113804E-03 delta_en =   0.755323E-01 tol =   0.100000E-04
 Iteration #          7
  pAp =    2.0400937313214489E-003  rzold =    4.9827285040153003E-004  alpha =   0.24424017521919403     
 delta_qm =   0.541540E-04 delta_en =   0.171033E-01 tol =   0.100000E-04
 Iteration #          8
  pAp =    3.4037060953383242E-004  rzold =    9.5573438790994589E-005  alpha =   0.28079227792872846     
 delta_qm =   0.299853E-04 delta_en =   0.524365E-02 tol =   0.100000E-04
 Iteration #          9
  pAp =    3.1407200955618817E-005  rzold =    1.1450986839666321E-005  alpha =   0.36459749647374146     
 delta_qm =   0.225596E-04 delta_en =   0.296812E-02 tol =   0.100000E-04
 Iteration #         10
  pAp =    7.4536920480597457E-006  rzold =    4.2486703307833770E-006  alpha =   0.57000883634431065     
 delta_qm =   0.156010E-04 delta_en =   0.141946E-02 tol =   0.100000E-04
 Iteration #         11
  pAp =    6.3216595008082685E-006  rzold =    3.3220862148048995E-006  alpha =   0.52550856533480605     
 delta_qm =   0.831965E-05 delta_en =   0.403671E-03 tol =   0.100000E-04
 Iteration #         12
  pAp =    4.6222544227717595E-006  rzold =    1.6705802669051129E-006  alpha =   0.36142109760875962     
 delta_qm =   0.567051E-05 delta_en =   0.187526E-03 tol =   0.100000E-04
 Iteration #         13
  pAp =    1.3549598693092978E-006  rzold =    4.2957683772751387E-007  alpha =   0.31704026625267823     
 delta_qm =   0.357277E-05 delta_en =   0.744438E-04 tol =   0.100000E-04
 Iteration #         14
  pAp =    4.9257111681283865E-007  rzold =    1.7418393024571500E-007  alpha =   0.35362189194682186     
 delta_qm =   0.196399E-05 delta_en =   0.224954E-04 tol =   0.100000E-04
 Iteration #         15
  pAp =    1.5213159365517380E-007  rzold =    4.9550873533053842E-008  alpha =   0.32571060581516942     
 delta_qm =   0.123820E-05 delta_en =   0.894129E-05 tol =   0.100000E-04
 Charges are converged, EXIT

%%%% DENSITY %%%%%%%%%%%%%%%%%%%%%%%%%%%%%%%%%%%%%%%%%%%%%%%%%%%%%%%%%%%%%%%%%%%
 density label              = velectrostatic                                                                  
 integral of density        =    -0.5964534494E-11

%%%% CHARGES %%%%%%%%%%%%%%%%%%%%%%%%%%%%%%%%%%%%%%%%%%%%%%%%%%%%%%%%%%%%%%%%%%%
 total number of charges    =         34
 total charge               =     -1.0000000

%%%% DENSITY %%%%%%%%%%%%%%%%%%%%%%%%%%%%%%%%%%%%%%%%%%%%%%%%%%%%%%%%%%%%%%%%%%%
 density label              = dvtot                                                                           
 integral of density        =     -211.6426626    

%%%% ELECTRONS %%%%%%%%%%%%%%%%%%%%%%%%%%%%%%%%%%%%%%%%%%%%%%%%%%%%%%%%%%%%%%%%%
 number of electrons        =         24
 total electronic charge    =     24.0000000

%%%% ELECTRONS %%%%%%%%%%%%%%%%%%%%%%%%%%%%%%%%%%%%%%%%%%%%%%%%%%%%%%%%%%%%%%%%%
 number of electrons        =         24
 total electronic charge    =     24.0000000

%%%% DENSITY %%%%%%%%%%%%%%%%%%%%%%%%%%%%%%%%%%%%%%%%%%%%%%%%%%%%%%%%%%%%%%%%%%%
 density label              = dvtot                                                                           
 integral of density        =     -211.6426626    

%%%% DENSITY %%%%%%%%%%%%%%%%%%%%%%%%%%%%%%%%%%%%%%%%%%%%%%%%%%%%%%%%%%%%%%%%%%%
 density label              = vreference                                                                      
 integral of density        =    -0.2002348904E-12

%%%% DENSITY %%%%%%%%%%%%%%%%%%%%%%%%%%%%%%%%%%%%%%%%%%%%%%%%%%%%%%%%%%%%%%%%%%%
 density label              = velectrostatic                                                                  
 integral of density        =    -0.5964534494E-11

%%%% CHARGES %%%%%%%%%%%%%%%%%%%%%%%%%%%%%%%%%%%%%%%%%%%%%%%%%%%%%%%%%%%%%%%%%%%
 total number of charges    =         34
 total charge               =     -1.0000000
