
     Program PWSCF v.6.7MaX starts on 22Jan2021 at 12:55: 4 

     This program is part of the open-source Quantum ESPRESSO suite
     for quantum simulation of materials; please cite
         "P. Giannozzi et al., J. Phys.:Condens. Matter 21 395502 (2009);
         "P. Giannozzi et al., J. Phys.:Condens. Matter 29 465901 (2017);
          URL http://www.quantum-espresso.org", 
     in publications or presentations arising from this work. More details at
     http://www.quantum-espresso.org/quote

     Parallel version (MPI), running on     1 processors

     MPI processes distributed on     1 nodes
     Reading input from cation.in

     Current dimensions of program PWSCF are:
     Max number of different atomic species (ntypx) = 10
     Max number of k-points (npk) =  40000
     Max angular momentum in pseudopotentials (lmaxx) =  3
     file C.pbe-rrkjus.UPF: wavefunction(s)  2S 2P renormalized
     file H.pbe-rrkjus.UPF: wavefunction(s)  1S renormalized
     file N.pbe-rrkjus.UPF: wavefunction(s)  2S renormalized
     file O.pbe-rrkjus.UPF: wavefunction(s)  2S renormalized

     gamma-point specific algorithms are used

     Subspace diagonalization in iterative solution of the eigenvalue problem:
     a serial algorithm will be used


     G-vector sticks info
     --------------------
     sticks:   dense  smooth     PW     G-vecs:    dense   smooth      PW
     Sum        9549    3809    949               701475   177509   22119



     bravais-lattice index     =            1
     lattice parameter (alat)  =      20.0000  a.u.
     unit-cell volume          =    8000.0000 (a.u.)^3
     number of atoms/cell      =           10
     number of atomic types    =            4
     number of electrons       =        24.00
     number of Kohn-Sham states=           12
     kinetic-energy cutoff     =      30.0000  Ry
     charge density cutoff     =     300.0000  Ry
     scf convergence threshold =      1.0E-03
     mixing beta               =       0.7000
     number of iterations used =            8  plain     mixing
     Exchange-correlation= SLA  PW   PBE  PBE
                           (   1   4   3   4   0   0   0)


     Environ Module
     ==============

     Plese cite
         O. Andreussi, I. Dabo and N. Marzari, J. Chem. Phys. 136, 064102 (2012)         
     in publications or presentations arising from this work.

     compensation onset threshold      =               0.1000E+03 
     static permittivity               =                    78.30 
     epsilon calculation mode          =               electronic 
     surface tension in input (dyn/cm) =                     5.00 
     surface tension in internal units =               0.6423E-05 
     external pressure in input (GPa)  =                     0.12 
     external pressure in inter. units =               0.8497E-05 

     Electrostatic Setup
     -------------------
     electrostatic problem to solve    = generalized              
     numerical solver adopted          = cg                       
     type of auxiliary density adopted = none                     
     type of core tool for poisson     = fft                      



     celldm(1)=  20.000000  celldm(2)=   0.000000  celldm(3)=   0.000000
     celldm(4)=   0.000000  celldm(5)=   0.000000  celldm(6)=   0.000000

     crystal axes: (cart. coord. in units of alat)
               a(1) = (   1.000000   0.000000   0.000000 )  
               a(2) = (   0.000000   1.000000   0.000000 )  
               a(3) = (   0.000000   0.000000   1.000000 )  

     reciprocal axes: (cart. coord. in units 2 pi/alat)
               b(1) = (  1.000000  0.000000  0.000000 )  
               b(2) = (  0.000000  1.000000  0.000000 )  
               b(3) = (  0.000000  0.000000  1.000000 )  


     PseudoPot. # 1 for C  read from file:
     /Users/gabrielmedrano/Desktop/q-e/Environ/tests/../..//pseudo/C.pbe-rrkjus.UPF
     MD5 check sum: c9ac5a99bc85b198593446162950cd17
     Pseudo is Ultrasoft, Zval =  4.0
     Generated by new atomic code, or converted to UPF format
     Using radial grid of  627 points,  4 beta functions with: 
                l(1) =   0
                l(2) =   0
                l(3) =   1
                l(4) =   1
     Q(r) pseudized with 0 coefficients 


     PseudoPot. # 2 for H  read from file:
     /Users/gabrielmedrano/Desktop/q-e/Environ/tests/../..//pseudo/H.pbe-rrkjus.UPF
     MD5 check sum: 2d52a7f45632fd764c17cc6affed14c8
     Pseudo is Ultrasoft, Zval =  1.0
     Generated by new atomic code, or converted to UPF format
     Using radial grid of 1061 points,  2 beta functions with: 
                l(1) =   0
                l(2) =   0
     Q(r) pseudized with 0 coefficients 


     PseudoPot. # 3 for N  read from file:
     /Users/gabrielmedrano/Desktop/q-e/Environ/tests/../..//pseudo/N.pbe-rrkjus.UPF
     MD5 check sum: 28c76d763763edb36c62a6ca2be9aebd
     Pseudo is Ultrasoft, Zval =  5.0
     Generated by new atomic code, or converted to UPF format
     Using radial grid of 1257 points,  4 beta functions with: 
                l(1) =   0
                l(2) =   0
                l(3) =   1
                l(4) =   1
     Q(r) pseudized with 0 coefficients 


     PseudoPot. # 4 for O  read from file:
     /Users/gabrielmedrano/Desktop/q-e/Environ/tests/../..//pseudo/O.pbe-rrkjus.UPF
     MD5 check sum: fadcf19ee70a498d3030e2e79cf929a4
     Pseudo is Ultrasoft, Zval =  6.0
     Generated by new atomic code, or converted to UPF format
     Using radial grid of 1269 points,  4 beta functions with: 
                l(1) =   0
                l(2) =   0
                l(3) =   1
                l(4) =   1
     Q(r) pseudized with 0 coefficients 


     atomic species   valence    mass     pseudopotential
        C              4.00    12.00000     C ( 1.00)
        H              1.00     1.00000     H ( 1.00)
        N              5.00    14.00000     N ( 1.00)
        O              6.00    16.00000     O ( 1.00)

     No symmetry found



   Cartesian axes

     site n.     atom                  positions (alat units)
         1           C   tau(   1) = (   0.0000000   0.0000000   0.0000000  )
         2           C   tau(   2) = (   0.0000000   0.0000000   0.1455089  )
         3           N   tau(   3) = (   0.1170969   0.0000000  -0.0545024  )
         4           H   tau(   4) = (   0.0476617  -0.0825466   0.1792090  )
         5           H   tau(   5) = (  -0.0953183  -0.0000030   0.1792090  )
         6           H   tau(   6) = (   0.0476566   0.0825496   0.1792090  )
         7           O   tau(   7) = (  -0.0984002  -0.0000019  -0.0641310  )
         8           H   tau(   8) = (   0.1263131  -0.0000015  -0.1475548  )
         9           H   tau(   9) = (   0.1944645   0.0000134  -0.0025716  )
        10           H   tau(  10) = (  -0.0770366  -0.0000045  -0.1522861  )

     number of k points=     1
                       cart. coord. in units 2pi/alat
        k(    1) = (   0.0000000   0.0000000   0.0000000), wk =   2.0000000

     Dense  grid:   350738 G-vectors     FFT dimensions: ( 120, 120, 120)

     Smooth grid:    88755 G-vectors     FFT dimensions: (  72,  72,  72)

     Estimated max dynamical RAM per process >     624.11 MB

     Initial potential from superposition of free atoms

     starting charge   24.42266, renormalised to   24.00000

     negative rho (up, down):  4.438E-04 0.000E+00
     Starting wfcs are   22 randomized atomic wfcs

     total cpu time spent up to now is        6.4 secs

     Self-consistent Calculation

     iteration #  1     ecut=    30.00 Ry     beta= 0.70
     Davidson diagonalization with overlap
     ethr =  1.00E-02,  avg # of iterations =  2.0

     negative rho (up, down):  1.234E-04 0.000E+00

     add environment contribution to local potential
     polarization accuracy = 1.8E-06, # of iterations =  17

     total cpu time spent up to now is       13.0 secs

     total energy              =     -80.27427664 Ry
     estimated scf accuracy    <       3.64924908 Ry
     electrostatic embedding   =       0.00000000 Ry
     cavitation energy         =       0.00482850 Ry
     PV energy                 =       0.01652076 Ry
     correction to one-el term =      -0.00000000 Ry

     iteration #  2     ecut=    30.00 Ry     beta= 0.70
     Davidson diagonalization with overlap
     ethr =  1.00E-02,  avg # of iterations =  4.0

     negative rho (up, down):  4.955E-04 0.000E+00

     add environment contribution to local potential
     polarization accuracy = 9.1E-06, # of iterations =  19

     total cpu time spent up to now is       20.2 secs

     total energy              =     -81.16082381 Ry
     estimated scf accuracy    <       1.04892025 Ry
     electrostatic embedding   =      -0.17901983 Ry
     cavitation energy         =       0.00266884 Ry
     PV energy                 =       0.00636217 Ry
     correction to one-el term =      -4.90697644 Ry

     iteration #  3     ecut=    30.00 Ry     beta= 0.70
     Davidson diagonalization with overlap
     ethr =  4.37E-03,  avg # of iterations =  4.0

     negative rho (up, down):  2.249E-04 0.000E+00

     add environment contribution to local potential
     polarization accuracy = 5.7E-06, # of iterations =  21

     total cpu time spent up to now is       27.3 secs

     total energy              =     -81.33816180 Ry
     estimated scf accuracy    <       0.11552261 Ry
     electrostatic embedding   =      -0.14647564 Ry
     cavitation energy         =       0.00257866 Ry
     PV energy                 =       0.00590699 Ry
     correction to one-el term =      -4.20163125 Ry

     iteration #  4     ecut=    30.00 Ry     beta= 0.70
     Davidson diagonalization with overlap
     ethr =  4.81E-04,  avg # of iterations =  5.0

     negative rho (up, down):  1.263E-04 0.000E+00

     add environment contribution to local potential
     polarization accuracy = 4.6E-06, # of iterations =  22

     total cpu time spent up to now is       34.6 secs

     total energy              =     -81.37013725 Ry
     estimated scf accuracy    <       0.01961323 Ry
     electrostatic embedding   =      -0.12445860 Ry
     cavitation energy         =       0.00252026 Ry
     PV energy                 =       0.00562833 Ry
     correction to one-el term =      -3.96018788 Ry

     iteration #  5     ecut=    30.00 Ry     beta= 0.70
     Davidson diagonalization with overlap
     ethr =  8.17E-05,  avg # of iterations =  4.0

     negative rho (up, down):  7.670E-05 0.000E+00

     add environment contribution to local potential
     polarization accuracy = 4.9E-06, # of iterations =  22

     total cpu time spent up to now is       42.2 secs

     total energy              =     -81.37472456 Ry
     estimated scf accuracy    <       0.00176356 Ry
     electrostatic embedding   =      -0.11864641 Ry
     cavitation energy         =       0.00247948 Ry
     PV energy                 =       0.00543919 Ry
     correction to one-el term =      -3.74018736 Ry

     iteration #  6     ecut=    30.00 Ry     beta= 0.70
     Davidson diagonalization with overlap
     ethr =  7.35E-06,  avg # of iterations =  2.0

     negative rho (up, down):  2.790E-04 0.000E+00

     the potential shift due to the Gaussian-smeared nuclei is    -0.0668 ev

     total cpu time spent up to now is       45.7 secs

     End of self-consistent calculation

          k = 0.0000 0.0000 0.0000 ( 11060 PWs)   bands (ev):

   -29.0206 -23.1373 -18.6626 -16.0863 -14.6820 -13.4309 -11.7237 -11.0034
    -9.6428  -9.6350  -9.3692  -7.4336

     highest occupied level (ev):    -7.4336

!    total energy              =     -81.37516219 Ry
     estimated scf accuracy    <       0.00024037 Ry

     The total energy is the sum of the following terms:
     one-electron contribution =    -242.06879917 Ry
     hartree contribution      =     123.18394134 Ry
     xc contribution           =     -22.96942730 Ry
     ewald contribution        =      64.30784069 Ry
     electrostatic embedding   =      -0.11934308 Ry
     cavitation energy         =       0.00248197 Ry
     PV energy                 =       0.00544573 Ry
     correction to one-el term =      -3.71730238 Ry

     convergence has been achieved in   6 iterations
 forces lc
       1    0.0498    0.0000   -0.0905
       2    0.0468    0.0000   -0.0517
       3    0.0149    0.0000   -0.0955
       4    0.0122   -0.0005   -0.0131
       5    0.0054    0.0000   -0.0072
       6    0.0122    0.0005   -0.0131
       7    0.1942   -0.0000   -0.2239
       8   -0.0157    0.0000   -0.0416
       9    0.0259    0.0000    0.0077
      10    0.0382   -0.0000   -0.0825

     Forces acting on atoms (cartesian axes, Ry/au):

     atom    1 type  1   force =     0.22026139   -0.00000088    0.09790900
     atom    2 type  1   force =    -0.03123272    0.00000494   -0.08059755
     atom    3 type  3   force =    -0.13857965   -0.00000512    0.04309113
     atom    4 type  2   force =     0.01799759   -0.02771921    0.00813909
     atom    5 type  2   force =    -0.03111899   -0.00000155    0.01133392
     atom    6 type  2   force =     0.01799656    0.02771830    0.00813815
     atom    7 type  4   force =    -0.09041314    0.00000054   -0.00408590
     atom    8 type  2   force =     0.00706906    0.00000115   -0.04999961
     atom    9 type  2   force =     0.04024057    0.00000296    0.03523187
     atom   10 type  2   force =    -0.01222068   -0.00000112   -0.06916010

     Total force =     0.329518     Total SCF correction =     0.017421

     Writing output data file /Users/gabrielmedrano/Desktop/q-e/Environ/tests/../..//tempdir/pwscf.save/

     init_run     :      5.76s CPU      6.31s WALL (       1 calls)
     electrons    :     40.20s CPU     39.31s WALL (       1 calls)
     forces       :      1.41s CPU      1.58s WALL (       1 calls)

     Called by init_run:
     wfcinit      :      0.12s CPU      0.12s WALL (       1 calls)
     potinit      :      2.08s CPU      2.27s WALL (       1 calls)
     hinit0       :      2.89s CPU      2.98s WALL (       1 calls)

     Called by electrons:
     c_bands      :      1.33s CPU      1.09s WALL (       6 calls)
     sum_band     :      8.16s CPU      4.63s WALL (       6 calls)
     v_of_rho     :      3.98s CPU      4.58s WALL (       7 calls)
     newd         :      2.68s CPU      3.72s WALL (       7 calls)
     mix_rho      :      0.42s CPU      0.47s WALL (       6 calls)

     Called by c_bands:
     init_us_2    :      0.05s CPU      0.05s WALL (      13 calls)
     regterg      :      1.27s CPU      1.03s WALL (       6 calls)

     Called by *egterg:
     rdiaghg      :      0.00s CPU      0.00s WALL (      27 calls)
     h_psi        :      1.14s CPU      1.03s WALL (      28 calls)
     s_psi        :      0.08s CPU      0.01s WALL (      28 calls)
     g_psi        :      0.01s CPU      0.01s WALL (      21 calls)

     Called by h_psi:
     h_psi:calbec :      0.03s CPU      0.03s WALL (      28 calls)
     vloc_psi     :      0.94s CPU      0.95s WALL (      28 calls)
     add_vuspsi   :      0.16s CPU      0.05s WALL (      28 calls)

     General routines
     calbec       :      0.04s CPU      0.04s WALL (      38 calls)
     fft          :     17.59s CPU     18.25s WALL (     416 calls)
     ffts         :      0.07s CPU      0.07s WALL (      13 calls)
     fftw         :      0.86s CPU      0.86s WALL (     280 calls)
     interpolate  :      0.33s CPU      0.36s WALL (       7 calls)

     Parallel routines
     fft_scatt_xy :      1.58s CPU      1.59s WALL (     335 calls)
     fft_scatt_yz :      2.18s CPU      2.18s WALL (     335 calls)

     Environ routines
     calc_eelect  :      0.03s CPU      0.03s WALL (      12 calls)
     calc_velect  :     14.86s CPU     15.54s WALL (      10 calls)
     dielectric   :      0.34s CPU      0.39s WALL (       8 calls)
     calc_felect  :      0.35s CPU      0.36s WALL (       1 calls)

     PWSCF        :     47.46s CPU     47.39s WALL


   This run was terminated on:  12:55:51  22Jan2021            

=------------------------------------------------------------------------------=
   JOB DONE.
=------------------------------------------------------------------------------=
 Calling electrostatic_initbase now
 electrolyte_distance:    0.0000000000000000     
 sc_distance:    0.0000000000000000     
 velectrostatic started
 vreference created

%%%% IONS %%%%%%%%%%%%%%%%%%%%%%%%%%%%%%%%%%%%%%%%%%%%%%%%%%%%%%%%%%%%%%%%%%%%%%
 number of ions             =         10
 ionic center of charge     =      0.0095530    -0.0000002     0.0063981
 total ionic charge         =    -25.0000000
 ionic dipole               =      0.0000000     0.0000000     0.0000000
 ionic quadrupole (pc)      =    -79.0828051    -5.4513517  -105.8059620
 ionic quadrupole (gauss)   =    -82.2078051    -8.5763517  -108.9309620
 ion   1 type =  1 coordinates =      0.0000000     0.0000000     0.0000000
 ion   2 type =  1 coordinates =      0.0000000     0.0000000     2.9101782
 ion   3 type =  3 coordinates =      2.3419379     0.0000000    -1.0900479
 ion   4 type =  2 coordinates =      0.9532347    -1.6509323     3.5841800
 ion   5 type =  2 coordinates =     -1.9063663    -0.0000596     3.5841809
 ion   6 type =  2 coordinates =      0.9531315     1.6509919     3.5841800
 ion   7 type =  4 coordinates =     -1.9680045    -0.0000375    -1.2826193
 ion   8 type =  2 coordinates =      2.5262613    -0.0000303    -2.9510950
 ion   9 type =  2 coordinates =      3.8892907     0.0002681    -0.0514326
 ion  10 type =  2 coordinates =     -1.5407317    -0.0000890    -3.0457220

%%%% SYSTEM %%%%%%%%%%%%%%%%%%%%%%%%%%%%%%%%%%%%%%%%%%%%%%%%%%%%%%%%%%%%%%%%%%%%
 system is built from all present ionic types
 system defined dimension   =  0 
 system defined axis        =  3 
 system center              =      0.0095530    -0.0000002     0.0063981 
 system width               =      0.2021425 

%%%% IONS %%%%%%%%%%%%%%%%%%%%%%%%%%%%%%%%%%%%%%%%%%%%%%%%%%%%%%%%%%%%%%%%%%%%%%
 number of ions             =         10
 ionic center of charge     =      0.0095530    -0.0000002     0.0063981
 total ionic charge         =    -25.0000000
 ionic dipole               =      0.0000000     0.0000000     0.0000000
 ionic quadrupole (pc)      =    -79.0828051    -5.4513517  -105.8059620
 ionic quadrupole (gauss)   =    -82.2078051    -8.5763517  -108.9309620
 ion   1 type =  1 coordinates =      0.0000000     0.0000000     0.0000000
 ion   2 type =  1 coordinates =      0.0000000     0.0000000     2.9101782
 ion   3 type =  3 coordinates =      2.3419379     0.0000000    -1.0900479
 ion   4 type =  2 coordinates =      0.9532347    -1.6509323     3.5841800
 ion   5 type =  2 coordinates =     -1.9063663    -0.0000596     3.5841809
 ion   6 type =  2 coordinates =      0.9531315     1.6509919     3.5841800
 ion   7 type =  4 coordinates =     -1.9680045    -0.0000375    -1.2826193
 ion   8 type =  2 coordinates =      2.5262613    -0.0000303    -2.9510950
 ion   9 type =  2 coordinates =      3.8892907     0.0002681    -0.0514326
 ion  10 type =  2 coordinates =     -1.5407317    -0.0000890    -3.0457220

%%%% SYSTEM %%%%%%%%%%%%%%%%%%%%%%%%%%%%%%%%%%%%%%%%%%%%%%%%%%%%%%%%%%%%%%%%%%%%
 system is built from all present ionic types
 system defined dimension   =  0 
 system defined axis        =  3 
 system center              =      0.0095530    -0.0000002     0.0063981 
 system width               =      0.2021425 

%%%% ELECTRONS %%%%%%%%%%%%%%%%%%%%%%%%%%%%%%%%%%%%%%%%%%%%%%%%%%%%%%%%%%%%%%%%%
 number of electrons        =         24
 total electronic charge    =     24.0000000

%%%% ELECTRONS %%%%%%%%%%%%%%%%%%%%%%%%%%%%%%%%%%%%%%%%%%%%%%%%%%%%%%%%%%%%%%%%%
 number of electrons        =         24
 total electronic charge    =     24.0000000

%%%% BOUNDARY %%%%%%%%%%%%%%%%%%%%%%%%%%%%%%%%%%%%%%%%%%%%%%%%%%%%%%%%%%%%%%%%%%
 boundary label             = solvent              
 boundary mode              = electronic           
 boundary is built as a function of a smooth density
 function type              =  2 
 using the modified SCCS function with parameters 
 rhomax                     =      0.0035000 
 rhomin                     =      0.0002000 
 volume of the QM region    =   1944.2296149 
 surface of the QM region   =    751.7453182 

%%%% DIELECTRIC %%%%%%%%%%%%%%%%%%%%%%%%%%%%%%%%%%%%%%%%%%%%%%%%%%%%%%%%%%%%%%%%%
 dielectric build on homogeneous background
 environment bulk permitt.  =     78.3000000 
 dielectric flags
 need gradient              =  F 
 need factor depend. sqrt   =  T 
 total dielectric charge    =      0.0000000

%%%% DENSITY %%%%%%%%%%%%%%%%%%%%%%%%%%%%%%%%%%%%%%%%%%%%%%%%%%%%%%%%%%%%%%%%%%%
 density label              = dvtot                                                                           
 integral of density        =      0.000000000    

%%%% DENSITY %%%%%%%%%%%%%%%%%%%%%%%%%%%%%%%%%%%%%%%%%%%%%%%%%%%%%%%%%%%%%%%%%%%
 density label              = vreference                                                                      
 integral of density        =      0.000000000    

%%%% DENSITY %%%%%%%%%%%%%%%%%%%%%%%%%%%%%%%%%%%%%%%%%%%%%%%%%%%%%%%%%%%%%%%%%%%
 density label              = velectrostatic                                                                  
 integral of density        =      0.000000000    

%%%% CHARGES %%%%%%%%%%%%%%%%%%%%%%%%%%%%%%%%%%%%%%%%%%%%%%%%%%%%%%%%%%%%%%%%%%%
 total number of charges    =         34
 total charge               =     -1.0000000

%%%% DENSITY %%%%%%%%%%%%%%%%%%%%%%%%%%%%%%%%%%%%%%%%%%%%%%%%%%%%%%%%%%%%%%%%%%%
 density label              = vsoftcavity                                                                     
 integral of density        =      0.000000000    

%%%% ELECTRONS %%%%%%%%%%%%%%%%%%%%%%%%%%%%%%%%%%%%%%%%%%%%%%%%%%%%%%%%%%%%%%%%%
 number of electrons        =         24
 total electronic charge    =     24.0000000

%%%% ELECTRONS %%%%%%%%%%%%%%%%%%%%%%%%%%%%%%%%%%%%%%%%%%%%%%%%%%%%%%%%%%%%%%%%%
 number of electrons        =         24
 total electronic charge    =     24.0000000

%%%% BOUNDARY %%%%%%%%%%%%%%%%%%%%%%%%%%%%%%%%%%%%%%%%%%%%%%%%%%%%%%%%%%%%%%%%%%
 boundary label             = solvent              
 boundary mode              = electronic           
 boundary is built as a function of a smooth density
 function type              =  2 
 using the modified SCCS function with parameters 
 rhomax                     =      0.0035000 
 rhomin                     =      0.0002000 
 volume of the QM region    =    748.7263371 
 surface of the QM region   =    415.5097040 

%%%% DIELECTRIC %%%%%%%%%%%%%%%%%%%%%%%%%%%%%%%%%%%%%%%%%%%%%%%%%%%%%%%%%%%%%%%%%
 dielectric build on homogeneous background
 environment bulk permitt.  =     78.3000000 
 dielectric flags
 need gradient              =  F 
 need factor depend. sqrt   =  T 
 total dielectric charge    =      0.0000000

%%%% DENSITY %%%%%%%%%%%%%%%%%%%%%%%%%%%%%%%%%%%%%%%%%%%%%%%%%%%%%%%%%%%%%%%%%%%
 density label              = vreference                                                                      
 integral of density        =    -0.2399915657E-11

%%%% COMPUTE ELECTROSTATIC POTENTIAL %%%%%%%%%%%%%%%%%%%%%%%%%%%%%%%%%%%%%%%%%%%
 Iteration #          1
  pAp =    92.908452516083372       rzold =    89.431917380007192       alpha =   0.96258106725570147     
 delta_qm =   0.218762E-01 delta_en =   0.826965E+03 tol =   0.100000E-04
 Iteration #          2
  pAp =    246.83084020436974       rzold =    26.694338000407516       alpha =   0.10814830909421722     
 delta_qm =   0.410401E-02 delta_en =   0.291046E+02 tol =   0.100000E-04
 Iteration #          3
  pAp =    1.6543070308133969       rzold =   0.29534674994136856       alpha =   0.17853200430161453     
 delta_qm =   0.173783E-02 delta_en =   0.521865E+01 tol =   0.100000E-04
 Iteration #          4
  pAp =   0.19445935498904057       rzold =    3.3261446726543846E-002  alpha =   0.17104575261199653     
 delta_qm =   0.128182E-02 delta_en =   0.283919E+01 tol =   0.100000E-04
 Iteration #          5
  pAp =    1.7214363728291490E-002  rzold =    5.1055766342263231E-003  alpha =   0.29658816990345116     
 delta_qm =   0.841921E-03 delta_en =   0.122486E+01 tol =   0.100000E-04
 Iteration #          6
  pAp =    5.1521254684516096E-003  rzold =    2.0735277906566746E-003  alpha =   0.40246065499640110     
 delta_qm =   0.405919E-03 delta_en =   0.284723E+00 tol =   0.100000E-04
 Iteration #          7
  pAp =    1.4550065983214781E-003  rzold =    5.7364213667332508E-004  alpha =   0.39425397612291863     
 delta_qm =   0.264157E-03 delta_en =   0.120578E+00 tol =   0.100000E-04
 Iteration #          8
  pAp =    1.2718964766706327E-003  rzold =    3.4688459644227626E-004  alpha =   0.27273021256438679     
 delta_qm =   0.179894E-03 delta_en =   0.559213E-01 tol =   0.100000E-04
 Iteration #          9
  pAp =    6.5874614160973206E-004  rzold =    2.3409393295672749E-004  alpha =   0.35536289045228936     
 delta_qm =   0.102964E-03 delta_en =   0.183197E-01 tol =   0.100000E-04
 Iteration #         10
  pAp =    2.3751884372803970E-004  rzold =    8.8703343017573419E-005  alpha =   0.37345812915433019     
 delta_qm =   0.428978E-04 delta_en =   0.317990E-02 tol =   0.100000E-04
 Iteration #         11
  pAp =    2.6493251749905761E-005  rzold =    1.0452308700438897E-005  alpha =   0.39452721014044928     
 delta_qm =   0.230578E-04 delta_en =   0.918713E-03 tol =   0.100000E-04
 Iteration #         12
  pAp =    2.6469117057134377E-006  rzold =    1.1881159575455571E-006  alpha =   0.44886875334034504     
 delta_qm =   0.157775E-04 delta_en =   0.430148E-03 tol =   0.100000E-04
 Iteration #         13
  pAp =    9.2552889889533424E-007  rzold =    4.7500806351085804E-007  alpha =   0.51322877554423674     
 delta_qm =   0.932718E-05 delta_en =   0.150330E-03 tol =   0.100000E-04
 Iteration #         14
  pAp =    1.0603987866984088E-006  rzold =    3.6932657280205930E-007  alpha =   0.34829026346962483     
 delta_qm =   0.672250E-05 delta_en =   0.780917E-04 tol =   0.100000E-04
 Iteration #         15
  pAp =    4.6313119810485436E-007  rzold =    1.7166929333758234E-007  alpha =   0.37067097625912016     
 delta_qm =   0.463626E-05 delta_en =   0.371432E-04 tol =   0.100000E-04
 Iteration #         16
  pAp =    1.7408996161831048E-007  rzold =    6.7407004836726320E-008  alpha =   0.38719639093559644     
 delta_qm =   0.261671E-05 delta_en =   0.118319E-04 tol =   0.100000E-04
 Iteration #         17
  pAp =    3.4630679141368265E-008  rzold =    1.6539923528658352E-008  alpha =   0.47760898540682956     
 delta_qm =   0.101752E-05 delta_en =   0.178907E-05 tol =   0.100000E-04
 Charges are converged, EXIT

%%%% DENSITY %%%%%%%%%%%%%%%%%%%%%%%%%%%%%%%%%%%%%%%%%%%%%%%%%%%%%%%%%%%%%%%%%%%
 density label              = velectrostatic                                                                  
 integral of density        =    -0.1184490366E-10

%%%% CHARGES %%%%%%%%%%%%%%%%%%%%%%%%%%%%%%%%%%%%%%%%%%%%%%%%%%%%%%%%%%%%%%%%%%%
 total number of charges    =         34
 total charge               =     -1.0000000

%%%% DENSITY %%%%%%%%%%%%%%%%%%%%%%%%%%%%%%%%%%%%%%%%%%%%%%%%%%%%%%%%%%%%%%%%%%%
 density label              = vsoftcavity                                                                     
 integral of density        =      78.47693705    

%%%% DENSITY %%%%%%%%%%%%%%%%%%%%%%%%%%%%%%%%%%%%%%%%%%%%%%%%%%%%%%%%%%%%%%%%%%%
 density label              = dvtot                                                                           
 integral of density        =      78.47693705    

%%%% ELECTRONS %%%%%%%%%%%%%%%%%%%%%%%%%%%%%%%%%%%%%%%%%%%%%%%%%%%%%%%%%%%%%%%%%
 number of electrons        =         24
 total electronic charge    =     24.0000000

%%%% ELECTRONS %%%%%%%%%%%%%%%%%%%%%%%%%%%%%%%%%%%%%%%%%%%%%%%%%%%%%%%%%%%%%%%%%
 number of electrons        =         24
 total electronic charge    =     24.0000000

%%%% BOUNDARY %%%%%%%%%%%%%%%%%%%%%%%%%%%%%%%%%%%%%%%%%%%%%%%%%%%%%%%%%%%%%%%%%%
 boundary label             = solvent              
 boundary mode              = electronic           
 boundary is built as a function of a smooth density
 function type              =  2 
 using the modified SCCS function with parameters 
 rhomax                     =      0.0035000 
 rhomin                     =      0.0002000 
 volume of the QM region    =    695.1585967 
 surface of the QM region   =    401.4699445 

%%%% DIELECTRIC %%%%%%%%%%%%%%%%%%%%%%%%%%%%%%%%%%%%%%%%%%%%%%%%%%%%%%%%%%%%%%%%%
 dielectric build on homogeneous background
 environment bulk permitt.  =     78.3000000 
 dielectric flags
 need gradient              =  F 
 need factor depend. sqrt   =  T 
 total dielectric charge    =      0.9785100

%%%% DENSITY %%%%%%%%%%%%%%%%%%%%%%%%%%%%%%%%%%%%%%%%%%%%%%%%%%%%%%%%%%%%%%%%%%%
 density label              = vreference                                                                      
 integral of density        =    -0.7445237842E-12

%%%% COMPUTE ELECTROSTATIC POTENTIAL %%%%%%%%%%%%%%%%%%%%%%%%%%%%%%%%%%%%%%%%%%%
 Warning: bad guess with residual norm =   0.159391E+04, reset to no guess
 Iteration #          1
  pAp =    95.902946135013153       rzold =    92.632219878558587       alpha =   0.96589545589298165     
 delta_qm =   0.294306E-01 delta_en =   0.149673E+04 tol =   0.100000E-04
 Iteration #          2
  pAp =    319.88474797408605       rzold =    29.844914388787885       alpha =    9.3298960259291977E-002
 delta_qm =   0.516669E-02 delta_en =   0.461284E+02 tol =   0.100000E-04
 Iteration #          3
  pAp =    2.1649077629609632       rzold =   0.31917455779633969       alpha =   0.14743101912101875     
 delta_qm =   0.218399E-02 delta_en =   0.824223E+01 tol =   0.100000E-04
 Iteration #          4
  pAp =   0.21718254586584937       rzold =    3.1683363712704540E-002  alpha =   0.14588356346220802     
 delta_qm =   0.174163E-02 delta_en =   0.524152E+01 tol =   0.100000E-04
 Iteration #          5
  pAp =    1.7530864851364833E-002  rzold =    5.0037197432151051E-003  alpha =   0.28542343949594418     
 delta_qm =   0.120870E-02 delta_en =   0.252453E+01 tol =   0.100000E-04
 Iteration #          6
  pAp =    6.4926383364641857E-003  rzold =    2.3933762802858371E-003  alpha =   0.36862923148576943     
 delta_qm =   0.673786E-03 delta_en =   0.784490E+00 tol =   0.100000E-04
 Iteration #          7
  pAp =    2.2970749688855500E-003  rzold =    8.7578671204987895E-004  alpha =   0.38126170190900477     
 delta_qm =   0.466187E-03 delta_en =   0.375546E+00 tol =   0.100000E-04
 Iteration #          8
  pAp =    1.0824231495234074E-003  rzold =    4.6073388027748535E-004  alpha =   0.42565043114640255     
 delta_qm =   0.278950E-03 delta_en =   0.134461E+00 tol =   0.100000E-04
 Iteration #          9
  pAp =    1.9055348203557540E-003  rzold =    4.5331200295970424E-004  alpha =   0.23789226946536360     
 delta_qm =   0.218579E-03 delta_en =   0.825586E-01 tol =   0.100000E-04
 Iteration #         10
  pAp =    1.0090645641318942E-003  rzold =    2.9129696721732823E-004  alpha =   0.28868020696766133     
 delta_qm =   0.895224E-04 delta_en =   0.138487E-01 tol =   0.100000E-04
 Iteration #         11
  pAp =    1.0974169714532184E-004  rzold =    3.8082682760267667E-005  alpha =   0.34702108451847546     
 delta_qm =   0.521464E-04 delta_en =   0.469886E-02 tol =   0.100000E-04
 Iteration #         12
  pAp =    2.3915873332830299E-005  rzold =    6.9303922244327105E-006  alpha =   0.28978210947952621     
 delta_qm =   0.374109E-04 delta_en =   0.241847E-02 tol =   0.100000E-04
 Iteration #         13
  pAp =    4.3637483158940410E-006  rzold =    1.8383467009969487E-006  alpha =   0.42127697747854870     
 delta_qm =   0.249297E-04 delta_en =   0.107394E-02 tol =   0.100000E-04
 Iteration #         14
  pAp =    2.8775692366866112E-006  rzold =    1.1426120965263252E-006  alpha =   0.39707544894453717     
 delta_qm =   0.174754E-04 delta_en =   0.527715E-03 tol =   0.100000E-04
 Iteration #         15
  pAp =    1.8904982639661850E-006  rzold =    6.8232826459523446E-007  alpha =   0.36092509451118920     
 delta_qm =   0.124319E-04 delta_en =   0.267064E-03 tol =   0.100000E-04
 Iteration #         16
  pAp =    9.5771094032946579E-007  rzold =    3.3004642930911079E-007  alpha =   0.34462008880839373     
 delta_qm =   0.866492E-05 delta_en =   0.129740E-03 tol =   0.100000E-04
 Iteration #         17
  pAp =    5.9307007419826337E-007  rzold =    1.5535230902317316E-007  alpha =   0.26194595846567514     
 delta_qm =   0.618220E-05 delta_en =   0.660436E-04 tol =   0.100000E-04
 Iteration #         18
  pAp =    1.7393333900534103E-007  rzold =    6.5862214462158044E-008  alpha =   0.37866354339426317     
 delta_qm =   0.358795E-05 delta_en =   0.222452E-04 tol =   0.100000E-04
 Iteration #         19
  pAp =    3.7088889350787707E-008  rzold =    1.8264818675952498E-008  alpha =   0.49246065319463611     
 delta_qm =   0.229981E-05 delta_en =   0.913959E-05 tol =   0.100000E-04
 Charges are converged, EXIT

%%%% DENSITY %%%%%%%%%%%%%%%%%%%%%%%%%%%%%%%%%%%%%%%%%%%%%%%%%%%%%%%%%%%%%%%%%%%
 density label              = velectrostatic                                                                  
 integral of density        =     0.3463953404E-11

%%%% CHARGES %%%%%%%%%%%%%%%%%%%%%%%%%%%%%%%%%%%%%%%%%%%%%%%%%%%%%%%%%%%%%%%%%%%
 total number of charges    =         34
 total charge               =     -1.0000000

%%%% DENSITY %%%%%%%%%%%%%%%%%%%%%%%%%%%%%%%%%%%%%%%%%%%%%%%%%%%%%%%%%%%%%%%%%%%
 density label              = vsoftcavity                                                                     
 integral of density        =      52.37192541    

%%%% DENSITY %%%%%%%%%%%%%%%%%%%%%%%%%%%%%%%%%%%%%%%%%%%%%%%%%%%%%%%%%%%%%%%%%%%
 density label              = dvtot                                                                           
 integral of density        =      52.37192541    

%%%% ELECTRONS %%%%%%%%%%%%%%%%%%%%%%%%%%%%%%%%%%%%%%%%%%%%%%%%%%%%%%%%%%%%%%%%%
 number of electrons        =         24
 total electronic charge    =     24.0000000

%%%% ELECTRONS %%%%%%%%%%%%%%%%%%%%%%%%%%%%%%%%%%%%%%%%%%%%%%%%%%%%%%%%%%%%%%%%%
 number of electrons        =         24
 total electronic charge    =     24.0000000

%%%% BOUNDARY %%%%%%%%%%%%%%%%%%%%%%%%%%%%%%%%%%%%%%%%%%%%%%%%%%%%%%%%%%%%%%%%%%
 boundary label             = solvent              
 boundary mode              = electronic           
 boundary is built as a function of a smooth density
 function type              =  2 
 using the modified SCCS function with parameters 
 rhomax                     =      0.0035000 
 rhomin                     =      0.0002000 
 volume of the QM region    =    662.3646259 
 surface of the QM region   =    392.3770864 

%%%% DIELECTRIC %%%%%%%%%%%%%%%%%%%%%%%%%%%%%%%%%%%%%%%%%%%%%%%%%%%%%%%%%%%%%%%%%
 dielectric build on homogeneous background
 environment bulk permitt.  =     78.3000000 
 dielectric flags
 need gradient              =  F 
 need factor depend. sqrt   =  T 
 total dielectric charge    =      0.9783070

%%%% DENSITY %%%%%%%%%%%%%%%%%%%%%%%%%%%%%%%%%%%%%%%%%%%%%%%%%%%%%%%%%%%%%%%%%%%
 density label              = vreference                                                                      
 integral of density        =    -0.1590513729E-11

%%%% COMPUTE ELECTROSTATIC POTENTIAL %%%%%%%%%%%%%%%%%%%%%%%%%%%%%%%%%%%%%%%%%%%
 Warning: bad guess with residual norm =   0.234504E+04, reset to no guess
 Iteration #          1
  pAp =    96.544958296865062       rzold =    93.476806545973801       alpha =   0.96822048706617037     
 delta_qm =   0.357366E-01 delta_en =   0.220684E+04 tol =   0.100000E-04
 Iteration #          2
  pAp =    384.47659037917617       rzold =    31.881286046985295       alpha =    8.2921267106388780E-002
 delta_qm =   0.594081E-02 delta_en =   0.609868E+02 tol =   0.100000E-04
 Iteration #          3
  pAp =    2.3078302232717500       rzold =   0.34155747446682266       alpha =   0.14799939398601239     
 delta_qm =   0.242448E-02 delta_en =   0.101573E+02 tol =   0.100000E-04
 Iteration #          4
  pAp =   0.17470239279370656       rzold =    2.5344881117919004E-002  alpha =   0.14507460780944736     
 delta_qm =   0.192958E-02 delta_en =   0.643385E+01 tol =   0.100000E-04
 Iteration #          5
  pAp =    2.7220233208157519E-002  rzold =    5.8077628444514881E-003  alpha =   0.21336197967293621     
 delta_qm =   0.145921E-02 delta_en =   0.367940E+01 tol =   0.100000E-04
 Iteration #          6
  pAp =    7.7556063270331288E-003  rzold =    2.5507272174849840E-003  alpha =   0.32888817584694929     
 delta_qm =   0.892329E-03 delta_en =   0.137592E+01 tol =   0.100000E-04
 Iteration #          7
  pAp =    3.2439829529814354E-003  rzold =    1.1395165302239205E-003  alpha =   0.35127081329962884     
 delta_qm =   0.624885E-03 delta_en =   0.674751E+00 tol =   0.100000E-04
 Iteration #          8
  pAp =    1.5609707501715074E-003  rzold =    5.8477713384858052E-004  alpha =   0.37462401764051612     
 delta_qm =   0.392056E-03 delta_en =   0.265608E+00 tol =   0.100000E-04
 Iteration #          9
  pAp =    2.3647474663078378E-003  rzold =    5.6928167897019586E-004  alpha =   0.24073677510226285     
 delta_qm =   0.351252E-03 delta_en =   0.213197E+00 tol =   0.100000E-04
 Iteration #         10
  pAp =    1.5999418320156809E-003  rzold =    4.7566181227991363E-004  alpha =   0.29729944099320965     
 delta_qm =   0.157696E-03 delta_en =   0.429717E-01 tol =   0.100000E-04
 Iteration #         11
  pAp =    3.8349970215452824E-004  rzold =    1.1448448565191461E-004  alpha =   0.29852561816536682     
 delta_qm =   0.961418E-04 delta_en =   0.159723E-01 tol =   0.100000E-04
 Iteration #         12
  pAp =    1.4829032734116335E-004  rzold =    3.3237104927624519E-005  alpha =   0.22413535342165475     
 delta_qm =   0.680503E-04 delta_en =   0.800209E-02 tol =   0.100000E-04
 Iteration #         13
  pAp =    1.8547829356655852E-005  rzold =    6.0750229925780448E-006  alpha =   0.32753282746792334     
 delta_qm =   0.483730E-04 delta_en =   0.404343E-02 tol =   0.100000E-04
 Iteration #         14
  pAp =    6.6007702021702533E-006  rzold =    2.6962156363772851E-006  alpha =   0.40846985333481267     
 delta_qm =   0.354938E-04 delta_en =   0.217696E-02 tol =   0.100000E-04
 Iteration #         15
  pAp =    3.2615498092133674E-006  rzold =    1.4978569587892020E-006  alpha =   0.45924699802467855     
 delta_qm =   0.208069E-04 delta_en =   0.748095E-03 tol =   0.100000E-04
 Iteration #         16
  pAp =    2.2732081048203890E-006  rzold =    8.5156260451136237E-007  alpha =   0.37460829156187009     
 delta_qm =   0.143541E-04 delta_en =   0.356036E-03 tol =   0.100000E-04
 Iteration #         17
  pAp =    5.6869811115695392E-007  rzold =    2.4245078351333467E-007  alpha =   0.42632598694603563     
 delta_qm =   0.879380E-05 delta_en =   0.133628E-03 tol =   0.100000E-04
 Iteration #         18
  pAp =    4.5238435237048844E-007  rzold =    1.0768926530908722E-007  alpha =   0.23804816577937940     
 delta_qm =   0.617806E-05 delta_en =   0.659550E-04 tol =   0.100000E-04
 Iteration #         19
  pAp =    2.0771231392458225E-007  rzold =    6.2003108722894469E-008  alpha =   0.29850473258608551     
 delta_qm =   0.391541E-05 delta_en =   0.264909E-04 tol =   0.100000E-04
 Iteration #         20
  pAp =    3.2965576510880348E-008  rzold =    1.4840490246343088E-008  alpha =   0.45018142611414541     
 delta_qm =   0.281258E-05 delta_en =   0.136695E-04 tol =   0.100000E-04
 Iteration #         21
  pAp =    1.4333548562289471E-008  rzold =    7.5927884265685409E-009  alpha =   0.52972147082576737     
 delta_qm =   0.181608E-05 delta_en =   0.569923E-05 tol =   0.100000E-04
 Charges are converged, EXIT

%%%% DENSITY %%%%%%%%%%%%%%%%%%%%%%%%%%%%%%%%%%%%%%%%%%%%%%%%%%%%%%%%%%%%%%%%%%%
 density label              = velectrostatic                                                                  
 integral of density        =    -0.2162878929E-13

%%%% CHARGES %%%%%%%%%%%%%%%%%%%%%%%%%%%%%%%%%%%%%%%%%%%%%%%%%%%%%%%%%%%%%%%%%%%
 total number of charges    =         34
 total charge               =     -1.0000000

%%%% DENSITY %%%%%%%%%%%%%%%%%%%%%%%%%%%%%%%%%%%%%%%%%%%%%%%%%%%%%%%%%%%%%%%%%%%
 density label              = vsoftcavity                                                                     
 integral of density        =      40.76188735    

%%%% DENSITY %%%%%%%%%%%%%%%%%%%%%%%%%%%%%%%%%%%%%%%%%%%%%%%%%%%%%%%%%%%%%%%%%%%
 density label              = dvtot                                                                           
 integral of density        =      40.76188735    

%%%% ELECTRONS %%%%%%%%%%%%%%%%%%%%%%%%%%%%%%%%%%%%%%%%%%%%%%%%%%%%%%%%%%%%%%%%%
 number of electrons        =         24
 total electronic charge    =     24.0000000

%%%% ELECTRONS %%%%%%%%%%%%%%%%%%%%%%%%%%%%%%%%%%%%%%%%%%%%%%%%%%%%%%%%%%%%%%%%%
 number of electrons        =         24
 total electronic charge    =     24.0000000

%%%% BOUNDARY %%%%%%%%%%%%%%%%%%%%%%%%%%%%%%%%%%%%%%%%%%%%%%%%%%%%%%%%%%%%%%%%%%
 boundary label             = solvent              
 boundary mode              = electronic           
 boundary is built as a function of a smooth density
 function type              =  2 
 using the modified SCCS function with parameters 
 rhomax                     =      0.0035000 
 rhomin                     =      0.0002000 
 volume of the QM region    =    640.1057584 
 surface of the QM region   =    386.0291964 

%%%% DIELECTRIC %%%%%%%%%%%%%%%%%%%%%%%%%%%%%%%%%%%%%%%%%%%%%%%%%%%%%%%%%%%%%%%%%
 dielectric build on homogeneous background
 environment bulk permitt.  =     78.3000000 
 dielectric flags
 need gradient              =  F 
 need factor depend. sqrt   =  T 
 total dielectric charge    =      0.9788382

%%%% DENSITY %%%%%%%%%%%%%%%%%%%%%%%%%%%%%%%%%%%%%%%%%%%%%%%%%%%%%%%%%%%%%%%%%%%
 density label              = vreference                                                                      
 integral of density        =     0.3015201257E-12

%%%% COMPUTE ELECTROSTATIC POTENTIAL %%%%%%%%%%%%%%%%%%%%%%%%%%%%%%%%%%%%%%%%%%%
 Warning: bad guess with residual norm =   0.341717E+04, reset to no guess
 Iteration #          1
  pAp =    96.480744375510085       rzold =    93.393289308979377       alpha =   0.96799926154680038     
 delta_qm =   0.431042E-01 delta_en =   0.321057E+04 tol =   0.100000E-04
 Iteration #          2
  pAp =    446.85148105269946       rzold =    34.531975659983758       alpha =    7.7278418275872798E-002
 delta_qm =   0.704537E-02 delta_en =   0.857732E+02 tol =   0.100000E-04
 Iteration #          3
  pAp =    3.0935934921946786       rzold =   0.42268274264655686       alpha =   0.13663163686923013     
 delta_qm =   0.267530E-02 delta_en =   0.123677E+02 tol =   0.100000E-04
 Iteration #          4
  pAp =   0.22295322972110426       rzold =    3.0360283557345283E-002  alpha =   0.13617332924633316     
 delta_qm =   0.215435E-02 delta_en =   0.802006E+01 tol =   0.100000E-04
 Iteration #          5
  pAp =    3.5120414101633239E-002  rzold =    6.7267250217451693E-003  alpha =   0.19153319212806064     
 delta_qm =   0.164123E-02 delta_en =   0.465462E+01 tol =   0.100000E-04
 Iteration #          6
  pAp =    8.6892446271803776E-003  rzold =    2.6843549234731121E-003  alpha =   0.30892845565382288     
 delta_qm =   0.106364E-02 delta_en =   0.195495E+01 tol =   0.100000E-04
 Iteration #          7
  pAp =    3.9306956752548057E-003  rzold =    1.2974571570045378E-003  alpha =   0.33008333999818762     
 delta_qm =   0.788529E-03 delta_en =   0.107443E+01 tol =   0.100000E-04
 Iteration #          8
  pAp =    2.3351707929082535E-003  rzold =    6.9028190547871832E-004  alpha =   0.29560232064183700     
 delta_qm =   0.517608E-03 delta_en =   0.462963E+00 tol =   0.100000E-04
 Iteration #          9
  pAp =    3.0826932652076020E-003  rzold =    6.9881486230839599E-004  alpha =   0.22668971648768135     
 delta_qm =   0.485477E-03 delta_en =   0.407269E+00 tol =   0.100000E-04
 Iteration #         10
  pAp =    1.3616790827021376E-003  rzold =    5.1217606427910009E-004  alpha =   0.37613566278974470     
 delta_qm =   0.232498E-03 delta_en =   0.934073E-01 tol =   0.100000E-04
 Iteration #         11
  pAp =    6.8069179240849546E-004  rzold =    1.9943371350050781E-004  alpha =   0.29298680507789054     
 delta_qm =   0.145520E-03 delta_en =   0.365921E-01 tol =   0.100000E-04
 Iteration #         12
  pAp =    3.1614364393818420E-004  rzold =    6.9314740936735246E-005  alpha =   0.21925078130082035     
 delta_qm =   0.104210E-03 delta_en =   0.187657E-01 tol =   0.100000E-04
 Iteration #         13
  pAp =    4.1193801638577246E-005  rzold =    1.2259620488623976E-005  alpha =   0.29760837798332906     
 delta_qm =   0.767116E-04 delta_en =   0.101687E-01 tol =   0.100000E-04
 Iteration #         14
  pAp =    1.3482442416339287E-005  rzold =    5.1602808600654113E-006  alpha =   0.38274080472331179     
 delta_qm =   0.598224E-04 delta_en =   0.618404E-02 tol =   0.100000E-04
 Iteration #         15
  pAp =    6.2450133098251594E-006  rzold =    2.9571476256512407E-006  alpha =   0.47352142884928961     
 delta_qm =   0.346983E-04 delta_en =   0.208046E-02 tol =   0.100000E-04
 Iteration #         16
  pAp =    5.2963086994410288E-006  rzold =    2.0071136337455648E-006  alpha =   0.37896462378739276     
 delta_qm =   0.239234E-04 delta_en =   0.988985E-03 tol =   0.100000E-04
 Iteration #         17
  pAp =    1.3818391048484983E-006  rzold =    5.9079806307071908E-007  alpha =   0.42754475611362353     
 delta_qm =   0.149394E-04 delta_en =   0.385663E-03 tol =   0.100000E-04
 Iteration #         18
  pAp =    4.2698880711414097E-007  rzold =    1.8066322308651822E-007  alpha =   0.42310997402380157     
 delta_qm =   0.822948E-05 delta_en =   0.117028E-03 tol =   0.100000E-04
 Iteration #         19
  pAp =    2.8770450278034931E-007  rzold =    7.6285943129600240E-008  alpha =   0.26515380326821458     
 delta_qm =   0.604696E-05 delta_en =   0.631856E-04 tol =   0.100000E-04
 Iteration #         20
  pAp =    1.9443896016290527E-007  rzold =    4.4691475959045950E-008  alpha =   0.22984835920538990     
 delta_qm =   0.468240E-05 delta_en =   0.378861E-04 tol =   0.100000E-04
 Iteration #         21
  pAp =    4.1772613389153292E-008  rzold =    1.8130010331819037E-008  alpha =   0.43401666452898274     
 delta_qm =   0.321485E-05 delta_en =   0.178593E-04 tol =   0.100000E-04
 Iteration #         22
  pAp =    1.2608370648898145E-008  rzold =    7.6277861661392477E-009  alpha =   0.60497794509283764     
 delta_qm =   0.163650E-05 delta_en =   0.462780E-05 tol =   0.100000E-04
 Charges are converged, EXIT

%%%% DENSITY %%%%%%%%%%%%%%%%%%%%%%%%%%%%%%%%%%%%%%%%%%%%%%%%%%%%%%%%%%%%%%%%%%%
 density label              = velectrostatic                                                                  
 integral of density        =     0.7091734607E-11

%%%% CHARGES %%%%%%%%%%%%%%%%%%%%%%%%%%%%%%%%%%%%%%%%%%%%%%%%%%%%%%%%%%%%%%%%%%%
 total number of charges    =         34
 total charge               =     -1.0000000

%%%% DENSITY %%%%%%%%%%%%%%%%%%%%%%%%%%%%%%%%%%%%%%%%%%%%%%%%%%%%%%%%%%%%%%%%%%%
 density label              = vsoftcavity                                                                     
 integral of density        =      36.20440378    

%%%% DENSITY %%%%%%%%%%%%%%%%%%%%%%%%%%%%%%%%%%%%%%%%%%%%%%%%%%%%%%%%%%%%%%%%%%%
 density label              = dvtot                                                                           
 integral of density        =      36.20440378    

%%%% ELECTRONS %%%%%%%%%%%%%%%%%%%%%%%%%%%%%%%%%%%%%%%%%%%%%%%%%%%%%%%%%%%%%%%%%
 number of electrons        =         24
 total electronic charge    =     24.0000000

%%%% ELECTRONS %%%%%%%%%%%%%%%%%%%%%%%%%%%%%%%%%%%%%%%%%%%%%%%%%%%%%%%%%%%%%%%%%
 number of electrons        =         24
 total electronic charge    =     24.0000000

%%%% BOUNDARY %%%%%%%%%%%%%%%%%%%%%%%%%%%%%%%%%%%%%%%%%%%%%%%%%%%%%%%%%%%%%%%%%%
 boundary label             = solvent              
 boundary mode              = electronic           
 boundary is built as a function of a smooth density
 function type              =  2 
 using the modified SCCS function with parameters 
 rhomax                     =      0.0035000 
 rhomin                     =      0.0002000 
 volume of the QM region    =    640.8749843 
 surface of the QM region   =    386.4168471 

%%%% DIELECTRIC %%%%%%%%%%%%%%%%%%%%%%%%%%%%%%%%%%%%%%%%%%%%%%%%%%%%%%%%%%%%%%%%%
 dielectric build on homogeneous background
 environment bulk permitt.  =     78.3000000 
 dielectric flags
 need gradient              =  F 
 need factor depend. sqrt   =  T 
 total dielectric charge    =      0.9794890

%%%% DENSITY %%%%%%%%%%%%%%%%%%%%%%%%%%%%%%%%%%%%%%%%%%%%%%%%%%%%%%%%%%%%%%%%%%%
 density label              = vreference                                                                      
 integral of density        =     0.5413611946E-11

%%%% COMPUTE ELECTROSTATIC POTENTIAL %%%%%%%%%%%%%%%%%%%%%%%%%%%%%%%%%%%%%%%%%%%
 Warning: bad guess with residual norm =   0.346582E+04, reset to no guess
 Iteration #          1
  pAp =    96.465173537917508       rzold =    93.377967422082051       alpha =   0.96799667690825264     
 delta_qm =   0.434090E-01 delta_en =   0.325614E+04 tol =   0.100000E-04
 Iteration #          2
  pAp =    445.12255400067102       rzold =    34.434210352634288       alpha =    7.7358943156545554E-002
 delta_qm =   0.727863E-02 delta_en =   0.915468E+02 tol =   0.100000E-04
 Iteration #          3
  pAp =    3.2430426622861357       rzold =   0.44476235184314761       alpha =   0.13714354023626038     
 delta_qm =   0.269501E-02 delta_en =   0.125506E+02 tol =   0.100000E-04
 Iteration #          4
  pAp =   0.21914860568833994       rzold =    3.0237928587276947E-002  alpha =   0.13797910551290263     
 delta_qm =   0.216877E-02 delta_en =   0.812775E+01 tol =   0.100000E-04
 Iteration #          5
  pAp =    3.6016386085387576E-002  rzold =    6.7828698496179901E-003  alpha =   0.18832733060827300     
 delta_qm =   0.165463E-02 delta_en =   0.473095E+01 tol =   0.100000E-04
 Iteration #          6
  pAp =    8.9353702662606505E-003  rzold =    2.7387519053094821E-003  alpha =   0.30650681770299132     
 delta_qm =   0.107613E-02 delta_en =   0.200113E+01 tol =   0.100000E-04
 Iteration #          7
  pAp =    3.9348534915554286E-003  rzold =    1.3028014877337131E-003  alpha =   0.33109275619273998     
 delta_qm =   0.798012E-03 delta_en =   0.110043E+01 tol =   0.100000E-04
 Iteration #          8
  pAp =    2.2178975776884638E-003  rzold =    6.8442769029333902E-004  alpha =   0.30859301041604587     
 delta_qm =   0.524571E-03 delta_en =   0.475502E+00 tol =   0.100000E-04
 Iteration #          9
  pAp =    3.0858166828663844E-003  rzold =    6.9192678345261251E-004  alpha =   0.22422809083068687     
 delta_qm =   0.497014E-03 delta_en =   0.426856E+00 tol =   0.100000E-04
 Iteration #         10
  pAp =    1.4642210947214921E-003  rzold =    5.3250274870600455E-004  alpha =   0.36367646295062517     
 delta_qm =   0.236456E-03 delta_en =   0.966146E-01 tol =   0.100000E-04
 Iteration #         11
  pAp =    6.8638516244600648E-004  rzold =    2.0288220067536780E-004  alpha =   0.29558069109823926     
 delta_qm =   0.147954E-03 delta_en =   0.378267E-01 tol =   0.100000E-04
 Iteration #         12
  pAp =    3.2524771607360880E-004  rzold =    7.1378276143267168E-005  alpha =   0.21945819329631547     
 delta_qm =   0.105467E-03 delta_en =   0.192209E-01 tol =   0.100000E-04
 Iteration #         13
  pAp =    4.2404624224134170E-005  rzold =    1.2551427093837497E-005  alpha =   0.29599194247060390     
 delta_qm =   0.777359E-04 delta_en =   0.104421E-01 tol =   0.100000E-04
 Iteration #         14
  pAp =    1.4025061572017372E-005  rzold =    5.3187354508286778E-006  alpha =   0.37923080932782161     
 delta_qm =   0.610991E-04 delta_en =   0.645080E-02 tol =   0.100000E-04
 Iteration #         15
  pAp =    6.3274732542632838E-006  rzold =    3.0085080152811375E-006  alpha =   0.47546751987518626     
 delta_qm =   0.355534E-04 delta_en =   0.218427E-02 tol =   0.100000E-04
 Iteration #         16
  pAp =    5.4085635154167208E-006  rzold =    2.0649714114273843E-006  alpha =   0.38179664628904364     
 delta_qm =   0.244558E-04 delta_en =   0.103349E-02 tol =   0.100000E-04
 Iteration #         17
  pAp =    1.4687311742946025E-006  rzold =    6.2060838978322466E-007  alpha =   0.42254729840625088     
 delta_qm =   0.153499E-04 delta_en =   0.407151E-03 tol =   0.100000E-04
 Iteration #         18
  pAp =    5.9622876571699153E-007  rzold =    2.0407005500639432E-007  alpha =   0.34226804666324850     
 delta_qm =   0.952680E-05 delta_en =   0.156833E-03 tol =   0.100000E-04
 Iteration #         19
  pAp =    7.3907129003137535E-007  rzold =    1.4409481258840608E-007  alpha =   0.19496740643556715     
 delta_qm =   0.673157E-05 delta_en =   0.783027E-04 tol =   0.100000E-04
 Iteration #         20
  pAp =    1.2094603199336780E-007  rzold =    4.2440173437554457E-008  alpha =   0.35090174301775945     
 delta_qm =   0.482769E-05 delta_en =   0.402738E-04 tol =   0.100000E-04
 Iteration #         21
  pAp =    3.6563061078984086E-008  rzold =    1.7344239479340980E-008  alpha =   0.47436508234017083     
 delta_qm =   0.328015E-05 delta_en =   0.185922E-04 tol =   0.100000E-04
 Iteration #         22
  pAp =    1.2699310158447837E-008  rzold =    7.7935797883566787E-009  alpha =   0.61370103502608231     
 delta_qm =   0.168072E-05 delta_en =   0.488128E-05 tol =   0.100000E-04
 Charges are converged, EXIT

%%%% DENSITY %%%%%%%%%%%%%%%%%%%%%%%%%%%%%%%%%%%%%%%%%%%%%%%%%%%%%%%%%%%%%%%%%%%
 density label              = velectrostatic                                                                  
 integral of density        =    -0.1899969893E-11

%%%% CHARGES %%%%%%%%%%%%%%%%%%%%%%%%%%%%%%%%%%%%%%%%%%%%%%%%%%%%%%%%%%%%%%%%%%%
 total number of charges    =         34
 total charge               =     -1.0000000

%%%% DENSITY %%%%%%%%%%%%%%%%%%%%%%%%%%%%%%%%%%%%%%%%%%%%%%%%%%%%%%%%%%%%%%%%%%%
 density label              = vsoftcavity                                                                     
 integral of density        =      36.51405193    

%%%% DENSITY %%%%%%%%%%%%%%%%%%%%%%%%%%%%%%%%%%%%%%%%%%%%%%%%%%%%%%%%%%%%%%%%%%%
 density label              = dvtot                                                                           
 integral of density        =      36.51405193    

%%%% ELECTRONS %%%%%%%%%%%%%%%%%%%%%%%%%%%%%%%%%%%%%%%%%%%%%%%%%%%%%%%%%%%%%%%%%
 number of electrons        =         24
 total electronic charge    =     24.0000000

%%%% ELECTRONS %%%%%%%%%%%%%%%%%%%%%%%%%%%%%%%%%%%%%%%%%%%%%%%%%%%%%%%%%%%%%%%%%
 number of electrons        =         24
 total electronic charge    =     24.0000000

%%%% BOUNDARY %%%%%%%%%%%%%%%%%%%%%%%%%%%%%%%%%%%%%%%%%%%%%%%%%%%%%%%%%%%%%%%%%%
 boundary label             = solvent              
 boundary mode              = electronic           
 boundary is built as a function of a smooth density
 function type              =  2 
 using the modified SCCS function with parameters 
 rhomax                     =      0.0035000 
 rhomin                     =      0.0002000 
 volume of the QM region    =    640.8749843 
 surface of the QM region   =    386.4168471 

%%%% DIELECTRIC %%%%%%%%%%%%%%%%%%%%%%%%%%%%%%%%%%%%%%%%%%%%%%%%%%%%%%%%%%%%%%%%%
 dielectric build on homogeneous background
 environment bulk permitt.  =     78.3000000 
 dielectric flags
 need gradient              =  F 
 need factor depend. sqrt   =  T 
 total dielectric charge    =      0.9796433

%%%% DENSITY %%%%%%%%%%%%%%%%%%%%%%%%%%%%%%%%%%%%%%%%%%%%%%%%%%%%%%%%%%%%%%%%%%%
 density label              = dvtot                                                                           
 integral of density        =      36.51405193    

%%%% DENSITY %%%%%%%%%%%%%%%%%%%%%%%%%%%%%%%%%%%%%%%%%%%%%%%%%%%%%%%%%%%%%%%%%%%
 density label              = vreference                                                                      
 integral of density        =     0.5413611946E-11

%%%% DENSITY %%%%%%%%%%%%%%%%%%%%%%%%%%%%%%%%%%%%%%%%%%%%%%%%%%%%%%%%%%%%%%%%%%%
 density label              = velectrostatic                                                                  
 integral of density        =    -0.1899969893E-11

%%%% CHARGES %%%%%%%%%%%%%%%%%%%%%%%%%%%%%%%%%%%%%%%%%%%%%%%%%%%%%%%%%%%%%%%%%%%
 total number of charges    =         34
 total charge               =     -1.0000000

%%%% DENSITY %%%%%%%%%%%%%%%%%%%%%%%%%%%%%%%%%%%%%%%%%%%%%%%%%%%%%%%%%%%%%%%%%%%
 density label              = vsoftcavity                                                                     
 integral of density        =      36.51405193    
