
     Program PWSCF v.6.3MaX starts on 21Apr2019 at 23:47:28 

     This program is part of the open-source Quantum ESPRESSO suite
     for quantum simulation of materials; please cite
         "P. Giannozzi et al., J. Phys.:Condens. Matter 21 395502 (2009);
         "P. Giannozzi et al., J. Phys.:Condens. Matter 29 465901 (2017);
          URL http://www.quantum-espresso.org", 
     in publications or presentations arising from this work. More details at
     http://www.quantum-espresso.org/quote

     Parallel version (MPI), running on     1 processors

     MPI processes distributed on     1 nodes
     Reading input from neutral.in

     Current dimensions of program PWSCF are:
     Max number of different atomic species (ntypx) = 10
     Max number of k-points (npk) =  40000
     Max angular momentum in pseudopotentials (lmaxx) =  3
               file C.pbe-rrkjus.UPF: wavefunction(s)  2S 2P renormalized
               file H.pbe-rrkjus.UPF: wavefunction(s)  1S renormalized
               file N.pbe-rrkjus.UPF: wavefunction(s)  2S renormalized
               file O.pbe-rrkjus.UPF: wavefunction(s)  2S renormalized

     gamma-point specific algorithms are used

     Subspace diagonalization in iterative solution of the eigenvalue problem:
     a serial algorithm will be used

 
     G-vector sticks info
     --------------------
     sticks:   dense  smooth     PW     G-vecs:    dense   smooth      PW
     Sum        9549    3809    949               701475   177509   22119
 


     bravais-lattice index     =            1
     lattice parameter (alat)  =      20.0000  a.u.
     unit-cell volume          =    8000.0000 (a.u.)^3
     number of atoms/cell      =            9
     number of atomic types    =            4
     number of electrons       =        24.00
     number of Kohn-Sham states=           12
     kinetic-energy cutoff     =      30.0000  Ry
     charge density cutoff     =     300.0000  Ry
     convergence threshold     =      1.0E-03
     mixing beta               =       0.7000
     number of iterations used =            8  plain     mixing
     Exchange-correlation      = SLA PW PBE PBE ( 1  4  3  4 0 0)
 

     Environ Module
     ==============

     Plese cite
         O. Andreussi, I. Dabo and N. Marzari, J. Chem. Phys. 136, 064102 (2012)         
     in publications or presentations arising from this work.

     compensation onset threshold      =               0.1000E+03 
     static permittivity               =                    78.30 
     epsilon calculation mode          =               electronic 
     surface tension in input (dyn/cm) =                    50.00 
     surface tension in internal units =               0.6423E-04 
     external pressure in input (GPa)  =                    -0.35 
     external pressure in inter. units =              -0.2379E-04 

     Electrostatic Setup
     -------------------
     electrostatic problem to solve    = generalized              
     numerical solver adopted          = cg                       
     type of auxiliary density adopted = none                     
     type of core tool for poisson     = fft                      
     type of core tool for s(r) deriv  = analytic                 



     celldm(1)=  20.000000  celldm(2)=   0.000000  celldm(3)=   0.000000
     celldm(4)=   0.000000  celldm(5)=   0.000000  celldm(6)=   0.000000

     crystal axes: (cart. coord. in units of alat)
               a(1) = (   1.000000   0.000000   0.000000 )  
               a(2) = (   0.000000   1.000000   0.000000 )  
               a(3) = (   0.000000   0.000000   1.000000 )  

     reciprocal axes: (cart. coord. in units 2 pi/alat)
               b(1) = (  1.000000  0.000000  0.000000 )  
               b(2) = (  0.000000  1.000000  0.000000 )  
               b(3) = (  0.000000  0.000000  1.000000 )  


     PseudoPot. # 1 for C  read from file:
     /home/fnattino/Programs/quantumespresso/q-e-qe-6.3-develop/Environ/tests/../..//pseudo/C.pbe-rrkjus.UPF
     MD5 check sum: c9ac5a99bc85b198593446162950cd17
     Pseudo is Ultrasoft, Zval =  4.0
     Generated by new atomic code, or converted to UPF format
     Using radial grid of  627 points,  4 beta functions with: 
                l(1) =   0
                l(2) =   0
                l(3) =   1
                l(4) =   1
     Q(r) pseudized with 0 coefficients 


     PseudoPot. # 2 for H  read from file:
     /home/fnattino/Programs/quantumespresso/q-e-qe-6.3-develop/Environ/tests/../..//pseudo/H.pbe-rrkjus.UPF
     MD5 check sum: 2d52a7f45632fd764c17cc6affed14c8
     Pseudo is Ultrasoft, Zval =  1.0
     Generated by new atomic code, or converted to UPF format
     Using radial grid of 1061 points,  2 beta functions with: 
                l(1) =   0
                l(2) =   0
     Q(r) pseudized with 0 coefficients 


     PseudoPot. # 3 for N  read from file:
     /home/fnattino/Programs/quantumespresso/q-e-qe-6.3-develop/Environ/tests/../..//pseudo/N.pbe-rrkjus.UPF
     MD5 check sum: 28c76d763763edb36c62a6ca2be9aebd
     Pseudo is Ultrasoft, Zval =  5.0
     Generated by new atomic code, or converted to UPF format
     Using radial grid of 1257 points,  4 beta functions with: 
                l(1) =   0
                l(2) =   0
                l(3) =   1
                l(4) =   1
     Q(r) pseudized with 0 coefficients 


     PseudoPot. # 4 for O  read from file:
     /home/fnattino/Programs/quantumespresso/q-e-qe-6.3-develop/Environ/tests/../..//pseudo/O.pbe-rrkjus.UPF
     MD5 check sum: fadcf19ee70a498d3030e2e79cf929a4
     Pseudo is Ultrasoft, Zval =  6.0
     Generated by new atomic code, or converted to UPF format
     Using radial grid of 1269 points,  4 beta functions with: 
                l(1) =   0
                l(2) =   0
                l(3) =   1
                l(4) =   1
     Q(r) pseudized with 0 coefficients 


     atomic species   valence    mass     pseudopotential
        C              4.00    12.00000     C ( 1.00)
        H              1.00     1.00000     H ( 1.00)
        N              5.00    14.00000     N ( 1.00)
        O              6.00    16.00000     O ( 1.00)

     No symmetry found



   Cartesian axes

     site n.     atom                  positions (alat units)
         1           C   tau(   1) = (   0.0000000   0.0000000   0.0000000  )
         2           C   tau(   2) = (   0.0000000   0.0000000   0.1455089  )
         3           N   tau(   3) = (   0.1170969   0.0000000  -0.0545024  )
         4           H   tau(   4) = (   0.0476617  -0.0825466   0.1792090  )
         5           H   tau(   5) = (  -0.0953183  -0.0000030   0.1792090  )
         6           H   tau(   6) = (   0.0476566   0.0825496   0.1792090  )
         7           O   tau(   7) = (  -0.0984002  -0.0000019  -0.0641310  )
         8           H   tau(   8) = (   0.1263131  -0.0000015  -0.1475548  )
         9           H   tau(   9) = (   0.1944645   0.0000134  -0.0025716  )

     number of k points=     1
                       cart. coord. in units 2pi/alat
        k(    1) = (   0.0000000   0.0000000   0.0000000), wk =   2.0000000

     Dense  grid:   350738 G-vectors     FFT dimensions: ( 120, 120, 120)

     Smooth grid:    88755 G-vectors     FFT dimensions: (  72,  72,  72)

     Estimated max dynamical RAM per process >     675.41 MB

     Initial potential from superposition of free atoms
     Check: negative starting charge=   -0.000530

     starting charge   23.51886, renormalised to   24.00000

     negative rho (up, down):  5.411E-04 0.000E+00
     Starting wfcs are   21 randomized atomic wfcs

     total cpu time spent up to now is        5.2 secs

     Self-consistent Calculation

     iteration #  1     ecut=    30.00 Ry     beta= 0.70
     Davidson diagonalization with overlap
     ethr =  1.00E-02,  avg # of iterations =  2.0

     negative rho (up, down):  1.677E-04 0.000E+00

     add environment contribution to local potential
     polarization accuracy = 2.5E-06, # of iterations =  14

     total cpu time spent up to now is        9.6 secs

     total energy              =     -79.58298270 Ry
     Harris-Foulkes estimate   =     -81.75211111 Ry
     estimated scf accuracy    <       2.90357419 Ry
     electrostatic embedding   =       0.00000000 Ry
     cavitation energy         =       0.05549959 Ry
     PV energy                 =      -0.05773003 Ry
     correction to one-el term =       0.00000000 Ry

     iteration #  2     ecut=    30.00 Ry     beta= 0.70
     Davidson diagonalization with overlap
     ethr =  1.00E-02,  avg # of iterations =  4.0

     negative rho (up, down):  1.535E-03 0.000E+00

     add environment contribution to local potential
     polarization accuracy = 7.7E-06, # of iterations =  15

     total cpu time spent up to now is       14.3 secs

     total energy              =     -79.97858098 Ry
     Harris-Foulkes estimate   =     -79.72901969 Ry
     estimated scf accuracy    <       1.86484349 Ry
     electrostatic embedding   =      -0.03546555 Ry
     cavitation energy         =       0.03075199 Ry
     PV energy                 =      -0.02263433 Ry
     correction to one-el term =      -1.21474937 Ry

     iteration #  3     ecut=    30.00 Ry     beta= 0.70
     Davidson diagonalization with overlap
     ethr =  7.77E-03,  avg # of iterations =  3.0

     negative rho (up, down):  4.228E-04 0.000E+00

     add environment contribution to local potential
     polarization accuracy = 4.5E-06, # of iterations =  15

     total cpu time spent up to now is       18.8 secs

     total energy              =     -80.44072467 Ry
     Harris-Foulkes estimate   =     -79.84266025 Ry
     estimated scf accuracy    <       0.21429516 Ry
     electrostatic embedding   =      -0.05062075 Ry
     cavitation energy         =       0.02975117 Ry
     PV energy                 =      -0.02080799 Ry
     correction to one-el term =      -0.66407306 Ry

     iteration #  4     ecut=    30.00 Ry     beta= 0.70
     Davidson diagonalization with overlap
     ethr =  8.93E-04,  avg # of iterations =  3.0

     negative rho (up, down):  1.800E-04 0.000E+00

     add environment contribution to local potential
     polarization accuracy = 3.7E-06, # of iterations =  16

     total cpu time spent up to now is       23.4 secs

     total energy              =     -80.49161404 Ry
     Harris-Foulkes estimate   =     -80.07195764 Ry
     estimated scf accuracy    <       0.02754281 Ry
     electrostatic embedding   =      -0.04078340 Ry
     cavitation energy         =       0.02856165 Ry
     PV energy                 =      -0.01955782 Ry
     correction to one-el term =      -0.40163926 Ry

     iteration #  5     ecut=    30.00 Ry     beta= 0.70
     Davidson diagonalization with overlap
     ethr =  1.15E-04,  avg # of iterations =  3.0

     negative rho (up, down):  1.101E-04 0.000E+00

     add environment contribution to local potential
     polarization accuracy = 5.1E-06, # of iterations =  16

     total cpu time spent up to now is       27.9 secs

     total energy              =     -80.49896519 Ry
     Harris-Foulkes estimate   =     -80.30726397 Ry
     estimated scf accuracy    <       0.00407297 Ry
     electrostatic embedding   =      -0.04680789 Ry
     cavitation energy         =       0.02783188 Ry
     PV energy                 =      -0.01861882 Ry
     correction to one-el term =      -0.15618398 Ry

     iteration #  6     ecut=    30.00 Ry     beta= 0.70
     Davidson diagonalization with overlap
     ethr =  1.70E-05,  avg # of iterations =  3.0

     negative rho (up, down):  2.226E-04 0.000E+00

     the potential shift due to the Gaussian-smeared nuclei is    -0.0641 ev

     total cpu time spent up to now is       30.4 secs

     End of self-consistent calculation

          k = 0.0000 0.0000 0.0000 ( 11060 PWs)   bands (ev):

   -25.3606 -21.9781 -17.6252 -14.0330 -12.6319 -10.9444 -10.4046  -9.3164
    -9.1172  -8.4871  -6.0877  -5.5393

     highest occupied level (ev):    -5.5393

!    total energy              =     -80.50001397 Ry
     Harris-Foulkes estimate   =     -80.35621523 Ry
     estimated scf accuracy    <       0.00031581 Ry

     The total energy is the sum of the following terms:

     one-electron contribution =    -236.02988898 Ry
     hartree contribution      =     121.63241617 Ry
     xc contribution           =     -22.70621460 Ry
     ewald contribution        =      56.74764018 Ry
     electrostatic embedding   =      -0.04701515 Ry
     cavitation energy         =       0.02780275 Ry
     PV energy                 =      -0.01856614 Ry
     correction to one-el term =      -0.10618819 Ry

     convergence has been achieved in   6 iterations

     Forces acting on atoms (cartesian axes, Ry/au):

     atom    1 type  1   force =     0.02536019   -0.00000248    0.00784959
     atom    2 type  1   force =    -0.00651123    0.00000493   -0.06063278
     atom    3 type  3   force =    -0.06664278   -0.00000187    0.03171872
     atom    4 type  2   force =     0.02108839   -0.02953906    0.01472783
     atom    5 type  2   force =    -0.03235984   -0.00000041    0.00993283
     atom    6 type  2   force =     0.02108731    0.02954329    0.01472894
     atom    7 type  4   force =    -0.00563786   -0.00000809   -0.00094867
     atom    8 type  2   force =     0.00133599    0.00000113   -0.04638352
     atom    9 type  2   force =     0.04227984    0.00000256    0.02900705

     Total force =     0.137478     Total SCF correction =     0.031840
     SCF correction compared to forces is large: reduce conv_thr to get better values

     Writing output data file pwscf.save/
 
     init_run     :      4.03s CPU      4.53s WALL (       1 calls)
     electrons    :     20.74s CPU     25.20s WALL (       1 calls)
     forces       :      0.72s CPU      0.94s WALL (       1 calls)

     Called by init_run:
     wfcinit      :      0.13s CPU      0.13s WALL (       1 calls)
     potinit      :      1.68s CPU      1.84s WALL (       1 calls)
     hinit0       :      1.85s CPU      1.90s WALL (       1 calls)

     Called by electrons:
     c_bands      :      1.37s CPU      1.38s WALL (       6 calls)
     sum_band     :      2.39s CPU      3.41s WALL (       6 calls)
     v_of_rho     :      3.19s CPU      3.51s WALL (       7 calls)
     newd         :      1.75s CPU      3.01s WALL (       7 calls)
     mix_rho      :      0.29s CPU      0.30s WALL (       6 calls)

     Called by c_bands:
     init_us_2    :      0.06s CPU      0.06s WALL (      13 calls)
     regterg      :      1.29s CPU      1.30s WALL (       6 calls)

     Called by sum_band:
     sum_band:bec :      0.00s CPU      0.00s WALL (       6 calls)
     addusdens    :      1.94s CPU      2.97s WALL (       6 calls)

     Called by *egterg:
     h_psi        :      1.30s CPU      1.30s WALL (      25 calls)
     s_psi        :      0.02s CPU      0.02s WALL (      25 calls)
     g_psi        :      0.01s CPU      0.01s WALL (      18 calls)
     rdiaghg      :      0.00s CPU      0.01s WALL (      24 calls)

     Called by h_psi:
     h_psi:pot    :      1.29s CPU      1.29s WALL (      25 calls)
     h_psi:calbec :      0.02s CPU      0.03s WALL (      25 calls)
     vloc_psi     :      1.26s CPU      1.25s WALL (      25 calls)
     add_vuspsi   :      0.01s CPU      0.02s WALL (      25 calls)

     General routines
     calbec       :      0.03s CPU      0.04s WALL (      35 calls)
     fft          :      6.14s CPU      6.25s WALL (     359 calls)
     ffts         :      0.04s CPU      0.04s WALL (      13 calls)
     fftw         :      1.14s CPU      1.12s WALL (     282 calls)
     interpolate  :      0.18s CPU      0.22s WALL (       7 calls)
 
     Parallel routines
 
     Environ routines
     calc_eelect  :      0.01s CPU      0.02s WALL (      12 calls)
     calc_velect  :      6.48s CPU      7.88s WALL (      10 calls)
     dielectric   :      0.37s CPU      0.39s WALL (       8 calls)
     calc_felect  :      0.08s CPU      0.08s WALL (       1 calls)
 
     PWSCF        :    26.13s CPU        31.35s WALL

 
   This run was terminated on:  23:47:59  21Apr2019            

=------------------------------------------------------------------------------=
   JOB DONE.
=------------------------------------------------------------------------------=

%%%% IONS %%%%%%%%%%%%%%%%%%%%%%%%%%%%%%%%%%%%%%%%%%%%%%%%%%%%%%%%%%%%%%%%%%%%%%
 number of ions             =          9
 ionic center of charge     =      0.0131609     0.0000000     0.0130099
 total ionic charge         =    -24.0000000
 ionic dipole               =      0.0000000     0.0000000     0.0000000
 ionic quadrupole (pc)      =    -75.9587432    -5.4513517   -95.3140149
 ionic quadrupole (gauss)   =    -78.9587432    -8.4513517   -98.3140149
 ion   1 type =  1 coordinates =      0.0000000     0.0000000     0.0000000
 ion   2 type =  1 coordinates =      0.0000000     0.0000000     2.9101782
 ion   3 type =  3 coordinates =      2.3419379     0.0000000    -1.0900479
 ion   4 type =  2 coordinates =      0.9532347    -1.6509323     3.5841800
 ion   5 type =  2 coordinates =     -1.9063663    -0.0000596     3.5841809
 ion   6 type =  2 coordinates =      0.9531315     1.6509919     3.5841800
 ion   7 type =  4 coordinates =     -1.9680045    -0.0000375    -1.2826193
 ion   8 type =  2 coordinates =      2.5262613    -0.0000303    -2.9510950
 ion   9 type =  2 coordinates =      3.8892907     0.0002681    -0.0514326

%%%% SYSTEM %%%%%%%%%%%%%%%%%%%%%%%%%%%%%%%%%%%%%%%%%%%%%%%%%%%%%%%%%%%%%%%%%%%%
 system is built from all present ionic types
 system defined dimension   =  0 
 system defined axis        =  3 
 system center              =      0.0131609     0.0000000     0.0130099 
 system width               =      0.1984688 

%%%% ELECTRONS %%%%%%%%%%%%%%%%%%%%%%%%%%%%%%%%%%%%%%%%%%%%%%%%%%%%%%%%%%%%%%%%%
 number of electrons        =         24
 total electronic charge    =     24.0000000
 number of spin components  =  1

%%%% BOUNDARY %%%%%%%%%%%%%%%%%%%%%%%%%%%%%%%%%%%%%%%%%%%%%%%%%%%%%%%%%%%%%%%%%%
 boundary label             = solvent              
 boundary mode              = electronic           
 boundary is built as a function of a smooth density
 function type              =  2 
 using the modified SCCS function with parameters 
 rhomax                     =      0.0050000 
 rhomin                     =      0.0001000 
 volume of the QM region    =   2426.3938968 
 surface of the QM region   =    864.0691993 

%%%% DIELECTRIC %%%%%%%%%%%%%%%%%%%%%%%%%%%%%%%%%%%%%%%%%%%%%%%%%%%%%%%%%%%%%%%%%
 dielectric build on homogeneous background
 environment bulk permitt.  =     78.3000000 
 dielectric flags
 need gradient              =  F 
 need factor depend. sqrt   =  T 
 total dielectric charge    =      0.0000000

%%%% DENSITY %%%%%%%%%%%%%%%%%%%%%%%%%%%%%%%%%%%%%%%%%%%%%%%%%%%%%%%%%%%%%%%%%%%
 density label              = vreference                                                                      
 integral of density        =      0.000000000    

%%%% DENSITY %%%%%%%%%%%%%%%%%%%%%%%%%%%%%%%%%%%%%%%%%%%%%%%%%%%%%%%%%%%%%%%%%%%
 density label              = velectrostatic                                                                  
 integral of density        =      0.000000000    

%%%% CHARGES %%%%%%%%%%%%%%%%%%%%%%%%%%%%%%%%%%%%%%%%%%%%%%%%%%%%%%%%%%%%%%%%%%%
 total number of charges    =         33
 total charge               =      0.0000000

%%%% DENSITY %%%%%%%%%%%%%%%%%%%%%%%%%%%%%%%%%%%%%%%%%%%%%%%%%%%%%%%%%%%%%%%%%%%
 density label              = vsoftcavity                                                                     
 integral of density        =      0.000000000    

%%%% ELECTRONS %%%%%%%%%%%%%%%%%%%%%%%%%%%%%%%%%%%%%%%%%%%%%%%%%%%%%%%%%%%%%%%%%
 number of electrons        =         24
 total electronic charge    =     24.0000000
 number of spin components  =  1

%%%% BOUNDARY %%%%%%%%%%%%%%%%%%%%%%%%%%%%%%%%%%%%%%%%%%%%%%%%%%%%%%%%%%%%%%%%%%
 boundary label             = solvent              
 boundary mode              = electronic           
 boundary is built as a function of a smooth density
 function type              =  2 
 using the modified SCCS function with parameters 
 rhomax                     =      0.0050000 
 rhomin                     =      0.0001000 
 volume of the QM region    =    951.3212500 
 surface of the QM region   =    478.7754806 

%%%% DIELECTRIC %%%%%%%%%%%%%%%%%%%%%%%%%%%%%%%%%%%%%%%%%%%%%%%%%%%%%%%%%%%%%%%%%
 dielectric build on homogeneous background
 environment bulk permitt.  =     78.3000000 
 dielectric flags
 need gradient              =  F 
 need factor depend. sqrt   =  T 
 total dielectric charge    =      0.0000000

%%%% DENSITY %%%%%%%%%%%%%%%%%%%%%%%%%%%%%%%%%%%%%%%%%%%%%%%%%%%%%%%%%%%%%%%%%%%
 density label              = vreference                                                                      
 integral of density        =     0.3929038165E-12

%%%% COMPUTE ELECTROSTATIC POTENTIAL %%%%%%%%%%%%%%%%%%%%%%%%%%%%%%%%%%%%%%%%%%%
 Iteration #          1
  pAp =    89.7170031956688       rzold =    89.3186186980329       alpha = 
  0.995559542969051     
 delta_qm =   0.499932E-02 delta_en =   0.431882E+02 tol =   0.100000E-04
 Iteration #          2
  pAp =    13.5278784062246       rzold =    2.02881917725512       alpha = 
  0.149973197299112     
 delta_qm =   0.158983E-02 delta_en =   0.436764E+01 tol =   0.100000E-04
 Iteration #          3
  pAp =   0.240825999925161       rzold =   6.015787173998358E-002  alpha = 
  0.249798077278526     
 delta_qm =   0.795598E-03 delta_en =   0.109378E+01 tol =   0.100000E-04
 Iteration #          4
  pAp =   5.735773067183510E-002  rzold =   1.081022346100602E-002  alpha = 
  0.188470208538328     
 delta_qm =   0.658993E-03 delta_en =   0.750422E+00 tol =   0.100000E-04
 Iteration #          5
  pAp =   2.578485900800622E-003  rzold =   1.225266244464522E-003  alpha = 
  0.475188266138696     
 delta_qm =   0.342934E-03 delta_en =   0.203220E+00 tol =   0.100000E-04
 Iteration #          6
  pAp =   1.364581075606792E-003  rzold =   5.579854876004162E-004  alpha = 
  0.408906072035548     
 delta_qm =   0.171036E-03 delta_en =   0.505498E-01 tol =   0.100000E-04
 Iteration #          7
  pAp =   3.342370222970903E-004  rzold =   1.363256178100716E-004  alpha = 
  0.407871087628638     
 delta_qm =   0.105684E-03 delta_en =   0.193001E-01 tol =   0.100000E-04
 Iteration #          8
  pAp =   2.565939075735859E-004  rzold =   8.140920304286851E-005  alpha = 
  0.317268651515126     
 delta_qm =   0.636493E-04 delta_en =   0.700053E-02 tol =   0.100000E-04
 Iteration #          9
  pAp =   7.216215331665586E-005  rzold =   2.946687528668905E-005  alpha = 
  0.408342516573542     
 delta_qm =   0.288642E-04 delta_en =   0.143967E-02 tol =   0.100000E-04
 Iteration #         10
  pAp =   1.426649829843374E-005  rzold =   5.558782061058542E-006  alpha = 
  0.389638854943740     
 delta_qm =   0.195224E-04 delta_en =   0.658580E-03 tol =   0.100000E-04
 Iteration #         11
  pAp =   1.402966977422971E-006  rzold =   9.461550357202760E-007  alpha = 
  0.674395799007482     
 delta_qm =   0.996268E-05 delta_en =   0.171513E-03 tol =   0.100000E-04
 Iteration #         12
  pAp =   6.257246144764010E-007  rzold =   3.956770187161273E-007  alpha = 
  0.632350093894301     
 delta_qm =   0.416273E-05 delta_en =   0.299433E-04 tol =   0.100000E-04
 Iteration #         13
  pAp =   3.534225429783788E-007  rzold =   1.336229619076278E-007  alpha = 
  0.378082735700882     
 delta_qm =   0.244770E-05 delta_en =   0.103529E-04 tol =   0.100000E-04
 Iteration #         14
  pAp =   7.951648175091696E-008  rzold =   3.035015876127096E-008  alpha = 
  0.381683873493573     
 delta_qm =   0.120981E-05 delta_en =   0.252917E-05 tol =   0.100000E-04
 Charges are converged, EXIT

%%%% DENSITY %%%%%%%%%%%%%%%%%%%%%%%%%%%%%%%%%%%%%%%%%%%%%%%%%%%%%%%%%%%%%%%%%%%
 density label              = velectrostatic                                                                  
 integral of density        =    -0.4004039898E-12

%%%% CHARGES %%%%%%%%%%%%%%%%%%%%%%%%%%%%%%%%%%%%%%%%%%%%%%%%%%%%%%%%%%%%%%%%%%%
 total number of charges    =         33
 total charge               =     -0.0000000

%%%% DENSITY %%%%%%%%%%%%%%%%%%%%%%%%%%%%%%%%%%%%%%%%%%%%%%%%%%%%%%%%%%%%%%%%%%%
 density label              = vsoftcavity                                                                     
 integral of density        =      6.947617702    

%%%% ELECTRONS %%%%%%%%%%%%%%%%%%%%%%%%%%%%%%%%%%%%%%%%%%%%%%%%%%%%%%%%%%%%%%%%%
 number of electrons        =         24
 total electronic charge    =     24.0000000
 number of spin components  =  1

%%%% BOUNDARY %%%%%%%%%%%%%%%%%%%%%%%%%%%%%%%%%%%%%%%%%%%%%%%%%%%%%%%%%%%%%%%%%%
 boundary label             = solvent              
 boundary mode              = electronic           
 boundary is built as a function of a smooth density
 function type              =  2 
 using the modified SCCS function with parameters 
 rhomax                     =      0.0050000 
 rhomin                     =      0.0001000 
 volume of the QM region    =    874.5601420 
 surface of the QM region   =    463.1937916 

%%%% DIELECTRIC %%%%%%%%%%%%%%%%%%%%%%%%%%%%%%%%%%%%%%%%%%%%%%%%%%%%%%%%%%%%%%%%%
 dielectric build on homogeneous background
 environment bulk permitt.  =     78.3000000 
 dielectric flags
 need gradient              =  F 
 need factor depend. sqrt   =  T 
 total dielectric charge    =     -0.0000705

%%%% DENSITY %%%%%%%%%%%%%%%%%%%%%%%%%%%%%%%%%%%%%%%%%%%%%%%%%%%%%%%%%%%%%%%%%%%
 density label              = vreference                                                                      
 integral of density        =    -0.1080946032E-12

%%%% COMPUTE ELECTROSTATIC POTENTIAL %%%%%%%%%%%%%%%%%%%%%%%%%%%%%%%%%%%%%%%%%%%
 Warning: bad guess with residual norm =   0.225220E+03, reset to no guess
 Iteration #          1
  pAp =    91.7823243869568       rzold =    91.0943360927770       alpha = 
  0.992504130846815     
 delta_qm =   0.113427E-01 delta_en =   0.222317E+03 tol =   0.100000E-04
 Iteration #          2
  pAp =    30.0218484961840       rzold =    4.13285618313930       alpha = 
  0.137661616128155     
 delta_qm =   0.220787E-02 delta_en =   0.842344E+01 tol =   0.100000E-04
 Iteration #          3
  pAp =   0.129335686528961       rzold =   3.422154813221678E-002  alpha = 
  0.264594784708194     
 delta_qm =   0.162396E-02 delta_en =   0.455714E+01 tol =   0.100000E-04
 Iteration #          4
  pAp =   2.211026406036455E-002  rzold =   5.036498095310784E-003  alpha = 
  0.227790047263133     
 delta_qm =   0.104119E-02 delta_en =   0.187327E+01 tol =   0.100000E-04
 Iteration #          5
  pAp =   5.694996526457764E-003  rzold =   1.996283685110105E-003  alpha = 
  0.350532906532214     
 delta_qm =   0.852460E-03 delta_en =   0.125572E+01 tol =   0.100000E-04
 Iteration #          6
  pAp =   2.837289540698512E-003  rzold =   1.046240062803351E-003  alpha = 
  0.368746315029159     
 delta_qm =   0.462920E-03 delta_en =   0.370302E+00 tol =   0.100000E-04
 Iteration #          7
  pAp =   7.819193651956013E-004  rzold =   3.002709151270751E-004  alpha = 
  0.384017749773931     
 delta_qm =   0.300367E-03 delta_en =   0.155901E+00 tol =   0.100000E-04
 Iteration #          8
  pAp =   7.852501770139475E-004  rzold =   2.554345430028959E-004  alpha = 
  0.325290653195687     
 delta_qm =   0.130754E-03 delta_en =   0.295429E-01 tol =   0.100000E-04
 Iteration #          9
  pAp =   1.833008409366908E-004  rzold =   6.892070546418385E-005  alpha = 
  0.375997759268262     
 delta_qm =   0.676144E-04 delta_en =   0.789992E-02 tol =   0.100000E-04
 Iteration #         10
  pAp =   3.051077807885637E-005  rzold =   1.141489440911479E-005  alpha = 
  0.374126624355909     
 delta_qm =   0.393714E-04 delta_en =   0.267858E-02 tol =   0.100000E-04
 Iteration #         11
  pAp =   3.810285526147142E-006  rzold =   2.058065962496711E-006  alpha = 
  0.540134314967669     
 delta_qm =   0.252680E-04 delta_en =   0.110328E-02 tol =   0.100000E-04
 Iteration #         12
  pAp =   1.786521199014254E-006  rzold =   1.061001028509852E-006  alpha = 
  0.593892213031269     
 delta_qm =   0.131962E-04 delta_en =   0.300911E-03 tol =   0.100000E-04
 Iteration #         13
  pAp =   1.669846813614781E-006  rzold =   6.210829584759904E-007  alpha = 
  0.371940080618239     
 delta_qm =   0.812051E-05 delta_en =   0.113949E-03 tol =   0.100000E-04
 Iteration #         14
  pAp =   2.487142844292895E-007  rzold =   1.206988362177726E-007  alpha = 
  0.485291130321418     
 delta_qm =   0.389900E-05 delta_en =   0.262694E-04 tol =   0.100000E-04
 Iteration #         15
  pAp =   4.885423260081743E-008  rzold =   2.085483765510921E-008  alpha = 
  0.426878830039391     
 delta_qm =   0.211366E-05 delta_en =   0.771996E-05 tol =   0.100000E-04
 Charges are converged, EXIT

%%%% DENSITY %%%%%%%%%%%%%%%%%%%%%%%%%%%%%%%%%%%%%%%%%%%%%%%%%%%%%%%%%%%%%%%%%%%
 density label              = velectrostatic                                                                  
 integral of density        =    -0.4061935973E-12

%%%% CHARGES %%%%%%%%%%%%%%%%%%%%%%%%%%%%%%%%%%%%%%%%%%%%%%%%%%%%%%%%%%%%%%%%%%%
 total number of charges    =         33
 total charge               =      0.0000000

%%%% DENSITY %%%%%%%%%%%%%%%%%%%%%%%%%%%%%%%%%%%%%%%%%%%%%%%%%%%%%%%%%%%%%%%%%%%
 density label              = vsoftcavity                                                                     
 integral of density        =      18.60639239    

%%%% ELECTRONS %%%%%%%%%%%%%%%%%%%%%%%%%%%%%%%%%%%%%%%%%%%%%%%%%%%%%%%%%%%%%%%%%
 number of electrons        =         24
 total electronic charge    =     24.0000000
 number of spin components  =  1

%%%% BOUNDARY %%%%%%%%%%%%%%%%%%%%%%%%%%%%%%%%%%%%%%%%%%%%%%%%%%%%%%%%%%%%%%%%%%
 boundary label             = solvent              
 boundary mode              = electronic           
 boundary is built as a function of a smooth density
 function type              =  2 
 using the modified SCCS function with parameters 
 rhomax                     =      0.0050000 
 rhomin                     =      0.0001000 
 volume of the QM region    =    822.0156204 
 surface of the QM region   =    444.6743368 

%%%% DIELECTRIC %%%%%%%%%%%%%%%%%%%%%%%%%%%%%%%%%%%%%%%%%%%%%%%%%%%%%%%%%%%%%%%%%
 dielectric build on homogeneous background
 environment bulk permitt.  =     78.3000000 
 dielectric flags
 need gradient              =  F 
 need factor depend. sqrt   =  T 
 total dielectric charge    =     -0.0001132

%%%% DENSITY %%%%%%%%%%%%%%%%%%%%%%%%%%%%%%%%%%%%%%%%%%%%%%%%%%%%%%%%%%%%%%%%%%%
 density label              = vreference                                                                      
 integral of density        =     0.3004016788E-12

%%%% COMPUTE ELECTROSTATIC POTENTIAL %%%%%%%%%%%%%%%%%%%%%%%%%%%%%%%%%%%%%%%%%%%
 Warning: bad guess with residual norm =   0.163898E+03, reset to no guess
 Iteration #          1
  pAp =    92.8142218870805       rzold =    92.2576353341148       alpha = 
  0.994003219101025     
 delta_qm =   0.968947E-02 delta_en =   0.162235E+03 tol =   0.100000E-04
 Iteration #          2
  pAp =    28.0160138081013       rzold =    3.59316586158882       alpha = 
  0.128254000951049     
 delta_qm =   0.195220E-02 delta_en =   0.658558E+01 tol =   0.100000E-04
 Iteration #          3
  pAp =   0.206555787388596       rzold =   4.733712867715657E-002  alpha = 
  0.229173577151342     
 delta_qm =   0.105173E-02 delta_en =   0.191141E+01 tol =   0.100000E-04
 Iteration #          4
  pAp =   3.384136522231484E-002  rzold =   6.756741563498640E-003  alpha = 
  0.199659248943163     
 delta_qm =   0.102837E-02 delta_en =   0.182745E+01 tol =   0.100000E-04
 Iteration #          5
  pAp =   5.423502826857849E-003  rzold =   1.954202618071897E-003  alpha = 
  0.360321120954238     
 delta_qm =   0.616430E-03 delta_en =   0.656616E+00 tol =   0.100000E-04
 Iteration #          6
  pAp =   3.062398212709613E-003  rzold =   1.227916380830324E-003  alpha = 
  0.400965614378367     
 delta_qm =   0.353792E-03 delta_en =   0.216292E+00 tol =   0.100000E-04
 Iteration #          7
  pAp =   5.743291692833961E-004  rzold =   3.406427028992139E-004  alpha = 
  0.593114055697783     
 delta_qm =   0.173790E-03 delta_en =   0.521906E-01 tol =   0.100000E-04
 Iteration #          8
  pAp =   3.162883553034822E-004  rzold =   1.506430421615313E-004  alpha = 
  0.476283870827264     
 delta_qm =   0.670308E-04 delta_en =   0.776412E-02 tol =   0.100000E-04
 Iteration #          9
  pAp =   1.763279708242944E-004  rzold =   4.790909865006145E-005  alpha = 
  0.271704474486362     
 delta_qm =   0.314780E-04 delta_en =   0.171221E-02 tol =   0.100000E-04
 Iteration #         10
  pAp =   4.930756651034820E-005  rzold =   1.038170962015778E-005  alpha = 
  0.210550030246959     
 delta_qm =   0.207527E-04 delta_en =   0.744203E-03 tol =   0.100000E-04
 Iteration #         11
  pAp =   8.928752980540292E-006  rzold =   2.523033459656152E-006  alpha = 
  0.282574001672457     
 delta_qm =   0.136105E-04 delta_en =   0.320106E-03 tol =   0.100000E-04
 Iteration #         12
  pAp =   1.144639526032637E-006  rzold =   4.620718948379238E-007  alpha = 
  0.403683329405443     
 delta_qm =   0.913580E-05 delta_en =   0.144224E-03 tol =   0.100000E-04
 Iteration #         13
  pAp =   3.706264484944195E-007  rzold =   1.852160906609784E-007  alpha = 
  0.499737920521792     
 delta_qm =   0.484174E-05 delta_en =   0.405086E-04 tol =   0.100000E-04
 Iteration #         14
  pAp =   1.335312910604788E-007  rzold =   6.929984428600681E-008  alpha = 
  0.518978313889137     
 delta_qm =   0.307997E-05 delta_en =   0.163922E-04 tol =   0.100000E-04
 Iteration #         15
  pAp =   3.409018653996789E-008  rzold =   1.880743943785979E-008  alpha = 
  0.551696583291196     
 delta_qm =   0.160966E-05 delta_en =   0.447726E-05 tol =   0.100000E-04
 Charges are converged, EXIT

%%%% DENSITY %%%%%%%%%%%%%%%%%%%%%%%%%%%%%%%%%%%%%%%%%%%%%%%%%%%%%%%%%%%%%%%%%%%
 density label              = velectrostatic                                                                  
 integral of density        =     0.5500127103E-12

%%%% CHARGES %%%%%%%%%%%%%%%%%%%%%%%%%%%%%%%%%%%%%%%%%%%%%%%%%%%%%%%%%%%%%%%%%%%
 total number of charges    =         33
 total charge               =      0.0000000

%%%% DENSITY %%%%%%%%%%%%%%%%%%%%%%%%%%%%%%%%%%%%%%%%%%%%%%%%%%%%%%%%%%%%%%%%%%%
 density label              = vsoftcavity                                                                     
 integral of density        =      10.63699999    

%%%% ELECTRONS %%%%%%%%%%%%%%%%%%%%%%%%%%%%%%%%%%%%%%%%%%%%%%%%%%%%%%%%%%%%%%%%%
 number of electrons        =         24
 total electronic charge    =     24.0000000
 number of spin components  =  1

%%%% BOUNDARY %%%%%%%%%%%%%%%%%%%%%%%%%%%%%%%%%%%%%%%%%%%%%%%%%%%%%%%%%%%%%%%%%%
 boundary label             = solvent              
 boundary mode              = electronic           
 boundary is built as a function of a smooth density
 function type              =  2 
 using the modified SCCS function with parameters 
 rhomax                     =      0.0050000 
 rhomin                     =      0.0001000 
 volume of the QM region    =    782.5491286 
 surface of the QM region   =    433.3124768 

%%%% DIELECTRIC %%%%%%%%%%%%%%%%%%%%%%%%%%%%%%%%%%%%%%%%%%%%%%%%%%%%%%%%%%%%%%%%%
 dielectric build on homogeneous background
 environment bulk permitt.  =     78.3000000 
 dielectric flags
 need gradient              =  F 
 need factor depend. sqrt   =  T 
 total dielectric charge    =      0.0000834

%%%% DENSITY %%%%%%%%%%%%%%%%%%%%%%%%%%%%%%%%%%%%%%%%%%%%%%%%%%%%%%%%%%%%%%%%%%%
 density label              = vreference                                                                      
 integral of density        =    -0.2648745421E-12

%%%% COMPUTE ELECTROSTATIC POTENTIAL %%%%%%%%%%%%%%%%%%%%%%%%%%%%%%%%%%%%%%%%%%%
 Warning: bad guess with residual norm =   0.247102E+03, reset to no guess
 Iteration #          1
  pAp =    92.7778607653922       rzold =    92.1159800936900       alpha = 
  0.992865963213186     
 delta_qm =   0.118830E-01 delta_en =   0.244003E+03 tol =   0.100000E-04
 Iteration #          2
  pAp =    37.1947826148331       rzold =    4.52798058762813       alpha = 
  0.121736982160030     
 delta_qm =   0.234379E-02 delta_en =   0.949250E+01 tol =   0.100000E-04
 Iteration #          3
  pAp =   0.300056656891804       rzold =   6.298088069014557E-002  alpha = 
  0.209896628665218     
 delta_qm =   0.114319E-02 delta_en =   0.225831E+01 tol =   0.100000E-04
 Iteration #          4
  pAp =   5.390766233790353E-002  rzold =   9.647294892236142E-003  alpha = 
  0.178959622321685     
 delta_qm =   0.118810E-02 delta_en =   0.243921E+01 tol =   0.100000E-04
 Iteration #          5
  pAp =   6.749632230667720E-003  rzold =   2.250092694911106E-003  alpha = 
  0.333365229099084     
 delta_qm =   0.759951E-03 delta_en =   0.997965E+00 tol =   0.100000E-04
 Iteration #          6
  pAp =   3.340593706577135E-003  rzold =   1.380673309058762E-003  alpha = 
  0.413301775172605     
 delta_qm =   0.464390E-03 delta_en =   0.372657E+00 tol =   0.100000E-04
 Iteration #          7
  pAp =   7.862029193851819E-004  rzold =   4.559402801011179E-004  alpha = 
  0.579926974142588     
 delta_qm =   0.239944E-03 delta_en =   0.994865E-01 tol =   0.100000E-04
 Iteration #          8
  pAp =   4.122772913015575E-004  rzold =   2.111587185653823E-004  alpha = 
  0.512176447795015     
 delta_qm =   0.108200E-03 delta_en =   0.202299E-01 tol =   0.100000E-04
 Iteration #          9
  pAp =   6.196770940829168E-004  rzold =   1.222760444035583E-004  alpha = 
  0.197322195012742     
 delta_qm =   0.545987E-04 delta_en =   0.515120E-02 tol =   0.100000E-04
 Iteration #         10
  pAp =   1.140245541156257E-004  rzold =   2.772067703157520E-005  alpha = 
  0.243111470565061     
 delta_qm =   0.348297E-04 delta_en =   0.209625E-02 tol =   0.100000E-04
 Iteration #         11
  pAp =   2.076055223664379E-005  rzold =   5.871024188280750E-006  alpha = 
  0.282797110662499     
 delta_qm =   0.229094E-04 delta_en =   0.906924E-03 tol =   0.100000E-04
 Iteration #         12
  pAp =   2.159966206648389E-006  rzold =   9.334737386694796E-007  alpha = 
  0.432170529240801     
 delta_qm =   0.155282E-04 delta_en =   0.416664E-03 tol =   0.100000E-04
 Iteration #         13
  pAp =   5.984360166777776E-007  rzold =   3.294779310765296E-007  alpha = 
  0.550565009281408     
 delta_qm =   0.719659E-05 delta_en =   0.894946E-04 tol =   0.100000E-04
 Iteration #         14
  pAp =   3.277495135659047E-007  rzold =   1.466253823108834E-007  alpha = 
  0.447370251493599     
 delta_qm =   0.486554E-05 delta_en =   0.409078E-04 tol =   0.100000E-04
 Iteration #         15
  pAp =   1.017092680084985E-007  rzold =   4.784393463008516E-008  alpha = 
  0.470398967241485     
 delta_qm =   0.243633E-05 delta_en =   0.102569E-04 tol =   0.100000E-04
 Iteration #         16
  pAp =   2.828341912901671E-008  rzold =   1.345071040985838E-008  alpha = 
  0.475568754559060     
 delta_qm =   0.147177E-05 delta_en =   0.374302E-05 tol =   0.100000E-04
 Charges are converged, EXIT

%%%% DENSITY %%%%%%%%%%%%%%%%%%%%%%%%%%%%%%%%%%%%%%%%%%%%%%%%%%%%%%%%%%%%%%%%%%%
 density label              = velectrostatic                                                                  
 integral of density        =     0.6189616720E-12

%%%% CHARGES %%%%%%%%%%%%%%%%%%%%%%%%%%%%%%%%%%%%%%%%%%%%%%%%%%%%%%%%%%%%%%%%%%%
 total number of charges    =         33
 total charge               =      0.0000000

%%%% DENSITY %%%%%%%%%%%%%%%%%%%%%%%%%%%%%%%%%%%%%%%%%%%%%%%%%%%%%%%%%%%%%%%%%%%
 density label              = vsoftcavity                                                                     
 integral of density        =      12.20116945    

%%%% ELECTRONS %%%%%%%%%%%%%%%%%%%%%%%%%%%%%%%%%%%%%%%%%%%%%%%%%%%%%%%%%%%%%%%%%
 number of electrons        =         24
 total electronic charge    =     24.0000000
 number of spin components  =  1

%%%% BOUNDARY %%%%%%%%%%%%%%%%%%%%%%%%%%%%%%%%%%%%%%%%%%%%%%%%%%%%%%%%%%%%%%%%%%
 boundary label             = solvent              
 boundary mode              = electronic           
 boundary is built as a function of a smooth density
 function type              =  2 
 using the modified SCCS function with parameters 
 rhomax                     =      0.0050000 
 rhomin                     =      0.0001000 
 volume of the QM region    =    780.3352877 
 surface of the QM region   =    432.8590796 

%%%% DIELECTRIC %%%%%%%%%%%%%%%%%%%%%%%%%%%%%%%%%%%%%%%%%%%%%%%%%%%%%%%%%%%%%%%%%
 dielectric build on homogeneous background
 environment bulk permitt.  =     78.3000000 
 dielectric flags
 need gradient              =  F 
 need factor depend. sqrt   =  T 
 total dielectric charge    =      0.0001507

%%%% DENSITY %%%%%%%%%%%%%%%%%%%%%%%%%%%%%%%%%%%%%%%%%%%%%%%%%%%%%%%%%%%%%%%%%%%
 density label              = vreference                                                                      
 integral of density        =     0.1133578828E-12

%%%% COMPUTE ELECTROSTATIC POTENTIAL %%%%%%%%%%%%%%%%%%%%%%%%%%%%%%%%%%%%%%%%%%%
 Warning: bad guess with residual norm =   0.254104E+03, reset to no guess
 Iteration #          1
  pAp =    92.9006427643125       rzold =    92.2366719824240       alpha = 
  0.992852893563148     
 delta_qm =   0.120497E-01 delta_en =   0.250899E+03 tol =   0.100000E-04
 Iteration #          2
  pAp =    37.5880830569916       rzold =    4.55849872507880       alpha = 
  0.121275105148808     
 delta_qm =   0.239830E-02 delta_en =   0.993914E+01 tol =   0.100000E-04
 Iteration #          3
  pAp =   0.313491681887626       rzold =   6.519570235340202E-002  alpha = 
  0.207966291037898     
 delta_qm =   0.115971E-02 delta_en =   0.232403E+01 tol =   0.100000E-04
 Iteration #          4
  pAp =   5.543644788277827E-002  rzold =   9.845101750703366E-003  alpha = 
  0.177592579010854     
 delta_qm =   0.121664E-02 delta_en =   0.255782E+01 tol =   0.100000E-04
 Iteration #          5
  pAp =   6.928321705264995E-003  rzold =   2.277822078554787E-003  alpha = 
  0.328769675464668     
 delta_qm =   0.781395E-03 delta_en =   0.105508E+01 tol =   0.100000E-04
 Iteration #          6
  pAp =   3.356857686844955E-003  rzold =   1.397869515634616E-003  alpha = 
  0.416422036928365     
 delta_qm =   0.478382E-03 delta_en =   0.395452E+00 tol =   0.100000E-04
 Iteration #          7
  pAp =   8.192004809971534E-004  rzold =   4.678663359307228E-004  alpha = 
  0.571125563013858     
 delta_qm =   0.249707E-03 delta_en =   0.107747E+00 tol =   0.100000E-04
 Iteration #          8
  pAp =   5.294257478690238E-004  rzold =   2.334285295348351E-004  alpha = 
  0.440908910219047     
 delta_qm =   0.136186E-03 delta_en =   0.320485E-01 tol =   0.100000E-04
 Iteration #          9
  pAp =   9.738665571565370E-004  rzold =   1.907869166903850E-004  alpha = 
  0.195906631445933     
 delta_qm =   0.626864E-04 delta_en =   0.679033E-02 tol =   0.100000E-04
 Iteration #         10
  pAp =   1.142946276350985E-004  rzold =   3.125594909355295E-005  alpha = 
  0.273468226287432     
 delta_qm =   0.372123E-04 delta_en =   0.239286E-02 tol =   0.100000E-04
 Iteration #         11
  pAp =   2.069462816024021E-005  rzold =   6.218754963601356E-006  alpha = 
  0.300500927847025     
 delta_qm =   0.251643E-04 delta_en =   0.109424E-02 tol =   0.100000E-04
 Iteration #         12
  pAp =   2.587287987749094E-006  rzold =   1.082804596619710E-006  alpha = 
  0.418509497878408     
 delta_qm =   0.179596E-04 delta_en =   0.557362E-03 tol =   0.100000E-04
 Iteration #         13
  pAp =   8.104313283478218E-007  rzold =   4.242204500182946E-007  alpha = 
  0.523450211238906     
 delta_qm =   0.832620E-05 delta_en =   0.119795E-03 tol =   0.100000E-04
 Iteration #         14
  pAp =   4.484128423935597E-007  rzold =   2.012649650747869E-007  alpha = 
  0.448838539058037     
 delta_qm =   0.551385E-05 delta_en =   0.525356E-04 tol =   0.100000E-04
 Iteration #         15
  pAp =   1.267100925659572E-007  rzold =   6.190013323292732E-008  alpha = 
  0.488517780860321     
 delta_qm =   0.284599E-05 delta_en =   0.139962E-04 tol =   0.100000E-04
 Iteration #         16
  pAp =   3.586953362477722E-008  rzold =   1.735783280034292E-008  alpha = 
  0.483915764891708     
 delta_qm =   0.171025E-05 delta_en =   0.505435E-05 tol =   0.100000E-04
 Charges are converged, EXIT

%%%% DENSITY %%%%%%%%%%%%%%%%%%%%%%%%%%%%%%%%%%%%%%%%%%%%%%%%%%%%%%%%%%%%%%%%%%%
 density label              = velectrostatic                                                                  
 integral of density        =     0.4296809822E-12

%%%% CHARGES %%%%%%%%%%%%%%%%%%%%%%%%%%%%%%%%%%%%%%%%%%%%%%%%%%%%%%%%%%%%%%%%%%%
 total number of charges    =         33
 total charge               =     -0.0000000

%%%% DENSITY %%%%%%%%%%%%%%%%%%%%%%%%%%%%%%%%%%%%%%%%%%%%%%%%%%%%%%%%%%%%%%%%%%%
 density label              = vsoftcavity                                                                     
 integral of density        =      12.25974913    

%%%% ELECTRONS %%%%%%%%%%%%%%%%%%%%%%%%%%%%%%%%%%%%%%%%%%%%%%%%%%%%%%%%%%%%%%%%%
 number of electrons        =         24
 total electronic charge    =     24.0000000
 number of spin components  =  1

%%%% BOUNDARY %%%%%%%%%%%%%%%%%%%%%%%%%%%%%%%%%%%%%%%%%%%%%%%%%%%%%%%%%%%%%%%%%%
 boundary label             = solvent              
 boundary mode              = electronic           
 boundary is built as a function of a smooth density
 function type              =  2 
 using the modified SCCS function with parameters 
 rhomax                     =      0.0050000 
 rhomin                     =      0.0001000 
 volume of the QM region    =    780.3352877 
 surface of the QM region   =    432.8590796 

%%%% DIELECTRIC %%%%%%%%%%%%%%%%%%%%%%%%%%%%%%%%%%%%%%%%%%%%%%%%%%%%%%%%%%%%%%%%%
 dielectric build on homogeneous background
 environment bulk permitt.  =     78.3000000 
 dielectric flags
 need gradient              =  F 
 need factor depend. sqrt   =  T 
 total dielectric charge    =      0.0001529

%%%% DENSITY %%%%%%%%%%%%%%%%%%%%%%%%%%%%%%%%%%%%%%%%%%%%%%%%%%%%%%%%%%%%%%%%%%%
 density label              = vreference                                                                      
 integral of density        =     0.1133578828E-12

%%%% DENSITY %%%%%%%%%%%%%%%%%%%%%%%%%%%%%%%%%%%%%%%%%%%%%%%%%%%%%%%%%%%%%%%%%%%
 density label              = velectrostatic                                                                  
 integral of density        =     0.4296809822E-12

%%%% CHARGES %%%%%%%%%%%%%%%%%%%%%%%%%%%%%%%%%%%%%%%%%%%%%%%%%%%%%%%%%%%%%%%%%%%
 total number of charges    =         33
 total charge               =     -0.0000000

%%%% DENSITY %%%%%%%%%%%%%%%%%%%%%%%%%%%%%%%%%%%%%%%%%%%%%%%%%%%%%%%%%%%%%%%%%%%
 density label              = vsoftcavity                                                                     
 integral of density        =      12.25974913    
