
     Program PWSCF v.6.1 (svn rev. 13369) starts on  1Feb2018 at 12:40: 4 

     This program is part of the open-source Quantum ESPRESSO suite
     for quantum simulation of materials; please cite
         "P. Giannozzi et al., J. Phys.:Condens. Matter 21 395502 (2009);
          URL http://www.quantum-espresso.org", 
     in publications or presentations arising from this work. More details at
     http://www.quantum-espresso.org/quote

     Parallel version (MPI), running on     1 processors
     Reading input from neutral.in

     Current dimensions of program PWSCF are:
     Max number of different atomic species (ntypx) = 10
     Max number of k-points (npk) =  40000
     Max angular momentum in pseudopotentials (lmaxx) =  3
               file C.pbe-rrkjus.UPF: wavefunction(s)  2S 2P renormalized
               file H.pbe-rrkjus.UPF: wavefunction(s)  1S renormalized
               file N.pbe-rrkjus.UPF: wavefunction(s)  2S renormalized
               file O.pbe-rrkjus.UPF: wavefunction(s)  2S renormalized

     gamma-point specific algorithms are used

     Subspace diagonalization in iterative solution of the eigenvalue problem:
     a serial algorithm will be used

 
     G-vector sticks info
     --------------------
     sticks:   dense  smooth     PW     G-vecs:    dense   smooth      PW
     Sum        9549    3809    949               701475   177509   22119
 


     bravais-lattice index     =            1
     lattice parameter (alat)  =      20.0000  a.u.
     unit-cell volume          =    8000.0000 (a.u.)^3
     number of atoms/cell      =            9
     number of atomic types    =            4
     number of electrons       =        24.00
     number of Kohn-Sham states=           12
     kinetic-energy cutoff     =      30.0000  Ry
     charge density cutoff     =     300.0000  Ry
     convergence threshold     =      1.0E-03
     mixing beta               =       0.7000
     number of iterations used =            8  plain     mixing
     Exchange-correlation      =  SLA  PW   PBE  PBE ( 1  4  3  4 0 0)
 

     Environ Module
     ==============

     Plese cite
         O. Andreussi, I. Dabo and N. Marzari, J. Chem. Phys. 136, 064102 (2012)         
     in publications or presentations arising from this work.

     compensation onset threshold      =               0.1000E+03 
     static permittivity               =                    78.30 
     epsilon calculation mode          =               electronic 
     surface tension in input (dyn/cm) =                    50.00 
     surface tension in internal units =               0.6423E-04 
     external pressure in input (GPa)  =                    -0.35 
     external pressure in inter. units =              -0.2379E-04 

     Electrostatic Setup
     -------------------
     electrostatic problem to solve    = generalized              
     numerical solver adopted          = cg                       
     type of auxiliary density adopted = none                     
     type of core tool for poisson     = fft                      
     type of core tool for s(r) deriv  = analytic                 



     celldm(1)=  20.000000  celldm(2)=   0.000000  celldm(3)=   0.000000
     celldm(4)=   0.000000  celldm(5)=   0.000000  celldm(6)=   0.000000

     crystal axes: (cart. coord. in units of alat)
               a(1) = (   1.000000   0.000000   0.000000 )  
               a(2) = (   0.000000   1.000000   0.000000 )  
               a(3) = (   0.000000   0.000000   1.000000 )  

     reciprocal axes: (cart. coord. in units 2 pi/alat)
               b(1) = (  1.000000  0.000000  0.000000 )  
               b(2) = (  0.000000  1.000000  0.000000 )  
               b(3) = (  0.000000  0.000000  1.000000 )  


     PseudoPot. # 1 for C  read from file:
     /home/fnattino/Programs/qe-6.1/Environ/tests/../..//pseudo/C.pbe-rrkjus.UPF
     MD5 check sum: 00fb224312de0c5b6853bd333518df6f
     Pseudo is Ultrasoft, Zval =  4.0
     Generated by new atomic code, or converted to UPF format
     Using radial grid of  627 points,  4 beta functions with: 
                l(1) =   0
                l(2) =   0
                l(3) =   1
                l(4) =   1
     Q(r) pseudized with 0 coefficients 


     PseudoPot. # 2 for H  read from file:
     /home/fnattino/Programs/qe-6.1/Environ/tests/../..//pseudo/H.pbe-rrkjus.UPF
     MD5 check sum: 7cc9d459525c9a0585f487a71c3c9563
     Pseudo is Ultrasoft, Zval =  1.0
     Generated by new atomic code, or converted to UPF format
     Using radial grid of 1061 points,  2 beta functions with: 
                l(1) =   0
                l(2) =   0
     Q(r) pseudized with 0 coefficients 


     PseudoPot. # 3 for N  read from file:
     /home/fnattino/Programs/qe-6.1/Environ/tests/../..//pseudo/N.pbe-rrkjus.UPF
     MD5 check sum: 0c3fbe5807a93f9ba59d5a7019aa238b
     Pseudo is Ultrasoft, Zval =  5.0
     Generated by new atomic code, or converted to UPF format
     Using radial grid of 1257 points,  4 beta functions with: 
                l(1) =   0
                l(2) =   0
                l(3) =   1
                l(4) =   1
     Q(r) pseudized with 0 coefficients 


     PseudoPot. # 4 for O  read from file:
     /home/fnattino/Programs/qe-6.1/Environ/tests/../..//pseudo/O.pbe-rrkjus.UPF
     MD5 check sum: 390ba29e75625707450f3bd3f0eb6be9
     Pseudo is Ultrasoft, Zval =  6.0
     Generated by new atomic code, or converted to UPF format
     Using radial grid of 1269 points,  4 beta functions with: 
                l(1) =   0
                l(2) =   0
                l(3) =   1
                l(4) =   1
     Q(r) pseudized with 0 coefficients 


     atomic species   valence    mass     pseudopotential
        C              4.00    12.00000     C ( 1.00)
        H              1.00     1.00000     H ( 1.00)
        N              5.00    14.00000     N ( 1.00)
        O              6.00    16.00000     O ( 1.00)

     No symmetry found



   Cartesian axes

     site n.     atom                  positions (alat units)
         1           C   tau(   1) = (   0.0000000   0.0000000   0.0000000  )
         2           C   tau(   2) = (   0.0000000   0.0000000   0.1455089  )
         3           N   tau(   3) = (   0.1170969   0.0000000  -0.0545024  )
         4           H   tau(   4) = (   0.0476617  -0.0825466   0.1792090  )
         5           H   tau(   5) = (  -0.0953183  -0.0000030   0.1792090  )
         6           H   tau(   6) = (   0.0476566   0.0825496   0.1792090  )
         7           O   tau(   7) = (  -0.0984002  -0.0000019  -0.0641310  )
         8           H   tau(   8) = (   0.1263131  -0.0000015  -0.1475548  )
         9           H   tau(   9) = (   0.1944645   0.0000134  -0.0025716  )

     number of k points=     1
                       cart. coord. in units 2pi/alat
        k(    1) = (   0.0000000   0.0000000   0.0000000), wk =   2.0000000

     Dense  grid:   350738 G-vectors     FFT dimensions: ( 120, 120, 120)

     Smooth grid:    88755 G-vectors     FFT dimensions: (  72,  72,  72)

     Estimated max dynamical RAM per process >     298.64MB

     Initial potential from superposition of free atoms
     Check: negative starting charge=   -0.000530

     starting charge   23.51886, renormalised to   24.00000

     negative rho (up, down):  5.411E-04 0.000E+00
     Starting wfc are   21 randomized atomic wfcs

     total cpu time spent up to now is        4.2 secs

     per-process dynamical memory:   620.8 Mb

     Self-consistent Calculation

     iteration #  1     ecut=    30.00 Ry     beta=0.70
     Davidson diagonalization with overlap
     ethr =  1.00E-02,  avg # of iterations =  2.0

     negative rho (up, down):  1.677E-04 0.000E+00

     add environment contribution to local potential
     polarization accuracy = 2.5E-06, # of iterations =  14

     total cpu time spent up to now is        8.2 secs

     total energy              =     -79.58295434 Ry
     Harris-Foulkes estimate   =     -81.75208041 Ry
     estimated scf accuracy    <       2.90357113 Ry
     electrostatic embedding   =       0.00000000 Ry
     cavitation energy         =       0.05549959 Ry
     PV energy                 =      -0.05773003 Ry
     correction to one-el term =       0.00000000 Ry

     iteration #  2     ecut=    30.00 Ry     beta=0.70
     Davidson diagonalization with overlap
     ethr =  1.00E-02,  avg # of iterations =  4.0

     negative rho (up, down):  1.535E-03 0.000E+00

     add environment contribution to local potential
     polarization accuracy = 7.7E-06, # of iterations =  15

     total cpu time spent up to now is       12.4 secs

     total energy              =     -79.97855137 Ry
     Harris-Foulkes estimate   =     -79.72899133 Ry
     estimated scf accuracy    <       1.86484460 Ry
     electrostatic embedding   =      -0.03546550 Ry
     cavitation energy         =       0.03075199 Ry
     PV energy                 =      -0.02263433 Ry
     correction to one-el term =      -1.21474896 Ry

     iteration #  3     ecut=    30.00 Ry     beta=0.70
     Davidson diagonalization with overlap
     ethr =  7.77E-03,  avg # of iterations =  3.0

     negative rho (up, down):  4.228E-04 0.000E+00

     add environment contribution to local potential
     polarization accuracy = 4.5E-06, # of iterations =  15

     total cpu time spent up to now is       16.5 secs

     total energy              =     -80.44069553 Ry
     Harris-Foulkes estimate   =     -79.84263138 Ry
     estimated scf accuracy    <       0.21429462 Ry
     electrostatic embedding   =      -0.05062072 Ry
     cavitation energy         =       0.02975117 Ry
     PV energy                 =      -0.02080799 Ry
     correction to one-el term =      -0.66407258 Ry

     iteration #  4     ecut=    30.00 Ry     beta=0.70
     Davidson diagonalization with overlap
     ethr =  8.93E-04,  avg # of iterations =  3.0

     negative rho (up, down):  1.800E-04 0.000E+00

     add environment contribution to local potential
     polarization accuracy = 3.7E-06, # of iterations =  16

     total cpu time spent up to now is       20.6 secs

     total energy              =     -80.49158475 Ry
     Harris-Foulkes estimate   =     -80.07192946 Ry
     estimated scf accuracy    <       0.02754267 Ry
     electrostatic embedding   =      -0.04078340 Ry
     cavitation energy         =       0.02856165 Ry
     PV energy                 =      -0.01955782 Ry
     correction to one-el term =      -0.40163811 Ry

     iteration #  5     ecut=    30.00 Ry     beta=0.70
     Davidson diagonalization with overlap
     ethr =  1.15E-04,  avg # of iterations =  3.0

     negative rho (up, down):  1.101E-04 0.000E+00

     add environment contribution to local potential
     polarization accuracy = 5.1E-06, # of iterations =  16

     total cpu time spent up to now is       24.6 secs

     total energy              =     -80.49893588 Ry
     Harris-Foulkes estimate   =     -80.30723564 Ry
     estimated scf accuracy    <       0.00407295 Ry
     electrostatic embedding   =      -0.04680791 Ry
     cavitation energy         =       0.02783187 Ry
     PV energy                 =      -0.01861881 Ry
     correction to one-el term =      -0.15618297 Ry

     iteration #  6     ecut=    30.00 Ry     beta=0.70
     Davidson diagonalization with overlap
     ethr =  1.70E-05,  avg # of iterations =  3.0

     negative rho (up, down):  2.226E-04 0.000E+00

     total cpu time spent up to now is       26.8 secs

     End of self-consistent calculation

          k = 0.0000 0.0000 0.0000 ( 11060 PWs)   bands (ev):

   -25.3606 -21.9781 -17.6252 -14.0330 -12.6319 -10.9443 -10.4046  -9.3164
    -9.1172  -8.4871  -6.0877  -5.5393

     highest occupied level (ev):    -5.5393

!    total energy              =     -80.49998465 Ry
     Harris-Foulkes estimate   =     -80.35618679 Ry
     estimated scf accuracy    <       0.00031581 Ry

     The total energy is the sum of the following terms:

     one-electron contribution =    -236.02988493 Ry
     hartree contribution      =     121.63240842 Ry
     xc contribution           =     -22.70618246 Ry
     ewald contribution        =      56.74764018 Ry
     electrostatic embedding   =      -0.04701517 Ry
     cavitation energy         =       0.02780275 Ry
     PV energy                 =      -0.01856614 Ry
     correction to one-el term =      -0.10618729 Ry

     convergence has been achieved in   6 iterations

     Forces acting on atoms (cartesian axes, Ry/au):

     atom    1 type  1   force =     0.02536033   -0.00000248    0.00784975
     atom    2 type  1   force =    -0.00651120    0.00000493   -0.06063338
     atom    3 type  3   force =    -0.06664329   -0.00000187    0.03171898
     atom    4 type  2   force =     0.02108858   -0.02953938    0.01472795
     atom    5 type  2   force =    -0.03236022   -0.00000041    0.00993294
     atom    6 type  2   force =     0.02108750    0.02954361    0.01472906
     atom    7 type  4   force =    -0.00563787   -0.00000809   -0.00094869
     atom    8 type  2   force =     0.00133600    0.00000113   -0.04638394
     atom    9 type  2   force =     0.04228017    0.00000256    0.02900732

     Total force =     0.137479     Total SCF correction =     0.031840
     SCF correction compared to forces is large: reduce conv_thr to get better values

     Writing output data file pwscf.save
 
     init_run     :      3.90s CPU      4.07s WALL (       1 calls)
     electrons    :     21.23s CPU     22.64s WALL (       1 calls)
     forces       :      0.67s CPU      0.74s WALL (       1 calls)

     Called by init_run:
     wfcinit      :      0.09s CPU      0.10s WALL (       1 calls)
     potinit      :      1.79s CPU      1.85s WALL (       1 calls)

     Called by electrons:
     c_bands      :      0.98s CPU      0.99s WALL (       6 calls)
     sum_band     :      2.69s CPU      2.97s WALL (       6 calls)
     v_of_rho     :      3.66s CPU      3.79s WALL (       7 calls)
     newd         :      1.44s CPU      1.83s WALL (       7 calls)
     mix_rho      :      0.31s CPU      0.32s WALL (       6 calls)

     Called by c_bands:
     init_us_2    :      0.06s CPU      0.06s WALL (      13 calls)
     regterg      :      0.90s CPU      0.91s WALL (       6 calls)

     Called by sum_band:
     sum_band:bec :      0.00s CPU      0.00s WALL (       6 calls)
     addusdens    :      1.99s CPU      2.25s WALL (       6 calls)

     Called by *egterg:
     h_psi        :      0.88s CPU      0.88s WALL (      25 calls)
     s_psi        :      0.00s CPU      0.02s WALL (      25 calls)
     g_psi        :      0.00s CPU      0.01s WALL (      18 calls)
     rdiaghg      :      0.00s CPU      0.01s WALL (      24 calls)

     Called by h_psi:
     h_psi:pot    :      0.88s CPU      0.87s WALL (      25 calls)
     h_psi:calbec :      0.04s CPU      0.03s WALL (      25 calls)
     vloc_psi     :      0.82s CPU      0.82s WALL (      25 calls)
     add_vuspsi   :      0.02s CPU      0.02s WALL (      25 calls)

     General routines
     calbec       :      0.04s CPU      0.04s WALL (      35 calls)
     fft          :      8.10s CPU      8.58s WALL (     391 calls)
     ffts         :      0.04s CPU      0.04s WALL (      13 calls)
     fftw         :      0.68s CPU      0.63s WALL (     282 calls)
     interpolate  :      0.39s CPU      0.42s WALL (      13 calls)
     davcio       :      0.00s CPU      0.00s WALL (       1 calls)
 
     Parallel routines
     fft_scatter  :      2.19s CPU      2.44s WALL (     686 calls)
 
     Environ routines
     calc_eelect  :      0.02s CPU      0.02s WALL (      12 calls)
     calc_velect  :      6.83s CPU      7.27s WALL (      10 calls)
     dielectric   :      0.37s CPU      0.37s WALL (       8 calls)
     calc_felect  :      0.08s CPU      0.08s WALL (       1 calls)
 
     PWSCF        :    25.98s CPU        27.65s WALL

 
   This run was terminated on:  12:40:32   1Feb2018            

=------------------------------------------------------------------------------=
   JOB DONE.
=------------------------------------------------------------------------------=

%%%% IONS %%%%%%%%%%%%%%%%%%%%%%%%%%%%%%%%%%%%%%%%%%%%%%%%%%%%%%%%%%%%%%%%%%%%%%
 number of ions             =          9
 ionic center of charge     =      0.0131609     0.0000000     0.0130099
 total ionic charge         =    -24.0000000
 ionic dipole               =      0.0000000     0.0000000     0.0000000
 ionic quadrupole (pc)      =    -75.9587432    -5.4513517   -95.3140149
 ionic quadrupole (gauss)   =    -78.9587432    -8.4513517   -98.3140149
 ion   1 type =  1 coordinates =      0.0000000     0.0000000     0.0000000
 ion   2 type =  1 coordinates =      0.0000000     0.0000000     2.9101782
 ion   3 type =  3 coordinates =      2.3419379     0.0000000    -1.0900479
 ion   4 type =  2 coordinates =      0.9532347    -1.6509323     3.5841800
 ion   5 type =  2 coordinates =     -1.9063663    -0.0000596     3.5841809
 ion   6 type =  2 coordinates =      0.9531315     1.6509919     3.5841800
 ion   7 type =  4 coordinates =     -1.9680045    -0.0000375    -1.2826193
 ion   8 type =  2 coordinates =      2.5262613    -0.0000303    -2.9510950
 ion   9 type =  2 coordinates =      3.8892907     0.0002681    -0.0514326

%%%% SYSTEM %%%%%%%%%%%%%%%%%%%%%%%%%%%%%%%%%%%%%%%%%%%%%%%%%%%%%%%%%%%%%%%%%%%%
 system is built from all present ionic types
 system defined dimension   =  0 
 system defined axis        =  3 
 system center              =      0.0131609     0.0000000     0.0130099 
 system width               =      0.1984688 

%%%% ELECTRONS %%%%%%%%%%%%%%%%%%%%%%%%%%%%%%%%%%%%%%%%%%%%%%%%%%%%%%%%%%%%%%%%%
 number of electrons        =         24
 total electronic charge    =     24.0000000
 number of spin components  =  1

%%%% BOUNDARY %%%%%%%%%%%%%%%%%%%%%%%%%%%%%%%%%%%%%%%%%%%%%%%%%%%%%%%%%%%%%%%%%%
 boundary mode              = electronic           
 boundary is built as a function of a smooth density
 function type              =  2 
 using the modified SCCS function with parameters 
 rhomax                     =      0.0050000 
 rhomin                     =      0.0001000 
 volume of the QM region    =   2426.3938968 
 surface of the QM region   =    864.0691993 

%%%% DIELECTRIC %%%%%%%%%%%%%%%%%%%%%%%%%%%%%%%%%%%%%%%%%%%%%%%%%%%%%%%%%%%%%%%%%
 dielectric build on homogeneous background
 environment bulk permitt.  =     78.3000000 
 dielectric flags
 need gradient              =  F 
 need factor depend. sqrt   =  T 
 total dielectric charge    =      0.0000000

%%%% ELECTRONS %%%%%%%%%%%%%%%%%%%%%%%%%%%%%%%%%%%%%%%%%%%%%%%%%%%%%%%%%%%%%%%%%
 number of electrons        =         24
 total electronic charge    =     24.0000000
 number of spin components  =  1

%%%% BOUNDARY %%%%%%%%%%%%%%%%%%%%%%%%%%%%%%%%%%%%%%%%%%%%%%%%%%%%%%%%%%%%%%%%%%
 boundary mode              = electronic           
 boundary is built as a function of a smooth density
 function type              =  2 
 using the modified SCCS function with parameters 
 rhomax                     =      0.0050000 
 rhomin                     =      0.0001000 
 volume of the QM region    =    951.3213232 
 surface of the QM region   =    478.7755012 

%%%% DIELECTRIC %%%%%%%%%%%%%%%%%%%%%%%%%%%%%%%%%%%%%%%%%%%%%%%%%%%%%%%%%%%%%%%%%
 dielectric build on homogeneous background
 environment bulk permitt.  =     78.3000000 
 dielectric flags
 need gradient              =  F 
 need factor depend. sqrt   =  T 
 total dielectric charge    =      0.0000000

%%%% COMPUTE ELECTROSTATIC POTENTIAL %%%%%%%%%%%%%%%%%%%%%%%%%%%%%%%%%%%%%%%%%%%
 Iteration #          1
  pAp =    89.7170352963854       rzold =    89.3186515878200       alpha = 
  0.995559553352946     
 delta_qm =   0.499931E-02 delta_en =   0.431881E+02 tol =   0.100000E-04
 Iteration #          2
  pAp =    13.5278540839918       rzold =    2.02881510523062       alpha = 
  0.149973165931130     
 delta_qm =   0.158983E-02 delta_en =   0.436765E+01 tol =   0.100000E-04
 Iteration #          3
  pAp =   0.240826452704428       rzold =   6.015795798634172E-002  alpha = 
  0.249797965758251     
 delta_qm =   0.795598E-03 delta_en =   0.109378E+01 tol =   0.100000E-04
 Iteration #          4
  pAp =   5.735772907962005E-002  rzold =   1.081022896274712E-002  alpha = 
  0.188470309689930     
 delta_qm =   0.658993E-03 delta_en =   0.750422E+00 tol =   0.100000E-04
 Iteration #          5
  pAp =   2.578487688301544E-003  rzold =   1.225266857399483E-003  alpha = 
  0.475188174432033     
 delta_qm =   0.342934E-03 delta_en =   0.203220E+00 tol =   0.100000E-04
 Iteration #          6
  pAp =   1.364579727746679E-003  rzold =   5.579853871849624E-004  alpha = 
  0.408906402344376     
 delta_qm =   0.171036E-03 delta_en =   0.505498E-01 tol =   0.100000E-04
 Iteration #          7
  pAp =   3.342370720605684E-004  rzold =   1.363256553438892E-004  alpha = 
  0.407871139199021     
 delta_qm =   0.105684E-03 delta_en =   0.193001E-01 tol =   0.100000E-04
 Iteration #          8
  pAp =   2.565935593760387E-004  rzold =   8.140910565696354E-005  alpha = 
  0.317268702515086     
 delta_qm =   0.636492E-04 delta_en =   0.700052E-02 tol =   0.100000E-04
 Iteration #          9
  pAp =   7.216235301988635E-005  rzold =   2.946691105812130E-005  alpha = 
  0.408341882227716     
 delta_qm =   0.288642E-04 delta_en =   0.143967E-02 tol =   0.100000E-04
 Iteration #         10
  pAp =   1.426653049777355E-005  rzold =   5.558791725573149E-006  alpha = 
  0.389638652960554     
 delta_qm =   0.195224E-04 delta_en =   0.658581E-03 tol =   0.100000E-04
 Iteration #         11
  pAp =   1.402965067763022E-006  rzold =   9.461544802922657E-007  alpha = 
  0.674396321072252     
 delta_qm =   0.996268E-05 delta_en =   0.171513E-03 tol =   0.100000E-04
 Iteration #         12
  pAp =   6.257240862955255E-007  rzold =   3.956768217336768E-007  alpha = 
  0.632350312861060     
 delta_qm =   0.416272E-05 delta_en =   0.299433E-04 tol =   0.100000E-04
 Iteration #         13
  pAp =   3.534219334872443E-007  rzold =   1.336228058764379E-007  alpha = 
  0.378082946233615     
 delta_qm =   0.244770E-05 delta_en =   0.103529E-04 tol =   0.100000E-04
 Iteration #         14
  pAp =   7.951640566383185E-008  rzold =   3.035013237492470E-008  alpha = 
  0.381683906881237     
 delta_qm =   0.120981E-05 delta_en =   0.252917E-05 tol =   0.100000E-04
 Charges are converged, EXIT

%%%% ELECTRONS %%%%%%%%%%%%%%%%%%%%%%%%%%%%%%%%%%%%%%%%%%%%%%%%%%%%%%%%%%%%%%%%%
 number of electrons        =         24
 total electronic charge    =     24.0000000
 number of spin components  =  1

%%%% BOUNDARY %%%%%%%%%%%%%%%%%%%%%%%%%%%%%%%%%%%%%%%%%%%%%%%%%%%%%%%%%%%%%%%%%%
 boundary mode              = electronic           
 boundary is built as a function of a smooth density
 function type              =  2 
 using the modified SCCS function with parameters 
 rhomax                     =      0.0050000 
 rhomin                     =      0.0001000 
 volume of the QM region    =    874.5599444 
 surface of the QM region   =    463.1937594 

%%%% DIELECTRIC %%%%%%%%%%%%%%%%%%%%%%%%%%%%%%%%%%%%%%%%%%%%%%%%%%%%%%%%%%%%%%%%%
 dielectric build on homogeneous background
 environment bulk permitt.  =     78.3000000 
 dielectric flags
 need gradient              =  F 
 need factor depend. sqrt   =  T 
 total dielectric charge    =     -0.0000705

%%%% COMPUTE ELECTROSTATIC POTENTIAL %%%%%%%%%%%%%%%%%%%%%%%%%%%%%%%%%%%%%%%%%%%
 Warning: bad guess with residual norm =   0.225221E+03, reset to no guess
 Iteration #          1
  pAp =    91.7823431796300       rzold =    91.0943554480111       alpha = 
  0.992504138510907     
 delta_qm =   0.113427E-01 delta_en =   0.222318E+03 tol =   0.100000E-04
 Iteration #          2
  pAp =    30.0218302604255       rzold =    4.13285316038516       alpha = 
  0.137661599060902     
 delta_qm =   0.220787E-02 delta_en =   0.842347E+01 tol =   0.100000E-04
 Iteration #          3
  pAp =   0.129335926663718       rzold =   3.422161015593073E-002  alpha = 
  0.264594772996904     
 delta_qm =   0.162396E-02 delta_en =   0.455715E+01 tol =   0.100000E-04
 Iteration #          4
  pAp =   2.211025957059170E-002  rzold =   5.036495694824824E-003  alpha = 
  0.227789984949961     
 delta_qm =   0.104119E-02 delta_en =   0.187328E+01 tol =   0.100000E-04
 Iteration #          5
  pAp =   5.694998057559720E-003  rzold =   1.996283927443562E-003  alpha = 
  0.350532854843318     
 delta_qm =   0.852462E-03 delta_en =   0.125572E+01 tol =   0.100000E-04
 Iteration #          6
  pAp =   2.837290828781062E-003  rzold =   1.046240635266718E-003  alpha = 
  0.368746349388581     
 delta_qm =   0.462921E-03 delta_en =   0.370304E+00 tol =   0.100000E-04
 Iteration #          7
  pAp =   7.819224800441111E-004  rzold =   3.002715182878202E-004  alpha = 
  0.384016991391373     
 delta_qm =   0.300368E-03 delta_en =   0.155902E+00 tol =   0.100000E-04
 Iteration #          8
  pAp =   7.852487615337437E-004  rzold =   2.554345371002911E-004  alpha = 
  0.325291232043942     
 delta_qm =   0.130754E-03 delta_en =   0.295432E-01 tol =   0.100000E-04
 Iteration #          9
  pAp =   1.833017542490759E-004  rzold =   6.892097035447894E-005  alpha = 
  0.375997330941127     
 delta_qm =   0.676147E-04 delta_en =   0.789999E-02 tol =   0.100000E-04
 Iteration #         10
  pAp =   3.051089058415996E-005  rzold =   1.141494012110579E-005  alpha = 
  0.374126743027028     
 delta_qm =   0.393716E-04 delta_en =   0.267861E-02 tol =   0.100000E-04
 Iteration #         11
  pAp =   3.810291367332864E-006  rzold =   2.058072546071399E-006  alpha = 
  0.540135214780704     
 delta_qm =   0.252681E-04 delta_en =   0.110329E-02 tol =   0.100000E-04
 Iteration #         12
  pAp =   1.786528099769785E-006  rzold =   1.061005263053884E-006  alpha = 
  0.593892289290388     
 delta_qm =   0.131962E-04 delta_en =   0.300913E-03 tol =   0.100000E-04
 Iteration #         13
  pAp =   1.669856087651997E-006  rzold =   6.210858313256206E-007  alpha = 
  0.371939735357037     
 delta_qm =   0.812054E-05 delta_en =   0.113950E-03 tol =   0.100000E-04
 Iteration #         14
  pAp =   2.487151109516203E-007  rzold =   1.206992035467003E-007  alpha = 
  0.485290994523363     
 delta_qm =   0.389901E-05 delta_en =   0.262696E-04 tol =   0.100000E-04
 Iteration #         15
  pAp =   4.885410054873143E-008  rzold =   2.085485666366990E-008  alpha = 
  0.426880372976418     
 delta_qm =   0.211366E-05 delta_en =   0.771997E-05 tol =   0.100000E-04
 Charges are converged, EXIT

%%%% ELECTRONS %%%%%%%%%%%%%%%%%%%%%%%%%%%%%%%%%%%%%%%%%%%%%%%%%%%%%%%%%%%%%%%%%
 number of electrons        =         24
 total electronic charge    =     24.0000000
 number of spin components  =  1

%%%% BOUNDARY %%%%%%%%%%%%%%%%%%%%%%%%%%%%%%%%%%%%%%%%%%%%%%%%%%%%%%%%%%%%%%%%%%
 boundary mode              = electronic           
 boundary is built as a function of a smooth density
 function type              =  2 
 using the modified SCCS function with parameters 
 rhomax                     =      0.0050000 
 rhomin                     =      0.0001000 
 volume of the QM region    =    822.0154055 
 surface of the QM region   =    444.6742610 

%%%% DIELECTRIC %%%%%%%%%%%%%%%%%%%%%%%%%%%%%%%%%%%%%%%%%%%%%%%%%%%%%%%%%%%%%%%%%
 dielectric build on homogeneous background
 environment bulk permitt.  =     78.3000000 
 dielectric flags
 need gradient              =  F 
 need factor depend. sqrt   =  T 
 total dielectric charge    =     -0.0001132

%%%% COMPUTE ELECTROSTATIC POTENTIAL %%%%%%%%%%%%%%%%%%%%%%%%%%%%%%%%%%%%%%%%%%%
 Warning: bad guess with residual norm =   0.163898E+03, reset to no guess
 Iteration #          1
  pAp =    92.8142440980060       rzold =    92.2576576192550       alpha = 
  0.994003221335690     
 delta_qm =   0.968947E-02 delta_en =   0.162235E+03 tol =   0.100000E-04
 Iteration #          2
  pAp =    28.0160131924860       rzold =    3.59316547260335       alpha = 
  0.128253989884865     
 delta_qm =   0.195220E-02 delta_en =   0.658558E+01 tol =   0.100000E-04
 Iteration #          3
  pAp =   0.206556384028485       rzold =   4.733724136715683E-002  alpha = 
  0.229173460746819     
 delta_qm =   0.105173E-02 delta_en =   0.191141E+01 tol =   0.100000E-04
 Iteration #          4
  pAp =   3.384147075869472E-002  rzold =   6.756755360400398E-003  alpha = 
  0.199659033987594     
 delta_qm =   0.102837E-02 delta_en =   0.182745E+01 tol =   0.100000E-04
 Iteration #          5
  pAp =   5.423499718959752E-003  rzold =   1.954202573327131E-003  alpha = 
  0.360321319183539     
 delta_qm =   0.616430E-03 delta_en =   0.656617E+00 tol =   0.100000E-04
 Iteration #          6
  pAp =   3.062397890764286E-003  rzold =   1.227916760367902E-003  alpha = 
  0.400965780466055     
 delta_qm =   0.353792E-03 delta_en =   0.216292E+00 tol =   0.100000E-04
 Iteration #          7
  pAp =   5.743302320673532E-004  rzold =   3.406429814585138E-004  alpha = 
  0.593113443170733     
 delta_qm =   0.173790E-03 delta_en =   0.521907E-01 tol =   0.100000E-04
 Iteration #          8
  pAp =   3.162893802125604E-004  rzold =   1.506434155295464E-004  alpha = 
  0.476283507932854     
 delta_qm =   0.670310E-04 delta_en =   0.776416E-02 tol =   0.100000E-04
 Iteration #          9
  pAp =   1.763293026529656E-004  rzold =   4.790938301948974E-005  alpha = 
  0.271704034999675     
 delta_qm =   0.314781E-04 delta_en =   0.171222E-02 tol =   0.100000E-04
 Iteration #         10
  pAp =   4.930834947516522E-005  rzold =   1.038183998959572E-005  alpha = 
  0.210549330896275     
 delta_qm =   0.207527E-04 delta_en =   0.744205E-03 tol =   0.100000E-04
 Iteration #         11
  pAp =   8.928709101620417E-006  rzold =   2.523035689538763E-006  alpha = 
  0.282575640086748     
 delta_qm =   0.136105E-04 delta_en =   0.320106E-03 tol =   0.100000E-04
 Iteration #         12
  pAp =   1.144643878889439E-006  rzold =   4.620727954225704E-007  alpha = 
  0.403682581058210     
 delta_qm =   0.913582E-05 delta_en =   0.144224E-03 tol =   0.100000E-04
 Iteration #         13
  pAp =   3.706268980217348E-007  rzold =   1.852164155525838E-007  alpha = 
  0.499738190998005     
 delta_qm =   0.484175E-05 delta_en =   0.405086E-04 tol =   0.100000E-04
 Iteration #         14
  pAp =   1.335313137192319E-007  rzold =   6.929989455882396E-008  alpha = 
  0.518978602311489     
 delta_qm =   0.307997E-05 delta_en =   0.163922E-04 tol =   0.100000E-04
 Iteration #         15
  pAp =   3.409020167001707E-008  rzold =   1.880744976238966E-008  alpha = 
  0.551696641294180     
 delta_qm =   0.160966E-05 delta_en =   0.447726E-05 tol =   0.100000E-04
 Charges are converged, EXIT

%%%% ELECTRONS %%%%%%%%%%%%%%%%%%%%%%%%%%%%%%%%%%%%%%%%%%%%%%%%%%%%%%%%%%%%%%%%%
 number of electrons        =         23
 total electronic charge    =     24.0000000
 number of spin components  =  1

%%%% BOUNDARY %%%%%%%%%%%%%%%%%%%%%%%%%%%%%%%%%%%%%%%%%%%%%%%%%%%%%%%%%%%%%%%%%%
 boundary mode              = electronic           
 boundary is built as a function of a smooth density
 function type              =  2 
 using the modified SCCS function with parameters 
 rhomax                     =      0.0050000 
 rhomin                     =      0.0001000 
 volume of the QM region    =    782.5490049 
 surface of the QM region   =    433.3124296 

%%%% DIELECTRIC %%%%%%%%%%%%%%%%%%%%%%%%%%%%%%%%%%%%%%%%%%%%%%%%%%%%%%%%%%%%%%%%%
 dielectric build on homogeneous background
 environment bulk permitt.  =     78.3000000 
 dielectric flags
 need gradient              =  F 
 need factor depend. sqrt   =  T 
 total dielectric charge    =      0.0000834

%%%% COMPUTE ELECTROSTATIC POTENTIAL %%%%%%%%%%%%%%%%%%%%%%%%%%%%%%%%%%%%%%%%%%%
 Warning: bad guess with residual norm =   0.247102E+03, reset to no guess
 Iteration #          1
  pAp =    92.7778851427842       rzold =    92.1160043586043       alpha = 
  0.992865963875321     
 delta_qm =   0.118830E-01 delta_en =   0.244003E+03 tol =   0.100000E-04
 Iteration #          2
  pAp =    37.1947844564772       rzold =    4.52798096724634       alpha = 
  0.121736986338627     
 delta_qm =   0.234379E-02 delta_en =   0.949251E+01 tol =   0.100000E-04
 Iteration #          3
  pAp =   0.300057226927545       rzold =   6.298098696615005E-002  alpha = 
  0.209896584098466     
 delta_qm =   0.114319E-02 delta_en =   0.225831E+01 tol =   0.100000E-04
 Iteration #          4
  pAp =   5.390775401068169E-002  rzold =   9.647305834776089E-003  alpha = 
  0.178959520978457     
 delta_qm =   0.118810E-02 delta_en =   0.243921E+01 tol =   0.100000E-04
 Iteration #          5
  pAp =   6.749629691558651E-003  rzold =   2.250092410008127E-003  alpha = 
  0.333365312295900     
 delta_qm =   0.759952E-03 delta_en =   0.997965E+00 tol =   0.100000E-04
 Iteration #          6
  pAp =   3.340593510333899E-003  rzold =   1.380673628426858E-003  alpha = 
  0.413301895054229     
 delta_qm =   0.464390E-03 delta_en =   0.372657E+00 tol =   0.100000E-04
 Iteration #          7
  pAp =   7.862035219851047E-004  rzold =   4.559403304934414E-004  alpha = 
  0.579926593742834     
 delta_qm =   0.239944E-03 delta_en =   0.994866E-01 tol =   0.100000E-04
 Iteration #          8
  pAp =   4.122790758427779E-004  rzold =   2.111590460778245E-004  alpha = 
  0.512175025245156     
 delta_qm =   0.108200E-03 delta_en =   0.202301E-01 tol =   0.100000E-04
 Iteration #          9
  pAp =   6.196857443315149E-004  rzold =   1.222774636335081E-004  alpha = 
  0.197321730816020     
 delta_qm =   0.545989E-04 delta_en =   0.515124E-02 tol =   0.100000E-04
 Iteration #         10
  pAp =   1.140246565332216E-004  rzold =   2.772077802094031E-005  alpha = 
  0.243112137881018     
 delta_qm =   0.348297E-04 delta_en =   0.209625E-02 tol =   0.100000E-04
 Iteration #         11
  pAp =   2.076048041160371E-005  rzold =   5.871022008756220E-006  alpha = 
  0.282797984071443     
 delta_qm =   0.229094E-04 delta_en =   0.906924E-03 tol =   0.100000E-04
 Iteration #         12
  pAp =   2.159973881984775E-006  rzold =   9.334751460256044E-007  alpha = 
  0.432169645110637     
 delta_qm =   0.155282E-04 delta_en =   0.416667E-03 tol =   0.100000E-04
 Iteration #         13
  pAp =   5.984416583987192E-007  rzold =   3.294797156804469E-007  alpha = 
  0.550562800995593     
 delta_qm =   0.719660E-05 delta_en =   0.894951E-04 tol =   0.100000E-04
 Iteration #         14
  pAp =   3.277529716807635E-007  rzold =   1.466267303041705E-007  alpha = 
  0.447369644132433     
 delta_qm =   0.486556E-05 delta_en =   0.409080E-04 tol =   0.100000E-04
 Iteration #         15
  pAp =   1.017093815422768E-007  rzold =   4.784414757206279E-008  alpha = 
  0.470400535787112     
 delta_qm =   0.243634E-05 delta_en =   0.102570E-04 tol =   0.100000E-04
 Iteration #         16
  pAp =   2.828356739070481E-008  rzold =   1.345077438106615E-008  alpha = 
  0.475568523420658     
 delta_qm =   0.147177E-05 delta_en =   0.374303E-05 tol =   0.100000E-04
 Charges are converged, EXIT

%%%% ELECTRONS %%%%%%%%%%%%%%%%%%%%%%%%%%%%%%%%%%%%%%%%%%%%%%%%%%%%%%%%%%%%%%%%%
 number of electrons        =         23
 total electronic charge    =     24.0000000
 number of spin components  =  1

%%%% BOUNDARY %%%%%%%%%%%%%%%%%%%%%%%%%%%%%%%%%%%%%%%%%%%%%%%%%%%%%%%%%%%%%%%%%%
 boundary mode              = electronic           
 boundary is built as a function of a smooth density
 function type              =  2 
 using the modified SCCS function with parameters 
 rhomax                     =      0.0050000 
 rhomin                     =      0.0001000 
 volume of the QM region    =    780.3351823 
 surface of the QM region   =    432.8590389 

%%%% DIELECTRIC %%%%%%%%%%%%%%%%%%%%%%%%%%%%%%%%%%%%%%%%%%%%%%%%%%%%%%%%%%%%%%%%%
 dielectric build on homogeneous background
 environment bulk permitt.  =     78.3000000 
 dielectric flags
 need gradient              =  F 
 need factor depend. sqrt   =  T 
 total dielectric charge    =      0.0001507

%%%% COMPUTE ELECTROSTATIC POTENTIAL %%%%%%%%%%%%%%%%%%%%%%%%%%%%%%%%%%%%%%%%%%%
 Warning: bad guess with residual norm =   0.254104E+03, reset to no guess
 Iteration #          1
  pAp =    92.9006671300373       rzold =    92.2366961461288       alpha = 
  0.992852893263090     
 delta_qm =   0.120498E-01 delta_en =   0.250900E+03 tol =   0.100000E-04
 Iteration #          2
  pAp =    37.5880868713756       rzold =    4.55849950866778       alpha = 
  0.121275113688726     
 delta_qm =   0.239830E-02 delta_en =   0.993915E+01 tol =   0.100000E-04
 Iteration #          3
  pAp =   0.313492225982813       rzold =   6.519581398434689E-002  alpha = 
  0.207966286181276     
 delta_qm =   0.115971E-02 delta_en =   0.232403E+01 tol =   0.100000E-04
 Iteration #          4
  pAp =   5.543651909759771E-002  rzold =   9.845109722100450E-003  alpha = 
  0.177592494665255     
 delta_qm =   0.121664E-02 delta_en =   0.255782E+01 tol =   0.100000E-04
 Iteration #          5
  pAp =   6.928321234359531E-003  rzold =   2.277822083021758E-003  alpha = 
  0.328769698455289     
 delta_qm =   0.781395E-03 delta_en =   0.105508E+01 tol =   0.100000E-04
 Iteration #          6
  pAp =   3.356857429652312E-003  rzold =   1.397869777273675E-003  alpha = 
  0.416422146775075     
 delta_qm =   0.478382E-03 delta_en =   0.395452E+00 tol =   0.100000E-04
 Iteration #          7
  pAp =   8.192012736890020E-004  rzold =   4.678663853146318E-004  alpha = 
  0.571125070652967     
 delta_qm =   0.249708E-03 delta_en =   0.107747E+00 tol =   0.100000E-04
 Iteration #          8
  pAp =   5.294282100610325E-004  rzold =   2.334289441353892E-004  alpha = 
  0.440907642810495     
 delta_qm =   0.136186E-03 delta_en =   0.320487E-01 tol =   0.100000E-04
 Iteration #          9
  pAp =   9.738687641540912E-004  rzold =   1.907877394157701E-004  alpha = 
  0.195907032280155     
 delta_qm =   0.626866E-04 delta_en =   0.679036E-02 tol =   0.100000E-04
 Iteration #         10
  pAp =   1.142949897554144E-004  rzold =   3.125604032241393E-005  alpha = 
  0.273468158047000     
 delta_qm =   0.372123E-04 delta_en =   0.239286E-02 tol =   0.100000E-04
 Iteration #         11
  pAp =   2.069457401544797E-005  rzold =   6.218752732315027E-006  alpha = 
  0.300501606250648     
 delta_qm =   0.251643E-04 delta_en =   0.109424E-02 tol =   0.100000E-04
 Iteration #         12
  pAp =   2.587297863388891E-006  rzold =   1.082806058836429E-006  alpha = 
  0.418508465592032     
 delta_qm =   0.179596E-04 delta_en =   0.557364E-03 tol =   0.100000E-04
 Iteration #         13
  pAp =   8.104367349286566E-007  rzold =   4.242222031750392E-007  alpha = 
  0.523448882425577     
 delta_qm =   0.832622E-05 delta_en =   0.119795E-03 tol =   0.100000E-04
 Iteration #         14
  pAp =   4.484140071316767E-007  rzold =   2.012657716134400E-007  alpha = 
  0.448839171864536     
 delta_qm =   0.551386E-05 delta_en =   0.525357E-04 tol =   0.100000E-04
 Iteration #         15
  pAp =   1.267099430450436E-007  rzold =   6.190019083624582E-008  alpha = 
  0.488518811931287     
 delta_qm =   0.284599E-05 delta_en =   0.139963E-04 tol =   0.100000E-04
 Iteration #         16
  pAp =   3.586958271811982E-008  rzold =   1.735786152273336E-008  alpha = 
  0.483915903319525     
 delta_qm =   0.171025E-05 delta_en =   0.505435E-05 tol =   0.100000E-04
 Charges are converged, EXIT

%%%% ELECTRONS %%%%%%%%%%%%%%%%%%%%%%%%%%%%%%%%%%%%%%%%%%%%%%%%%%%%%%%%%%%%%%%%%
 number of electrons        =         23
 total electronic charge    =     24.0000000
 number of spin components  =  1

%%%% BOUNDARY %%%%%%%%%%%%%%%%%%%%%%%%%%%%%%%%%%%%%%%%%%%%%%%%%%%%%%%%%%%%%%%%%%
 boundary mode              = electronic           
 boundary is built as a function of a smooth density
 function type              =  2 
 using the modified SCCS function with parameters 
 rhomax                     =      0.0050000 
 rhomin                     =      0.0001000 
 volume of the QM region    =    780.3351823 
 surface of the QM region   =    432.8590389 

%%%% DIELECTRIC %%%%%%%%%%%%%%%%%%%%%%%%%%%%%%%%%%%%%%%%%%%%%%%%%%%%%%%%%%%%%%%%%
 dielectric build on homogeneous background
 environment bulk permitt.  =     78.3000000 
 dielectric flags
 need gradient              =  F 
 need factor depend. sqrt   =  T 
 total dielectric charge    =      0.0001529
