
     Program PWSCF v.7.0 starts on 22Apr2022 at 20:53:52 

     This program is part of the open-source Quantum ESPRESSO suite
     for quantum simulation of materials; please cite
         "P. Giannozzi et al., J. Phys.:Condens. Matter 21 395502 (2009);
         "P. Giannozzi et al., J. Phys.:Condens. Matter 29 465901 (2017);
         "P. Giannozzi et al., J. Chem. Phys. 152 154105 (2020);
          URL http://www.quantum-espresso.org", 
     in publications or presentations arising from this work. More details at
     http://www.quantum-espresso.org/quote

     Parallel version (MPI), running on     1 processors

     MPI processes distributed on     1 nodes
     22837 MiB available memory on the printing compute node when the environment starts
 
     Reading input from neutral.in

     Current dimensions of program PWSCF are:
     Max number of different atomic species (ntypx) = 10
     Max number of k-points (npk) =  40000
     Max angular momentum in pseudopotentials (lmaxx) =  4
 
     Reading input from environ.in:
     * setting up water environment
     * using electronic solvent mode
     * setting boundary derivatives method to SCCS default
     * ignoring &ELECTROSTATIC namelist
     
     file C.pbe-rrkjus.UPF: wavefunction(s)  2S 2P renormalized
     file H.pbe-rrkjus.UPF: wavefunction(s)  1S renormalized
     file N.pbe-rrkjus.UPF: wavefunction(s)  2S renormalized
     file O.pbe-rrkjus.UPF: wavefunction(s)  2S renormalized

     gamma-point specific algorithms are used

     Subspace diagonalization in iterative solution of the eigenvalue problem:
     a serial algorithm will be used

 
     G-vector sticks info
     --------------------
     sticks:   dense  smooth     PW     G-vecs:    dense   smooth      PW
     Sum        9549    3809    949               701475   177509   22119
 
     Using Slab Decomposition
 


     bravais-lattice index     =            1
     lattice parameter (alat)  =      20.0000  a.u.
     unit-cell volume          =    8000.0000 (a.u.)^3
     number of atoms/cell      =            9
     number of atomic types    =            4
     number of electrons       =        24.00
     number of Kohn-Sham states=           12
     kinetic-energy cutoff     =      30.0000  Ry
     charge density cutoff     =     300.0000  Ry
     scf convergence threshold =      1.0E-03
     mixing beta               =       0.7000
     number of iterations used =            8  plain     mixing
     Exchange-correlation= SLA  PW   PBE  PBE
                           (   1   4   3   4   0   0   0)

     ================================================================================
 
                                  Environ Setup Summary

     ================================================================================
 
     Please cite

          O. Andreussi, I. Dabo and N. Marzari, J. Chem. Phys. 136, 064102 (2012)

     in publications or presentations arising from this work.

     ================================================================================
 
     Parameters
     ==========

     compensation onset threshold      =               0.1000E+03
     static permittivity               =                    78.30
     surface tension in input (dyn/cm) =                    47.90
     surface tension in internal units =               0.6153E-04
     external pressure in input (GPa)  =                    -0.36
     external pressure in inter. units =              -0.2447E-04

     Solvent Boundary
     ================

     solvent mode                      =               electronic
     derivatives method                =                    chain
     numerical core for derivatives    =                      fft
     switching function adopted        =                     SCCS
     density limit for vacuum region   =               0.5000E-02
     density limit for bulk solvent    =               0.1000E-03

     Electrostatic Setup
     ===================

     electrostatic problem to solve    =              generalized
     numerical solver adopted          =                       cg
     type of auxiliary density adopted =                     none
     numerical core for poisson        =                      fft

     ================================================================================
 

     celldm(1)=  20.000000  celldm(2)=   0.000000  celldm(3)=   0.000000
     celldm(4)=   0.000000  celldm(5)=   0.000000  celldm(6)=   0.000000

     crystal axes: (cart. coord. in units of alat)
               a(1) = (   1.000000   0.000000   0.000000 )  
               a(2) = (   0.000000   1.000000   0.000000 )  
               a(3) = (   0.000000   0.000000   1.000000 )  

     reciprocal axes: (cart. coord. in units 2 pi/alat)
               b(1) = (  1.000000  0.000000  0.000000 )  
               b(2) = (  0.000000  1.000000  0.000000 )  
               b(3) = (  0.000000  0.000000  1.000000 )  


     PseudoPot. # 1 for C  read from file:
     MD5 check sum: c9ac5a99bc85b198593446162950cd17
     Pseudo is Ultrasoft, Zval =  4.0
     Generated by new atomic code, or converted to UPF format
     Using radial grid of  627 points,  4 beta functions with: 
                l(1) =   0
                l(2) =   0
                l(3) =   1
                l(4) =   1
     Q(r) pseudized with 0 coefficients 


     PseudoPot. # 2 for H  read from file:
     MD5 check sum: 2d52a7f45632fd764c17cc6affed14c8
     Pseudo is Ultrasoft, Zval =  1.0
     Generated by new atomic code, or converted to UPF format
     Using radial grid of 1061 points,  2 beta functions with: 
                l(1) =   0
                l(2) =   0
     Q(r) pseudized with 0 coefficients 


     PseudoPot. # 3 for N  read from file:
     MD5 check sum: 28c76d763763edb36c62a6ca2be9aebd
     Pseudo is Ultrasoft, Zval =  5.0
     Generated by new atomic code, or converted to UPF format
     Using radial grid of 1257 points,  4 beta functions with: 
                l(1) =   0
                l(2) =   0
                l(3) =   1
                l(4) =   1
     Q(r) pseudized with 0 coefficients 


     PseudoPot. # 4 for O  read from file:
     MD5 check sum: fadcf19ee70a498d3030e2e79cf929a4
     Pseudo is Ultrasoft, Zval =  6.0
     Generated by new atomic code, or converted to UPF format
     Using radial grid of 1269 points,  4 beta functions with: 
                l(1) =   0
                l(2) =   0
                l(3) =   1
                l(4) =   1
     Q(r) pseudized with 0 coefficients 


     atomic species   valence    mass     pseudopotential
        C              4.00    12.00000     C ( 1.00)
        H              1.00     1.00000     H ( 1.00)
        N              5.00    14.00000     N ( 1.00)
        O              6.00    16.00000     O ( 1.00)

     No symmetry found



   Cartesian axes

     site n.     atom                  positions (alat units)
         1           C   tau(   1) = (   0.0000000   0.0000000   0.0000000  )
         2           C   tau(   2) = (   0.0000000   0.0000000   0.1455089  )
         3           N   tau(   3) = (   0.1170969   0.0000000  -0.0545024  )
         4           H   tau(   4) = (   0.0476617  -0.0825466   0.1792090  )
         5           H   tau(   5) = (  -0.0953183  -0.0000030   0.1792090  )
         6           H   tau(   6) = (   0.0476566   0.0825496   0.1792090  )
         7           O   tau(   7) = (  -0.0984002  -0.0000019  -0.0641310  )
         8           H   tau(   8) = (   0.1263131  -0.0000015  -0.1475548  )
         9           H   tau(   9) = (   0.1944645   0.0000134  -0.0025716  )

     number of k points=     1
                       cart. coord. in units 2pi/alat
        k(    1) = (   0.0000000   0.0000000   0.0000000), wk =   2.0000000

     Dense  grid:   350738 G-vectors     FFT dimensions: ( 120, 120, 120)

     Smooth grid:    88755 G-vectors     FFT dimensions: (  72,  72,  72)

     Estimated max dynamical RAM per process >     607.72 MB

     Initial potential from superposition of free atoms

     starting charge      23.5189, renormalised to      24.0000

     negative rho (up, down):  5.411E-04 0.000E+00
     Starting wfcs are   21 randomized atomic wfcs

     total cpu time spent up to now is        5.4 secs

     Self-consistent Calculation

     iteration #  1     ecut=    30.00 Ry     beta= 0.70
     Davidson diagonalization with overlap
     ethr =  1.00E-02,  avg # of iterations =  2.0

     negative rho (up, down):  1.647E-04 0.000E+00

     add environment contribution to local potential
     Polarization accuracy = 2.5E-06, # of iterations =  14

     total cpu time spent up to now is       11.0 secs

     total energy              =     -79.61740950 Ry
     estimated scf accuracy    <       2.84608879 Ry
     electrostatic embedding   =       0.00000000 Ry
     cavitation energy         =       0.03759203 Ry
     PV energy                 =      -0.03546673 Ry
     correction to one-el term =       0.00000000 Ry

     iteration #  2     ecut=    30.00 Ry     beta= 0.70
     Davidson diagonalization with overlap
     ethr =  1.00E-02,  avg # of iterations =  5.0

     negative rho (up, down):  1.295E-03 0.000E+00

     add environment contribution to local potential
     Polarization accuracy = 8.4E-06, # of iterations =  15

     total cpu time spent up to now is       17.2 secs

     total energy              =     -80.10856115 Ry
     estimated scf accuracy    <       1.51881460 Ry
     electrostatic embedding   =      -0.03550579 Ry
     cavitation energy         =       0.02423769 Ry
     PV energy                 =      -0.01693339 Ry
     correction to one-el term =      -1.21178214 Ry

     iteration #  3     ecut=    30.00 Ry     beta= 0.70
     Davidson diagonalization with overlap
     ethr =  6.33E-03,  avg # of iterations =  4.0

     negative rho (up, down):  2.856E-04 0.000E+00

     add environment contribution to local potential
     Polarization accuracy = 7.5E-06, # of iterations =  15

     total cpu time spent up to now is       22.0 secs

     total energy              =     -80.45415682 Ry
     estimated scf accuracy    <       0.14904243 Ry
     electrostatic embedding   =      -0.04907551 Ry
     cavitation energy         =       0.02420139 Ry
     PV energy                 =      -0.01656490 Ry
     correction to one-el term =      -0.65858772 Ry

     iteration #  4     ecut=    30.00 Ry     beta= 0.70
     Davidson diagonalization with overlap
     ethr =  6.21E-04,  avg # of iterations =  4.0

     negative rho (up, down):  1.590E-04 0.000E+00

     add environment contribution to local potential
     Polarization accuracy = 5.9E-06, # of iterations =  16

     total cpu time spent up to now is       26.2 secs

     total energy              =     -80.49628384 Ry
     estimated scf accuracy    <       0.02069498 Ry
     electrostatic embedding   =      -0.04015084 Ry
     cavitation energy         =       0.02394867 Ry
     PV energy                 =      -0.01614635 Ry
     correction to one-el term =      -0.39749576 Ry

     iteration #  5     ecut=    30.00 Ry     beta= 0.70
     Davidson diagonalization with overlap
     ethr =  8.62E-05,  avg # of iterations =  2.0

     negative rho (up, down):  8.988E-05 0.000E+00

     add environment contribution to local potential
     Polarization accuracy = 5.9E-06, # of iterations =  16

     total cpu time spent up to now is       31.7 secs

     total energy              =     -80.50081591 Ry
     estimated scf accuracy    <       0.00176427 Ry
     electrostatic embedding   =      -0.04633376 Ry
     cavitation energy         =       0.02364051 Ry
     PV energy                 =      -0.01568189 Ry
     correction to one-el term =      -0.14750337 Ry

     iteration #  6     ecut=    30.00 Ry     beta= 0.70
     Davidson diagonalization with overlap
     ethr =  7.35E-06,  avg # of iterations =  2.0

     negative rho (up, down):  2.235E-04 0.000E+00

     the potential shift due to the Gaussian-smeared nuclei is    -0.0641 ev

     total cpu time spent up to now is       34.5 secs

     End of self-consistent calculation

          k = 0.0000 0.0000 0.0000 ( 11060 PWs)   bands (ev):

   -25.3645 -22.0120 -17.6418 -14.0636 -12.6614 -10.9505 -10.4163  -9.3223
    -9.1317  -8.4956  -6.1080  -5.5352

     highest occupied level (ev):    -5.5352

!    total energy              =     -80.50138829 Ry
     estimated scf accuracy    <       0.00021886 Ry

     The total energy is the sum of the following terms:
     one-electron contribution =    -236.05632899 Ry
     hartree contribution      =     121.65771478 Ry
     xc contribution           =     -22.70713726 Ry
     ewald contribution        =      56.74764075 Ry
     electrostatic embedding   =      -0.04714392 Ry
     cavitation energy         =       0.02364051 Ry
     PV energy                 =      -0.01567620 Ry
     correction to one-el term =      -0.10409797 Ry

     convergence has been achieved in   6 iterations

     Forces acting on atoms (cartesian axes, Ry/au):

     atom    1 type  1   force =     0.02499097   -0.00000051    0.00857048
     atom    2 type  1   force =    -0.00769749   -0.00000706   -0.06123375
     atom    3 type  3   force =    -0.06715712   -0.00000902    0.03169742
     atom    4 type  2   force =     0.02018728   -0.02846985    0.01362088
     atom    5 type  2   force =    -0.03087017    0.00000644    0.00877767
     atom    6 type  2   force =     0.02018030    0.02847808    0.01361953
     atom    7 type  4   force =    -0.00188845   -0.00001373    0.00222449
     atom    8 type  2   force =     0.00105448    0.00000719   -0.04542873
     atom    9 type  2   force =     0.04120019    0.00000846    0.02815201

     Total force =     0.135729     Total SCF correction =     0.015135
     SCF correction compared to forces is large: reduce conv_thr to get better values

 
     init_run     :      4.74s CPU      5.34s WALL (       1 calls)
     electrons    :     26.64s CPU     29.12s WALL (       1 calls)
     forces       :      1.00s CPU      1.12s WALL (       1 calls)

     Called by init_run:
     wfcinit      :      0.15s CPU      0.19s WALL (       1 calls)
     potinit      :      1.74s CPU      1.93s WALL (       1 calls)
     hinit0       :      2.26s CPU      2.28s WALL (       1 calls)

     Called by electrons:
     c_bands      :      1.30s CPU      1.39s WALL (       6 calls)
     sum_band     :      2.87s CPU      3.35s WALL (       6 calls)
     v_of_rho     :      3.43s CPU      3.90s WALL (       7 calls)
     newd         :      2.06s CPU      2.57s WALL (       7 calls)
     mix_rho      :      0.34s CPU      0.40s WALL (       6 calls)

     Called by c_bands:
     init_us_2    :      0.04s CPU      0.04s WALL (      13 calls)
     init_us_2:cp :      0.04s CPU      0.04s WALL (      13 calls)
     regterg      :      1.22s CPU      1.31s WALL (       6 calls)

     Called by *egterg:
     rdiaghg      :      0.01s CPU      0.01s WALL (      25 calls)
     h_psi        :      1.24s CPU      1.36s WALL (      26 calls)
     s_psi        :      0.03s CPU      0.03s WALL (      26 calls)
     g_psi        :      0.00s CPU      0.00s WALL (      19 calls)

     Called by h_psi:
     h_psi:calbec :      0.03s CPU      0.03s WALL (      26 calls)
     vloc_psi     :      1.18s CPU      1.30s WALL (      26 calls)
     add_vuspsi   :      0.03s CPU      0.03s WALL (      26 calls)

     General routines
     calbec       :      0.04s CPU      0.04s WALL (      36 calls)
     fft          :      1.58s CPU      1.61s WALL (      77 calls)
     ffts         :      0.05s CPU      0.05s WALL (      13 calls)
     fftw         :      1.00s CPU      1.10s WALL (     278 calls)
     interpolate  :      0.20s CPU      0.20s WALL (       7 calls)
 
     Parallel routines
 
     Environ routines
 
     PWSCF        :     32.49s CPU     35.73s WALL

 
   This run was terminated on:  20:54:28  22Apr2022            

=------------------------------------------------------------------------------=
   JOB DONE.
=------------------------------------------------------------------------------=

%%%% CELL %%%%%%%%%%%%%%%%%%%%%%%%%%%%%%%%%%%%%%%%%%%%%%%%%%%%%%%%%%%%%%%%%%%%%%

 cell label                 = system         

 cell volume                =    8000.000000

%%%% IONS %%%%%%%%%%%%%%%%%%%%%%%%%%%%%%%%%%%%%%%%%%%%%%%%%%%%%%%%%%%%%%%%%%%%%%

 total charge               =    -24.0000000
 center of charge           =      0.1317554    -0.0000061     0.1180979
 dipole                     =      0.0000000     0.0000000     0.0000000
 quadrupole (pc)            =    -76.3735160    -5.4513517   -95.7986378
 quadrupole (gauss)         =    -79.3735160    -8.4513517   -98.7986378

   i | type | coordinates
 -----------------------------------------------------------------------
   1 |    1 |                      0.0000000     0.0000000     0.0000000
   2 |    1 |                      0.0000000     0.0000000     2.9101782
   3 |    3 |                      2.3419379     0.0000000    -1.0900479
   4 |    2 |                      0.9532347    -1.6509323     3.5841800
   5 |    2 |                     -1.9063663    -0.0000596     3.5841809
   6 |    2 |                      0.9531315     1.6509919     3.5841800
   7 |    4 |                     -1.9680045    -0.0000375    -1.2826193
   8 |    2 |                      2.5262613    -0.0000303    -2.9510950
   9 |    2 |                      3.8892907     0.0002681    -0.0514326

%%%% SYSTEM %%%%%%%%%%%%%%%%%%%%%%%%%%%%%%%%%%%%%%%%%%%%%%%%%%%%%%%%%%%%%%%%%%%%

 system is built from all present ionic types

 system defined dimension   =              0
 system defined axis        =              3

 system center              =      0.1317554    -0.0000061     0.1180979
 system width               =      4.0209043

%%%% IONS %%%%%%%%%%%%%%%%%%%%%%%%%%%%%%%%%%%%%%%%%%%%%%%%%%%%%%%%%%%%%%%%%%%%%%

 total charge               =    -24.0000000
 center of charge           =      0.1317554    -0.0000061     0.1180979
 dipole                     =      0.0000000     0.0000000     0.0000000
 quadrupole (pc)            =    -76.3735160    -5.4513517   -95.7986378
 quadrupole (gauss)         =    -79.3735160    -8.4513517   -98.7986378

   i | type | coordinates
 -----------------------------------------------------------------------
   1 |    1 |                      0.0000000     0.0000000     0.0000000
   2 |    1 |                      0.0000000     0.0000000     2.9101782
   3 |    3 |                      2.3419379     0.0000000    -1.0900479
   4 |    2 |                      0.9532347    -1.6509323     3.5841800
   5 |    2 |                     -1.9063663    -0.0000596     3.5841809
   6 |    2 |                      0.9531315     1.6509919     3.5841800
   7 |    4 |                     -1.9680045    -0.0000375    -1.2826193
   8 |    2 |                      2.5262613    -0.0000303    -2.9510950
   9 |    2 |                      3.8892907     0.0002681    -0.0514326

%%%% SYSTEM %%%%%%%%%%%%%%%%%%%%%%%%%%%%%%%%%%%%%%%%%%%%%%%%%%%%%%%%%%%%%%%%%%%%

 system is built from all present ionic types

 system defined dimension   =              0
 system defined axis        =              3

 system center              =      0.1317554    -0.0000061     0.1180979
 system width               =      4.0209043

%%%% CHARGES %%%%%%%%%%%%%%%%%%%%%%%%%%%%%%%%%%%%%%%%%%%%%%%%%%%%%%%%%%%%%%%%%%%

 total number of charges    =              9

 total charge               =    -24.0000000

%%%% CHARGES %%%%%%%%%%%%%%%%%%%%%%%%%%%%%%%%%%%%%%%%%%%%%%%%%%%%%%%%%%%%%%%%%%%

 total number of charges    =              9

 total charge               =    -24.0000000

%%%% CELL %%%%%%%%%%%%%%%%%%%%%%%%%%%%%%%%%%%%%%%%%%%%%%%%%%%%%%%%%%%%%%%%%%%%%%

 cell label                 = system         

 cell volume                =    8000.000000

%%%% ELECTRONS %%%%%%%%%%%%%%%%%%%%%%%%%%%%%%%%%%%%%%%%%%%%%%%%%%%%%%%%%%%%%%%%%

 number of electrons        =             24

 total electronic charge    =     24.0000000

%%%% ELECTRONS %%%%%%%%%%%%%%%%%%%%%%%%%%%%%%%%%%%%%%%%%%%%%%%%%%%%%%%%%%%%%%%%%

 number of electrons        =             24

 total electronic charge    =     24.0000000

%%%% CHARGES %%%%%%%%%%%%%%%%%%%%%%%%%%%%%%%%%%%%%%%%%%%%%%%%%%%%%%%%%%%%%%%%%%%

 total number of charges    =             33

 total charge               =     -0.0000000

%%%% CHARGES %%%%%%%%%%%%%%%%%%%%%%%%%%%%%%%%%%%%%%%%%%%%%%%%%%%%%%%%%%%%%%%%%%%

 total number of charges    =             33

 total charge               =     -0.0000000

%%%% BOUNDARY %%%%%%%%%%%%%%%%%%%%%%%%%%%%%%%%%%%%%%%%%%%%%%%%%%%%%%%%%%%%%%%%%%

 boundary label             = solvent             
 boundary mode              = electronic          

 using the optimal SCCS function:
 rhomax                     =      0.0050000
 rhomin                     =      0.0001000

 volume of the QM region    =   1449.2597285

 surface of the QM region   =    610.9264839

%%%% DENSITY %%%%%%%%%%%%%%%%%%%%%%%%%%%%%%%%%%%%%%%%%%%%%%%%%%%%%%%%%%%%%%%%%%%

 density label              = dvtot                                             

 integral of density        =    0.000000000    

%%%% DENSITY %%%%%%%%%%%%%%%%%%%%%%%%%%%%%%%%%%%%%%%%%%%%%%%%%%%%%%%%%%%%%%%%%%%

 density label              = vreference                                        

 integral of density        =    0.000000000    

%%%% DENSITY %%%%%%%%%%%%%%%%%%%%%%%%%%%%%%%%%%%%%%%%%%%%%%%%%%%%%%%%%%%%%%%%%%%

 density label              = velectrostatic                                    

 integral of density        =    0.000000000    

%%%% CHARGES %%%%%%%%%%%%%%%%%%%%%%%%%%%%%%%%%%%%%%%%%%%%%%%%%%%%%%%%%%%%%%%%%%%

 total number of charges    =             33

 total charge               =     -0.0000000

%%%% DENSITY %%%%%%%%%%%%%%%%%%%%%%%%%%%%%%%%%%%%%%%%%%%%%%%%%%%%%%%%%%%%%%%%%%%

 density label              = vsoftcavity                                       

 integral of density        =    0.000000000    

%%%% ELECTRONS %%%%%%%%%%%%%%%%%%%%%%%%%%%%%%%%%%%%%%%%%%%%%%%%%%%%%%%%%%%%%%%%%

 number of electrons        =             24

 total electronic charge    =     24.0000000

%%%% ELECTRONS %%%%%%%%%%%%%%%%%%%%%%%%%%%%%%%%%%%%%%%%%%%%%%%%%%%%%%%%%%%%%%%%%

 number of electrons        =             24

 total electronic charge    =     24.0000000

%%%% CHARGES %%%%%%%%%%%%%%%%%%%%%%%%%%%%%%%%%%%%%%%%%%%%%%%%%%%%%%%%%%%%%%%%%%%

 total number of charges    =             33

 total charge               =      0.0000000

%%%% CHARGES %%%%%%%%%%%%%%%%%%%%%%%%%%%%%%%%%%%%%%%%%%%%%%%%%%%%%%%%%%%%%%%%%%%

 total number of charges    =             33

 total charge               =      0.0000000

%%%% BOUNDARY %%%%%%%%%%%%%%%%%%%%%%%%%%%%%%%%%%%%%%%%%%%%%%%%%%%%%%%%%%%%%%%%%%

 boundary label             = solvent             
 boundary mode              = electronic          

 using the optimal SCCS function:
 rhomax                     =      0.0050000
 rhomin                     =      0.0001000

 volume of the QM region    =    691.9410408

 surface of the QM region   =    393.8985849

%%%% DENSITY %%%%%%%%%%%%%%%%%%%%%%%%%%%%%%%%%%%%%%%%%%%%%%%%%%%%%%%%%%%%%%%%%%%

 density label              = vreference                                        

 integral of density        =  -0.9487061342E-13

%%%% COMPUTE ELECTROSTATIC POTENTIAL %%%%%%%%%%%%%%%%%%%%%%%%%%%%%%%%%%%%%%%%%%%

   i |      alpha     |       pAp      |      rzold     |    delta_qm    |    delta_en    |       tol
 ---------------------------------------------------------------------------------------------------------
   1 |   0.995576E+00 |   0.898995E+02 |   0.895018E+02 |   0.499236E-02 |   0.430681E+02 |   0.100000E-04
   2 |   0.150548E+00 |   0.134121E+02 |   0.201917E+01 |   0.158009E-02 |   0.431429E+01 |   0.100000E-04
   3 |   0.251041E+00 |   0.234557E+00 |   0.588833E-01 |   0.795383E-03 |   0.109319E+01 |   0.100000E-04
   4 |   0.188592E+00 |   0.559326E-01 |   0.105485E-01 |   0.662728E-03 |   0.758953E+00 |   0.100000E-04
   5 |   0.475755E+00 |   0.259359E-02 |   0.123391E-02 |   0.343792E-03 |   0.204238E+00 |   0.100000E-04
   6 |   0.407252E+00 |   0.138941E-02 |   0.565840E-03 |   0.171778E-03 |   0.509893E-01 |   0.100000E-04
   7 |   0.407093E+00 |   0.337772E-03 |   0.137505E-03 |   0.106212E-03 |   0.194934E-01 |   0.100000E-04
   8 |   0.318035E+00 |   0.261123E-03 |   0.830461E-04 |   0.636057E-04 |   0.699094E-02 |   0.100000E-04
   9 |   0.409264E+00 |   0.720063E-04 |   0.294696E-04 |   0.287717E-04 |   0.143046E-02 |   0.100000E-04
  10 |   0.391178E+00 |   0.139475E-04 |   0.545595E-05 |   0.194892E-04 |   0.656347E-03 |   0.100000E-04
  11 |   0.677556E+00 |   0.139673E-05 |   0.946364E-06 |   0.990177E-05 |   0.169422E-03 |   0.100000E-04
  12 |   0.630941E+00 |   0.630766E-06 |   0.397976E-06 |   0.413734E-05 |   0.295792E-04 |   0.100000E-04
  13 |   0.379288E+00 |   0.345213E-06 |   0.130935E-06 |   0.243251E-05 |   0.102248E-04 |   0.100000E-04
  14 |   0.384509E+00 |   0.760435E-07 |   0.292394E-07 |   0.119566E-05 |   0.247037E-05 |   0.100000E-04

 Charges are converged, EXIT

%%%% DENSITY %%%%%%%%%%%%%%%%%%%%%%%%%%%%%%%%%%%%%%%%%%%%%%%%%%%%%%%%%%%%%%%%%%%

 density label              = velectrostatic                                    

 integral of density        =  -0.5225778658E-12

%%%% CHARGES %%%%%%%%%%%%%%%%%%%%%%%%%%%%%%%%%%%%%%%%%%%%%%%%%%%%%%%%%%%%%%%%%%%

 total number of charges    =             33

 total charge               =      0.0000000

%%%% DENSITY %%%%%%%%%%%%%%%%%%%%%%%%%%%%%%%%%%%%%%%%%%%%%%%%%%%%%%%%%%%%%%%%%%%

 density label              = vsoftcavity                                       

 integral of density        =    13.96609442    

%%%% DENSITY %%%%%%%%%%%%%%%%%%%%%%%%%%%%%%%%%%%%%%%%%%%%%%%%%%%%%%%%%%%%%%%%%%%

 density label              = dvtot                                             

 integral of density        =    13.96609442    

%%%% ELECTRONS %%%%%%%%%%%%%%%%%%%%%%%%%%%%%%%%%%%%%%%%%%%%%%%%%%%%%%%%%%%%%%%%%

 number of electrons        =             24

 total electronic charge    =     24.0000000

%%%% ELECTRONS %%%%%%%%%%%%%%%%%%%%%%%%%%%%%%%%%%%%%%%%%%%%%%%%%%%%%%%%%%%%%%%%%

 number of electrons        =             24

 total electronic charge    =     24.0000000

%%%% CHARGES %%%%%%%%%%%%%%%%%%%%%%%%%%%%%%%%%%%%%%%%%%%%%%%%%%%%%%%%%%%%%%%%%%%

 total number of charges    =             33

 total charge               =     -0.0000000

%%%% CHARGES %%%%%%%%%%%%%%%%%%%%%%%%%%%%%%%%%%%%%%%%%%%%%%%%%%%%%%%%%%%%%%%%%%%

 total number of charges    =             33

 total charge               =     -0.0000000

%%%% BOUNDARY %%%%%%%%%%%%%%%%%%%%%%%%%%%%%%%%%%%%%%%%%%%%%%%%%%%%%%%%%%%%%%%%%%

 boundary label             = solvent             
 boundary mode              = electronic          

 using the optimal SCCS function:
 rhomax                     =      0.0050000
 rhomin                     =      0.0001000

 volume of the QM region    =    676.8835156

 surface of the QM region   =    393.3086276

%%%% DENSITY %%%%%%%%%%%%%%%%%%%%%%%%%%%%%%%%%%%%%%%%%%%%%%%%%%%%%%%%%%%%%%%%%%%

 density label              = vreference                                        

 integral of density        =   0.8454142736E-13

%%%% COMPUTE ELECTROSTATIC POTENTIAL %%%%%%%%%%%%%%%%%%%%%%%%%%%%%%%%%%%%%%%%%%%

 Warning: Bad guess with residual norm =   0.194731E+03, reset to no guess

   i |      alpha     |       pAp      |      rzold     |    delta_qm    |    delta_en    |       tol
 ---------------------------------------------------------------------------------------------------------
   1 |   0.992799E+00 |   0.918093E+02 |   0.911482E+02 |   0.105509E-01 |   0.192362E+03 |   0.100000E-04
   2 |   0.137785E+00 |   0.287120E+02 |   0.395607E+01 |   0.209718E-02 |   0.760006E+01 |   0.100000E-04
   3 |   0.264918E+00 |   0.138046E+00 |   0.365708E-01 |   0.149412E-02 |   0.385759E+01 |   0.100000E-04
   4 |   0.230122E+00 |   0.213902E-01 |   0.492235E-02 |   0.956778E-03 |   0.158185E+01 |   0.100000E-04
   5 |   0.336766E+00 |   0.591208E-02 |   0.199098E-02 |   0.788922E-03 |   0.107550E+01 |   0.100000E-04
   6 |   0.381484E+00 |   0.277182E-02 |   0.105741E-02 |   0.418888E-03 |   0.303207E+00 |   0.100000E-04
   7 |   0.536210E+00 |   0.477793E-03 |   0.256198E-03 |   0.220937E-03 |   0.843490E-01 |   0.100000E-04
   8 |   0.273798E+00 |   0.725348E-03 |   0.198598E-03 |   0.116738E-03 |   0.235489E-01 |   0.100000E-04
   9 |   0.317709E+00 |   0.234050E-03 |   0.743599E-04 |   0.613294E-04 |   0.649951E-02 |   0.100000E-04
  10 |   0.365022E+00 |   0.313760E-04 |   0.114529E-04 |   0.362007E-04 |   0.226453E-02 |   0.100000E-04
  11 |   0.525557E+00 |   0.381165E-05 |   0.200324E-05 |   0.233888E-04 |   0.945280E-03 |   0.100000E-04
  12 |   0.614859E+00 |   0.157641E-05 |   0.969273E-06 |   0.121874E-04 |   0.256665E-03 |   0.100000E-04
  13 |   0.369626E+00 |   0.159402E-05 |   0.589192E-06 |   0.757391E-05 |   0.991253E-04 |   0.100000E-04
  14 |   0.464792E+00 |   0.272751E-06 |   0.126773E-06 |   0.385951E-05 |   0.257400E-04 |   0.100000E-04
  15 |   0.396883E+00 |   0.605524E-07 |   0.240322E-07 |   0.221022E-05 |   0.844142E-05 |   0.100000E-04

 Charges are converged, EXIT

%%%% DENSITY %%%%%%%%%%%%%%%%%%%%%%%%%%%%%%%%%%%%%%%%%%%%%%%%%%%%%%%%%%%%%%%%%%%

 density label              = velectrostatic                                    

 integral of density        =  -0.8596251283E-12

%%%% CHARGES %%%%%%%%%%%%%%%%%%%%%%%%%%%%%%%%%%%%%%%%%%%%%%%%%%%%%%%%%%%%%%%%%%%

 total number of charges    =             33

 total charge               =     -0.0000000

%%%% DENSITY %%%%%%%%%%%%%%%%%%%%%%%%%%%%%%%%%%%%%%%%%%%%%%%%%%%%%%%%%%%%%%%%%%%

 density label              = vsoftcavity                                       

 integral of density        =    16.25771996    

%%%% DENSITY %%%%%%%%%%%%%%%%%%%%%%%%%%%%%%%%%%%%%%%%%%%%%%%%%%%%%%%%%%%%%%%%%%%

 density label              = dvtot                                             

 integral of density        =    16.25771996    

%%%% ELECTRONS %%%%%%%%%%%%%%%%%%%%%%%%%%%%%%%%%%%%%%%%%%%%%%%%%%%%%%%%%%%%%%%%%

 number of electrons        =             24

 total electronic charge    =     24.0000000

%%%% ELECTRONS %%%%%%%%%%%%%%%%%%%%%%%%%%%%%%%%%%%%%%%%%%%%%%%%%%%%%%%%%%%%%%%%%

 number of electrons        =             24

 total electronic charge    =     24.0000000

%%%% CHARGES %%%%%%%%%%%%%%%%%%%%%%%%%%%%%%%%%%%%%%%%%%%%%%%%%%%%%%%%%%%%%%%%%%%

 total number of charges    =             33

 total charge               =     -0.0000000

%%%% CHARGES %%%%%%%%%%%%%%%%%%%%%%%%%%%%%%%%%%%%%%%%%%%%%%%%%%%%%%%%%%%%%%%%%%%

 total number of charges    =             33

 total charge               =     -0.0000000

%%%% BOUNDARY %%%%%%%%%%%%%%%%%%%%%%%%%%%%%%%%%%%%%%%%%%%%%%%%%%%%%%%%%%%%%%%%%%

 boundary label             = solvent             
 boundary mode              = electronic          

 using the optimal SCCS function:
 rhomax                     =      0.0050000
 rhomin                     =      0.0001000

 volume of the QM region    =    659.7804748

 surface of the QM region   =    389.2015972

%%%% DENSITY %%%%%%%%%%%%%%%%%%%%%%%%%%%%%%%%%%%%%%%%%%%%%%%%%%%%%%%%%%%%%%%%%%%

 density label              = vreference                                        

 integral of density        =   0.4599448394E-12

%%%% COMPUTE ELECTROSTATIC POTENTIAL %%%%%%%%%%%%%%%%%%%%%%%%%%%%%%%%%%%%%%%%%%%

 Warning: Bad guess with residual norm =   0.160962E+03, reset to no guess

   i |      alpha     |       pAp      |      rzold     |    delta_qm    |    delta_en    |       tol
 ---------------------------------------------------------------------------------------------------------
   1 |   0.994083E+00 |   0.928658E+02 |   0.923163E+02 |   0.960297E-02 |   0.159351E+03 |   0.100000E-04
   2 |   0.128485E+00 |   0.275608E+02 |   0.354116E+01 |   0.185330E-02 |   0.593521E+01 |   0.100000E-04
   3 |   0.246019E+00 |   0.179287E+00 |   0.441081E-01 |   0.105805E-02 |   0.193445E+01 |   0.100000E-04
   4 |   0.235056E+00 |   0.206976E-01 |   0.486508E-02 |   0.986607E-03 |   0.168203E+01 |   0.100000E-04
   5 |   0.326432E+00 |   0.584060E-02 |   0.190656E-02 |   0.567947E-03 |   0.557391E+00 |   0.100000E-04
   6 |   0.356066E+00 |   0.371336E-02 |   0.132220E-02 |   0.350674E-03 |   0.212496E+00 |   0.100000E-04
   7 |   0.590414E+00 |   0.580872E-03 |   0.342955E-03 |   0.174755E-03 |   0.527717E-01 |   0.100000E-04
   8 |   0.467180E+00 |   0.331553E-03 |   0.154895E-03 |   0.691611E-04 |   0.826546E-02 |   0.100000E-04
   9 |   0.252569E+00 |   0.200920E-03 |   0.507463E-04 |   0.364321E-04 |   0.229357E-02 |   0.100000E-04
  10 |   0.212562E+00 |   0.659586E-04 |   0.140203E-04 |   0.226467E-04 |   0.886242E-03 |   0.100000E-04
  11 |   0.324128E+00 |   0.779020E-05 |   0.252502E-05 |   0.150536E-04 |   0.391584E-03 |   0.100000E-04
  12 |   0.448451E+00 |   0.123376E-05 |   0.553283E-06 |   0.102444E-04 |   0.181348E-03 |   0.100000E-04
  13 |   0.485133E+00 |   0.581545E-06 |   0.282126E-06 |   0.579947E-05 |   0.581192E-04 |   0.100000E-04
  14 |   0.498441E+00 |   0.220761E-06 |   0.110037E-06 |   0.374639E-05 |   0.242532E-04 |   0.100000E-04
  15 |   0.497535E+00 |   0.583451E-07 |   0.290287E-07 |   0.208133E-05 |   0.748556E-05 |   0.100000E-04

 Charges are converged, EXIT

%%%% DENSITY %%%%%%%%%%%%%%%%%%%%%%%%%%%%%%%%%%%%%%%%%%%%%%%%%%%%%%%%%%%%%%%%%%%

 density label              = velectrostatic                                    

 integral of density        =   0.4991562719E-12

%%%% CHARGES %%%%%%%%%%%%%%%%%%%%%%%%%%%%%%%%%%%%%%%%%%%%%%%%%%%%%%%%%%%%%%%%%%%

 total number of charges    =             33

 total charge               =     -0.0000000

%%%% DENSITY %%%%%%%%%%%%%%%%%%%%%%%%%%%%%%%%%%%%%%%%%%%%%%%%%%%%%%%%%%%%%%%%%%%

 density label              = vsoftcavity                                       

 integral of density        =    11.90976992    

%%%% DENSITY %%%%%%%%%%%%%%%%%%%%%%%%%%%%%%%%%%%%%%%%%%%%%%%%%%%%%%%%%%%%%%%%%%%

 density label              = dvtot                                             

 integral of density        =    11.90976992    

%%%% ELECTRONS %%%%%%%%%%%%%%%%%%%%%%%%%%%%%%%%%%%%%%%%%%%%%%%%%%%%%%%%%%%%%%%%%

 number of electrons        =             24

 total electronic charge    =     24.0000000

%%%% ELECTRONS %%%%%%%%%%%%%%%%%%%%%%%%%%%%%%%%%%%%%%%%%%%%%%%%%%%%%%%%%%%%%%%%%

 number of electrons        =             24

 total electronic charge    =     24.0000000

%%%% CHARGES %%%%%%%%%%%%%%%%%%%%%%%%%%%%%%%%%%%%%%%%%%%%%%%%%%%%%%%%%%%%%%%%%%%

 total number of charges    =             33

 total charge               =      0.0000000

%%%% CHARGES %%%%%%%%%%%%%%%%%%%%%%%%%%%%%%%%%%%%%%%%%%%%%%%%%%%%%%%%%%%%%%%%%%%

 total number of charges    =             33

 total charge               =      0.0000000

%%%% BOUNDARY %%%%%%%%%%%%%%%%%%%%%%%%%%%%%%%%%%%%%%%%%%%%%%%%%%%%%%%%%%%%%%%%%%

 boundary label             = solvent             
 boundary mode              = electronic          

 using the optimal SCCS function:
 rhomax                     =      0.0050000
 rhomin                     =      0.0001000

 volume of the QM region    =    640.8013651

 surface of the QM region   =    384.1934835

%%%% DENSITY %%%%%%%%%%%%%%%%%%%%%%%%%%%%%%%%%%%%%%%%%%%%%%%%%%%%%%%%%%%%%%%%%%%

 density label              = vreference                                        

 integral of density        =  -0.2625718573E-12

%%%% COMPUTE ELECTROSTATIC POTENTIAL %%%%%%%%%%%%%%%%%%%%%%%%%%%%%%%%%%%%%%%%%%%

 Warning: Bad guess with residual norm =   0.245291E+03, reset to no guess

   i |      alpha     |       pAp      |      rzold     |    delta_qm    |    delta_en    |       tol
 ---------------------------------------------------------------------------------------------------------
   1 |   0.992941E+00 |   0.928738E+02 |   0.922182E+02 |   0.118401E-01 |   0.242246E+03 |   0.100000E-04
   2 |   0.121804E+00 |   0.368064E+02 |   0.448315E+01 |   0.230577E-02 |   0.918702E+01 |   0.100000E-04
   3 |   0.214271E+00 |   0.285804E+00 |   0.612397E-01 |   0.114796E-02 |   0.227717E+01 |   0.100000E-04
   4 |   0.183692E+00 |   0.479599E-01 |   0.880984E-02 |   0.119101E-02 |   0.245116E+01 |   0.100000E-04
   5 |   0.318193E+00 |   0.715641E-02 |   0.227712E-02 |   0.760494E-03 |   0.999391E+00 |   0.100000E-04
   6 |   0.415756E+00 |   0.335241E-02 |   0.139378E-02 |   0.465780E-03 |   0.374892E+00 |   0.100000E-04
   7 |   0.582860E+00 |   0.782287E-03 |   0.455964E-03 |   0.241601E-03 |   0.100865E+00 |   0.100000E-04
   8 |   0.553002E+00 |   0.378020E-03 |   0.209045E-03 |   0.955951E-04 |   0.157912E-01 |   0.100000E-04
   9 |   0.262058E+00 |   0.297408E-03 |   0.779381E-04 |   0.484986E-04 |   0.406446E-02 |   0.100000E-04
  10 |   0.238473E+00 |   0.724750E-04 |   0.172833E-04 |   0.343554E-04 |   0.203954E-02 |   0.100000E-04
  11 |   0.213961E+00 |   0.264652E-04 |   0.566253E-05 |   0.244591E-04 |   0.103377E-02 |   0.100000E-04
  12 |   0.425433E+00 |   0.248602E-05 |   0.105764E-05 |   0.169410E-04 |   0.495930E-03 |   0.100000E-04
  13 |   0.553409E+00 |   0.726697E-06 |   0.402161E-06 |   0.773411E-05 |   0.103363E-03 |   0.100000E-04
  14 |   0.437128E+00 |   0.420980E-06 |   0.184022E-06 |   0.539440E-05 |   0.502841E-04 |   0.100000E-04
  15 |   0.457499E+00 |   0.129649E-06 |   0.593145E-07 |   0.283153E-05 |   0.138543E-04 |   0.100000E-04
  16 |   0.371486E+00 |   0.502446E-07 |   0.186652E-07 |   0.185112E-05 |   0.592127E-05 |   0.100000E-04

 Charges are converged, EXIT

%%%% DENSITY %%%%%%%%%%%%%%%%%%%%%%%%%%%%%%%%%%%%%%%%%%%%%%%%%%%%%%%%%%%%%%%%%%%

 density label              = velectrostatic                                    

 integral of density        =  -0.5082354291E-12

%%%% CHARGES %%%%%%%%%%%%%%%%%%%%%%%%%%%%%%%%%%%%%%%%%%%%%%%%%%%%%%%%%%%%%%%%%%%

 total number of charges    =             33

 total charge               =      0.0000000

%%%% DENSITY %%%%%%%%%%%%%%%%%%%%%%%%%%%%%%%%%%%%%%%%%%%%%%%%%%%%%%%%%%%%%%%%%%%

 density label              = vsoftcavity                                       

 integral of density        =    12.82347379    

%%%% DENSITY %%%%%%%%%%%%%%%%%%%%%%%%%%%%%%%%%%%%%%%%%%%%%%%%%%%%%%%%%%%%%%%%%%%

 density label              = dvtot                                             

 integral of density        =    12.82347379    

%%%% ELECTRONS %%%%%%%%%%%%%%%%%%%%%%%%%%%%%%%%%%%%%%%%%%%%%%%%%%%%%%%%%%%%%%%%%

 number of electrons        =             24

 total electronic charge    =     24.0000000

%%%% ELECTRONS %%%%%%%%%%%%%%%%%%%%%%%%%%%%%%%%%%%%%%%%%%%%%%%%%%%%%%%%%%%%%%%%%

 number of electrons        =             24

 total electronic charge    =     24.0000000

%%%% CHARGES %%%%%%%%%%%%%%%%%%%%%%%%%%%%%%%%%%%%%%%%%%%%%%%%%%%%%%%%%%%%%%%%%%%

 total number of charges    =             33

 total charge               =      0.0000000

%%%% CHARGES %%%%%%%%%%%%%%%%%%%%%%%%%%%%%%%%%%%%%%%%%%%%%%%%%%%%%%%%%%%%%%%%%%%

 total number of charges    =             33

 total charge               =      0.0000000

%%%% BOUNDARY %%%%%%%%%%%%%%%%%%%%%%%%%%%%%%%%%%%%%%%%%%%%%%%%%%%%%%%%%%%%%%%%%%

 boundary label             = solvent             
 boundary mode              = electronic          

 using the optimal SCCS function:
 rhomax                     =      0.0050000
 rhomin                     =      0.0001000

 volume of the QM region    =    640.5691523

 surface of the QM region   =    384.1935576

%%%% DENSITY %%%%%%%%%%%%%%%%%%%%%%%%%%%%%%%%%%%%%%%%%%%%%%%%%%%%%%%%%%%%%%%%%%%

 density label              = vreference                                        

 integral of density        =   0.2305974342E-12

%%%% COMPUTE ELECTROSTATIC POTENTIAL %%%%%%%%%%%%%%%%%%%%%%%%%%%%%%%%%%%%%%%%%%%

 Warning: Bad guess with residual norm =   0.253902E+03, reset to no guess

   i |      alpha     |       pAp      |      rzold     |    delta_qm    |    delta_en    |       tol
 ---------------------------------------------------------------------------------------------------------
   1 |   0.992836E+00 |   0.929401E+02 |   0.922743E+02 |   0.120448E-01 |   0.250694E+03 |   0.100000E-04
   2 |   0.121406E+00 |   0.376107E+02 |   0.456616E+01 |   0.238474E-02 |   0.982709E+01 |   0.100000E-04
   3 |   0.209849E+00 |   0.307750E+00 |   0.645810E-01 |   0.116183E-02 |   0.233252E+01 |   0.100000E-04
   4 |   0.179707E+00 |   0.530000E-01 |   0.952447E-02 |   0.121992E-02 |   0.257161E+01 |   0.100000E-04
   5 |   0.320555E+00 |   0.718827E-02 |   0.230424E-02 |   0.784030E-03 |   0.106221E+01 |   0.100000E-04
   6 |   0.419925E+00 |   0.333632E-02 |   0.140100E-02 |   0.479520E-03 |   0.397335E+00 |   0.100000E-04
   7 |   0.574133E+00 |   0.814355E-03 |   0.467548E-03 |   0.250585E-03 |   0.108506E+00 |   0.100000E-04
   8 |   0.482438E+00 |   0.470891E-03 |   0.227176E-03 |   0.126091E-03 |   0.274733E-01 |   0.100000E-04
   9 |   0.189825E+00 |   0.861645E-03 |   0.163562E-03 |   0.624314E-04 |   0.673519E-02 |   0.100000E-04
  10 |   0.263260E+00 |   0.117296E-03 |   0.308792E-04 |   0.384458E-04 |   0.255412E-02 |   0.100000E-04
  11 |   0.296947E+00 |   0.211358E-04 |   0.627621E-05 |   0.264826E-04 |   0.121190E-02 |   0.100000E-04
  12 |   0.432547E+00 |   0.262125E-05 |   0.113381E-05 |   0.187563E-04 |   0.607907E-03 |   0.100000E-04
  13 |   0.533416E+00 |   0.873210E-06 |   0.465784E-06 |   0.851137E-05 |   0.125182E-03 |   0.100000E-04
  14 |   0.438631E+00 |   0.507913E-06 |   0.222786E-06 |   0.579508E-05 |   0.580314E-04 |   0.100000E-04
  15 |   0.483353E+00 |   0.140818E-06 |   0.680649E-07 |   0.300481E-05 |   0.156019E-04 |   0.100000E-04
  16 |   0.475805E+00 |   0.397148E-07 |   0.188965E-07 |   0.184826E-05 |   0.590295E-05 |   0.100000E-04

 Charges are converged, EXIT

%%%% DENSITY %%%%%%%%%%%%%%%%%%%%%%%%%%%%%%%%%%%%%%%%%%%%%%%%%%%%%%%%%%%%%%%%%%%

 density label              = velectrostatic                                    

 integral of density        =   0.3336919218E-12

%%%% CHARGES %%%%%%%%%%%%%%%%%%%%%%%%%%%%%%%%%%%%%%%%%%%%%%%%%%%%%%%%%%%%%%%%%%%

 total number of charges    =             33

 total charge               =      0.0000000

%%%% DENSITY %%%%%%%%%%%%%%%%%%%%%%%%%%%%%%%%%%%%%%%%%%%%%%%%%%%%%%%%%%%%%%%%%%%

 density label              = vsoftcavity                                       

 integral of density        =    12.96443166    

%%%% DENSITY %%%%%%%%%%%%%%%%%%%%%%%%%%%%%%%%%%%%%%%%%%%%%%%%%%%%%%%%%%%%%%%%%%%

 density label              = dvtot                                             

 integral of density        =    12.96443166    

%%%% ELECTRONS %%%%%%%%%%%%%%%%%%%%%%%%%%%%%%%%%%%%%%%%%%%%%%%%%%%%%%%%%%%%%%%%%

 number of electrons        =             24

 total electronic charge    =     24.0000000

%%%% ELECTRONS %%%%%%%%%%%%%%%%%%%%%%%%%%%%%%%%%%%%%%%%%%%%%%%%%%%%%%%%%%%%%%%%%

 number of electrons        =             24

 total electronic charge    =     24.0000000

%%%% CHARGES %%%%%%%%%%%%%%%%%%%%%%%%%%%%%%%%%%%%%%%%%%%%%%%%%%%%%%%%%%%%%%%%%%%

 total number of charges    =             33

 total charge               =      0.0000000

%%%% CHARGES %%%%%%%%%%%%%%%%%%%%%%%%%%%%%%%%%%%%%%%%%%%%%%%%%%%%%%%%%%%%%%%%%%%

 total number of charges    =             33

 total charge               =      0.0000000

%%%% BOUNDARY %%%%%%%%%%%%%%%%%%%%%%%%%%%%%%%%%%%%%%%%%%%%%%%%%%%%%%%%%%%%%%%%%%

 boundary label             = solvent             
 boundary mode              = electronic          

 using the optimal SCCS function:
 rhomax                     =      0.0050000
 rhomin                     =      0.0001000

 volume of the QM region    =    640.5691523

 surface of the QM region   =    384.1935576

%%%% DENSITY %%%%%%%%%%%%%%%%%%%%%%%%%%%%%%%%%%%%%%%%%%%%%%%%%%%%%%%%%%%%%%%%%%%

 density label              = dvtot                                             

 integral of density        =    12.96443166    

%%%% DENSITY %%%%%%%%%%%%%%%%%%%%%%%%%%%%%%%%%%%%%%%%%%%%%%%%%%%%%%%%%%%%%%%%%%%

 density label              = vreference                                        

 integral of density        =   0.2305974342E-12

%%%% DENSITY %%%%%%%%%%%%%%%%%%%%%%%%%%%%%%%%%%%%%%%%%%%%%%%%%%%%%%%%%%%%%%%%%%%

 density label              = velectrostatic                                    

 integral of density        =   0.3336919218E-12

%%%% CHARGES %%%%%%%%%%%%%%%%%%%%%%%%%%%%%%%%%%%%%%%%%%%%%%%%%%%%%%%%%%%%%%%%%%%

 total number of charges    =             33

 total charge               =      0.0000000

%%%% DENSITY %%%%%%%%%%%%%%%%%%%%%%%%%%%%%%%%%%%%%%%%%%%%%%%%%%%%%%%%%%%%%%%%%%%

 density label              = vsoftcavity                                       

 integral of density        =    12.96443166    
