
     Program PWSCF v.6.7+ starts on 22Apr2021 at 11:46:52 

     This program is part of the open-source Quantum ESPRESSO suite
     for quantum simulation of materials; please cite
         "P. Giannozzi et al., J. Phys.:Condens. Matter 21 395502 (2009);
         "P. Giannozzi et al., J. Phys.:Condens. Matter 29 465901 (2017);
          URL http://www.quantum-espresso.org", 
     in publications or presentations arising from this work. More details at
     http://www.quantum-espresso.org/quote

     Parallel version (MPI), running on     1 processors

     MPI processes distributed on     1 nodes
     Reading input from anion-dblcell.in

     Current dimensions of program PWSCF are:
     Max number of different atomic species (ntypx) = 10
     Max number of k-points (npk) =  40000
     Max angular momentum in pseudopotentials (lmaxx) =  3
     file C.pbe-rrkjus.UPF: wavefunction(s)  2S 2P renormalized
     file H.pbe-rrkjus.UPF: wavefunction(s)  1S renormalized

     gamma-point specific algorithms are used

     Subspace diagonalization in iterative solution of the eigenvalue problem:
     a serial algorithm will be used


     G-vector sticks info
     --------------------
     sticks:   dense  smooth     PW     G-vecs:    dense   smooth      PW
     Sum        2385     949    241                87655    22119    2777



     bravais-lattice index     =            1
     lattice parameter (alat)  =      10.0000  a.u.
     unit-cell volume          =    1000.0000 (a.u.)^3
     number of atoms/cell      =            4
     number of atomic types    =            2
     number of electrons       =         8.00
     number of Kohn-Sham states=            4
     kinetic-energy cutoff     =      30.0000  Ry
     charge density cutoff     =     300.0000  Ry
     scf convergence threshold =      1.0E-03
     mixing beta               =       0.7000
     number of iterations used =            8  plain     mixing
     Exchange-correlation= SLA  PW   PBE  PBE
                           (   1   4   3   4   0   0   0)


     Environ Module
     ==============

     Plese cite
         O. Andreussi, I. Dabo and N. Marzari, J. Chem. Phys. 136, 064102 (2012)         
     in publications or presentations arising from this work.

     compensation onset threshold      =               0.1000E+03 
     static permittivity               =                    78.30 
     epsilon calculation mode          =               electronic 
     external pressure in input (GPa)  =                     0.45 
     external pressure in inter. units =               0.3059E-04 

     Electrostatic Setup
     -------------------
     electrostatic problem to solve    = generalized              
     numerical solver adopted          = cg                       
     type of auxiliary density adopted = none                     
     type of core tool for poisson     = fft                      



     celldm(1)=  10.000000  celldm(2)=   0.000000  celldm(3)=   0.000000
     celldm(4)=   0.000000  celldm(5)=   0.000000  celldm(6)=   0.000000

     crystal axes: (cart. coord. in units of alat)
               a(1) = (   1.000000   0.000000   0.000000 )  
               a(2) = (   0.000000   1.000000   0.000000 )  
               a(3) = (   0.000000   0.000000   1.000000 )  

     reciprocal axes: (cart. coord. in units 2 pi/alat)
               b(1) = (  1.000000  0.000000  0.000000 )  
               b(2) = (  0.000000  1.000000  0.000000 )  
               b(3) = (  0.000000  0.000000  1.000000 )  


     PseudoPot. # 1 for C  read from file:
     ../../../pseudo/C.pbe-rrkjus.UPF
     MD5 check sum: c9ac5a99bc85b198593446162950cd17
     Pseudo is Ultrasoft, Zval =  4.0
     Generated by new atomic code, or converted to UPF format
     Using radial grid of  627 points,  4 beta functions with: 
                l(1) =   0
                l(2) =   0
                l(3) =   1
                l(4) =   1
     Q(r) pseudized with 0 coefficients 


     PseudoPot. # 2 for H  read from file:
     ../../../pseudo/H.pbe-rrkjus.UPF
     MD5 check sum: 2d52a7f45632fd764c17cc6affed14c8
     Pseudo is Ultrasoft, Zval =  1.0
     Generated by new atomic code, or converted to UPF format
     Using radial grid of 1061 points,  2 beta functions with: 
                l(1) =   0
                l(2) =   0
     Q(r) pseudized with 0 coefficients 


     atomic species   valence    mass     pseudopotential
        C              4.00    12.00000     C ( 1.00)
        H              1.00     1.00000     H ( 1.00)

      2 Sym. Ops. (no inversion) found



   Cartesian axes

     site n.     atom                  positions (alat units)
         1           C   tau(   1) = (   0.0000000   0.0000000   0.0594130  )
         2           H   tau(   2) = (  -0.0000000   0.1963425  -0.0132281  )
         3           H   tau(   3) = (   0.1700754  -0.0982280  -0.0132281  )
         4           H   tau(   4) = (  -0.1700754  -0.0982280  -0.0132281  )

     number of k points=     1
                       cart. coord. in units 2pi/alat
        k(    1) = (   0.0000000   0.0000000   0.0000000), wk =   2.0000000

     Dense  grid:    43828 G-vectors     FFT dimensions: (  60,  60,  60)

     Smooth grid:    11060 G-vectors     FFT dimensions: (  36,  36,  36)

     Estimated max dynamical RAM per process >      69.09 MB

     Initial potential from superposition of free atoms

     starting charge    6.71133, renormalised to    8.00000
     Starting wfcs are    7 randomized atomic wfcs

     total cpu time spent up to now is        5.4 secs

     Self-consistent Calculation

     iteration #  1     ecut=    30.00 Ry     beta= 0.70
     Davidson diagonalization with overlap
     ethr =  1.00E-02,  avg # of iterations =  2.0

     add environment contribution to local potential
     polarization accuracy = 8.4E-06, # of iterations =  20

     total cpu time spent up to now is       20.9 secs

     total energy              =     -14.77455774 Ry
     estimated scf accuracy    <       0.66108068 Ry
     electrostatic embedding   =      -0.01058833 Ry
     PV energy                 =       0.00599347 Ry
     correction to one-el term =      -0.00000000 Ry

     iteration #  2     ecut=    30.00 Ry     beta= 0.70
     Davidson diagonalization with overlap
     ethr =  8.26E-03,  avg # of iterations =  2.0

     add environment contribution to local potential
     polarization accuracy = 4.8E-06, # of iterations =  20

     total cpu time spent up to now is       36.9 secs

     total energy              =     -14.98326589 Ry
     estimated scf accuracy    <       0.11737380 Ry
     electrostatic embedding   =      -0.09425541 Ry
     PV energy                 =       0.00503835 Ry
     correction to one-el term =       0.50002143 Ry

     iteration #  3     ecut=    30.00 Ry     beta= 0.70
     Davidson diagonalization with overlap
     ethr =  1.47E-03,  avg # of iterations =  2.0

     add environment contribution to local potential
     polarization accuracy = 8.8E-06, # of iterations =  20

     total cpu time spent up to now is       52.8 secs

     total energy              =     -15.01195989 Ry
     estimated scf accuracy    <       0.00576270 Ry
     electrostatic embedding   =      -0.10003446 Ry
     PV energy                 =       0.00559401 Ry
     correction to one-el term =       0.57924258 Ry

     iteration #  4     ecut=    30.00 Ry     beta= 0.70
     Davidson diagonalization with overlap
     ethr =  7.20E-05,  avg # of iterations =  5.0

     add environment contribution to local potential
     polarization accuracy = 6.9E-06, # of iterations =  21

     total cpu time spent up to now is       69.3 secs

     total energy              =     -15.01579071 Ry
     estimated scf accuracy    <       0.00129850 Ry
     electrostatic embedding   =      -0.11318773 Ry
     PV energy                 =       0.00566557 Ry
     correction to one-el term =       0.66864464 Ry

     iteration #  5     ecut=    30.00 Ry     beta= 0.70
     Davidson diagonalization with overlap
     ethr =  1.62E-05,  avg # of iterations =  2.0

     the potential shift due to the Gaussian-smeared nuclei is    -0.0055 ev

     total cpu time spent up to now is       72.0 secs

     End of self-consistent calculation

          k = 0.0000 0.0000 0.0000 (  1389 PWs)   bands (ev):

   -14.3423  -7.5207  -7.5069  -3.1234

     highest occupied level (ev):    -3.1234

!    total energy              =     -15.01646544 Ry
     estimated scf accuracy    <       0.00011756 Ry

     The total energy is the sum of the following terms:
     one-electron contribution =     -21.48063928 Ry
     hartree contribution      =      12.23092092 Ry
     xc contribution           =      -6.00090961 Ry
     ewald contribution        =      -0.30191319 Ry
     electrostatic embedding   =      -0.11755860 Ry
     PV energy                 =       0.00571277 Ry
     correction to one-el term =       0.64792155 Ry

     convergence has been achieved in   5 iterations
 forces lc
       1   -0.0033   -0.0065   -0.2151
       2    0.0003   -0.3497    0.1001
       3   -0.2634    0.2005    0.0558
       4    0.2086    0.1949    0.0678

     Forces acting on atoms (cartesian axes, Ry/au):

     atom    1 type  1   force =     0.00000000   -0.01281050   -0.10476651
     atom    2 type  2   force =     0.00000000   -0.41670124    0.05987579
     atom    3 type  2   force =    -0.28364465    0.21475587    0.02244536
     atom    4 type  2   force =     0.28364465    0.21475587    0.02244536

     Total force =     0.665223     Total SCF correction =     0.008794

     Writing output data file ./tmp/pwscf.save/

     init_run     :      4.92s CPU      5.38s WALL (       1 calls)
     electrons    :     63.26s CPU     66.56s WALL (       1 calls)
     forces       :      0.76s CPU      0.85s WALL (       1 calls)

     Called by init_run:
     wfcinit      :      0.00s CPU      0.01s WALL (       1 calls)
     potinit      :      2.42s CPU      2.59s WALL (       1 calls)
     hinit0       :      1.97s CPU      2.05s WALL (       1 calls)

     Called by electrons:
     c_bands      :      0.04s CPU      0.08s WALL (       5 calls)
     sum_band     :      0.23s CPU      0.17s WALL (       5 calls)
     v_of_rho     :      0.43s CPU      0.50s WALL (       6 calls)
     newd         :      0.12s CPU      0.16s WALL (       6 calls)
     mix_rho      :      0.03s CPU      0.03s WALL (       5 calls)

     Called by c_bands:
     init_us_2    :      0.00s CPU      0.00s WALL (      11 calls)
     regterg      :      0.04s CPU      0.08s WALL (       5 calls)

     Called by *egterg:
     rdiaghg      :      0.00s CPU      0.00s WALL (      18 calls)
     h_psi        :      0.03s CPU      0.06s WALL (      19 calls)
     s_psi        :      0.00s CPU      0.01s WALL (      19 calls)
     g_psi        :      0.00s CPU      0.00s WALL (      13 calls)

     Called by h_psi:
     h_psi:calbec :      0.00s CPU      0.00s WALL (      19 calls)
     vloc_psi     :      0.03s CPU      0.03s WALL (      19 calls)
     add_vuspsi   :      0.00s CPU      0.03s WALL (      19 calls)

     General routines
     calbec       :      0.00s CPU      0.00s WALL (      28 calls)
     fft          :     41.01s CPU     42.28s WALL (     315 calls)
     ffts         :      0.01s CPU      0.01s WALL (      11 calls)
     fftw         :      0.02s CPU      0.02s WALL (      80 calls)
     interpolate  :      0.02s CPU      0.03s WALL (       6 calls)

     Parallel routines
     fft_scatt_xy :      4.35s CPU      4.36s WALL (     247 calls)
     fft_scatt_yz :      5.99s CPU      6.01s WALL (     247 calls)

     Environ routines
     calc_eelect  :      0.04s CPU      0.04s WALL (      10 calls)
     calc_velect  :     42.89s CPU     44.45s WALL (       8 calls)
     dielectric   :      1.06s CPU      1.23s WALL (       7 calls)
     calc_felect  :      0.70s CPU      0.79s WALL (       1 calls)

     PWSCF        :   1m 8.97s CPU   1m12.93s WALL


   This run was terminated on:  11:48: 4  22Apr2021            

=------------------------------------------------------------------------------=
   JOB DONE.
=------------------------------------------------------------------------------=
 Calling electrostatic_initbase now
 electrolyte_distance:    0.0000000000000000     
 sc_distance:    0.0000000000000000     
 velectrostatic started
 vreference created

%%%% IONS %%%%%%%%%%%%%%%%%%%%%%%%%%%%%%%%%%%%%%%%%%%%%%%%%%%%%%%%%%%%%%%%%%%%%%
 number of ions             =          4
 ionic center of charge     =     -0.0000000    -0.0000162     0.0282811
 total ionic charge         =     -7.0000000
 ionic dipole               =      0.0000000     0.0000000     0.0000000
 ionic quadrupole (pc)      =     -5.7851250    -5.7847859    -0.9045815
 ionic quadrupole (gauss)   =     -6.6601250    -6.6597859    -1.7795815
 ion   1 type =  1 coordinates =      0.0000000     0.0000000     0.5941299
 ion   2 type =  2 coordinates =     -0.0000000     1.9634254    -0.1322808
 ion   3 type =  2 coordinates =      1.7007535    -0.9822796    -0.1322808
 ion   4 type =  2 coordinates =     -1.7007535    -0.9822796    -0.1322808

%%%% SYSTEM %%%%%%%%%%%%%%%%%%%%%%%%%%%%%%%%%%%%%%%%%%%%%%%%%%%%%%%%%%%%%%%%%%%%
 system is built from all present ionic types
 system defined dimension   =  0 
 system defined axis        =  3 
 system center              =     -0.0000000    -0.0000162     0.0282811 
 system width               =      0.2007341 

%%%% IONS %%%%%%%%%%%%%%%%%%%%%%%%%%%%%%%%%%%%%%%%%%%%%%%%%%%%%%%%%%%%%%%%%%%%%%
 number of ions             =          4
 ionic center of charge     =     -0.0000000    -0.0000162     0.0282811
 total ionic charge         =     -7.0000000
 ionic dipole               =      0.0000000     0.0000000     0.0000000
 ionic quadrupole (pc)      =     -5.7851250    -5.7847859    -0.9045815
 ionic quadrupole (gauss)   =     -6.6601250    -6.6597859    -1.7795815
 ion   1 type =  1 coordinates =      0.0000000     0.0000000     0.5941299
 ion   2 type =  2 coordinates =     -0.0000000     1.9634254    -0.1322808
 ion   3 type =  2 coordinates =      1.7007535    -0.9822796    -0.1322808
 ion   4 type =  2 coordinates =     -1.7007535    -0.9822796    -0.1322808

%%%% SYSTEM %%%%%%%%%%%%%%%%%%%%%%%%%%%%%%%%%%%%%%%%%%%%%%%%%%%%%%%%%%%%%%%%%%%%
 system is built from all present ionic types
 system defined dimension   =  0 
 system defined axis        =  3 
 system center              =     -0.0000000    -0.0000162     0.0282811 
 system width               =      0.2007341 

%%%% ELECTRONS %%%%%%%%%%%%%%%%%%%%%%%%%%%%%%%%%%%%%%%%%%%%%%%%%%%%%%%%%%%%%%%%%
 number of electrons        =          8
 total electronic charge    =      8.0000000

%%%% ELECTRONS %%%%%%%%%%%%%%%%%%%%%%%%%%%%%%%%%%%%%%%%%%%%%%%%%%%%%%%%%%%%%%%%%
 number of electrons        =          8
 total electronic charge    =      8.0000000

%%%% BOUNDARY %%%%%%%%%%%%%%%%%%%%%%%%%%%%%%%%%%%%%%%%%%%%%%%%%%%%%%%%%%%%%%%%%%
 boundary label             = solvent              
 boundary mode              = electronic           
 boundary is built as a function of a smooth density
 function type              =  2 
 using the modified SCCS function with parameters 
 rhomax                     =      0.0155000 
 rhomin                     =      0.0024000 
 volume of the QM region    =    195.9265040 
 surface of the QM region   =    165.6187451 

%%%% DIELECTRIC %%%%%%%%%%%%%%%%%%%%%%%%%%%%%%%%%%%%%%%%%%%%%%%%%%%%%%%%%%%%%%%%%
 dielectric build on homogeneous background
 environment bulk permitt.  =     78.3000000 
 dielectric flags
 need gradient              =  F 
 need factor depend. sqrt   =  T 
 total dielectric charge    =      0.0000000

%%%% DENSITY %%%%%%%%%%%%%%%%%%%%%%%%%%%%%%%%%%%%%%%%%%%%%%%%%%%%%%%%%%%%%%%%%%%
 density label              = dvtot                                                                           
 integral of density        =      0.000000000    

%%%% DENSITY %%%%%%%%%%%%%%%%%%%%%%%%%%%%%%%%%%%%%%%%%%%%%%%%%%%%%%%%%%%%%%%%%%%
 density label              = vreference                                                                      
 integral of density        =      0.000000000    

%%%% DENSITY %%%%%%%%%%%%%%%%%%%%%%%%%%%%%%%%%%%%%%%%%%%%%%%%%%%%%%%%%%%%%%%%%%%
 density label              = velectrostatic                                                                  
 integral of density        =      0.000000000    

%%%% CHARGES %%%%%%%%%%%%%%%%%%%%%%%%%%%%%%%%%%%%%%%%%%%%%%%%%%%%%%%%%%%%%%%%%%%
 total number of charges    =         12
 total charge               =      1.0000000

%%%% DENSITY %%%%%%%%%%%%%%%%%%%%%%%%%%%%%%%%%%%%%%%%%%%%%%%%%%%%%%%%%%%%%%%%%%%
 density label              = vsoftcavity                                                                     
 integral of density        =      0.000000000    

%%%% ELECTRONS %%%%%%%%%%%%%%%%%%%%%%%%%%%%%%%%%%%%%%%%%%%%%%%%%%%%%%%%%%%%%%%%%
 number of electrons        =          8
 total electronic charge    =      8.0000000

%%%% ELECTRONS %%%%%%%%%%%%%%%%%%%%%%%%%%%%%%%%%%%%%%%%%%%%%%%%%%%%%%%%%%%%%%%%%
 number of electrons        =          8
 total electronic charge    =      8.0000000

%%%% BOUNDARY %%%%%%%%%%%%%%%%%%%%%%%%%%%%%%%%%%%%%%%%%%%%%%%%%%%%%%%%%%%%%%%%%%
 boundary label             = solvent              
 boundary mode              = electronic           
 boundary is built as a function of a smooth density
 function type              =  2 
 using the modified SCCS function with parameters 
 rhomax                     =      0.0155000 
 rhomin                     =      0.0024000 
 volume of the QM region    =    164.7037570 
 surface of the QM region   =    148.1901544 

%%%% DIELECTRIC %%%%%%%%%%%%%%%%%%%%%%%%%%%%%%%%%%%%%%%%%%%%%%%%%%%%%%%%%%%%%%%%%
 dielectric build on homogeneous background
 environment bulk permitt.  =     78.3000000 
 dielectric flags
 need gradient              =  F 
 need factor depend. sqrt   =  T 
 total dielectric charge    =      0.0000000

%%%% DENSITY %%%%%%%%%%%%%%%%%%%%%%%%%%%%%%%%%%%%%%%%%%%%%%%%%%%%%%%%%%%%%%%%%%%
 density label              = vreference                                                                      
 integral of density        =     0.2010901733E-12

%%%% COMPUTE ELECTROSTATIC POTENTIAL %%%%%%%%%%%%%%%%%%%%%%%%%%%%%%%%%%%%%%%%%%%
 Iteration #          1
  pAp =    20.747301186218987       rzold =    20.164486443758257       alpha =   0.97190888890898952     
 delta_qm =   0.117903E-01 delta_en =   0.810712E+03 tol =   0.100000E-04
 Iteration #          2
  pAp =    58.198743595967713       rzold =    4.7215138115904391       alpha =    8.1127418220031264E-002
 delta_qm =   0.564850E-02 delta_en =   0.186073E+03 tol =   0.100000E-04
 Iteration #          3
  pAp =    13.763162491484797       rzold =    1.1665284896287837       alpha =    8.4757299810309536E-002
 delta_qm =   0.173561E-02 delta_en =   0.175680E+02 tol =   0.100000E-04
 Iteration #          4
  pAp =   0.39361663709955774       rzold =    5.6516046334511044E-002  alpha =   0.14358144704187492     
 delta_qm =   0.969212E-03 delta_en =   0.547842E+01 tol =   0.100000E-04
 Iteration #          5
  pAp =    5.0769067447694067E-003  rzold =    1.9743617612873717E-003  alpha =   0.38889068886709427     
 delta_qm =   0.758451E-03 delta_en =   0.335485E+01 tol =   0.100000E-04
 Iteration #          6
  pAp =    2.0586841072139160E-003  rzold =    1.1047642616996674E-003  alpha =   0.53663612490542845     
 delta_qm =   0.550514E-03 delta_en =   0.176748E+01 tol =   0.100000E-04
 Iteration #          7
  pAp =    1.9193231350502445E-003  rzold =    6.3463520256519263E-004  alpha =   0.33065573533483145     
 delta_qm =   0.481125E-03 delta_en =   0.135000E+01 tol =   0.100000E-04
 Iteration #          8
  pAp =    2.8099935997275482E-003  rzold =    9.3169693349967652E-004  alpha =   0.33156550021680198     
 delta_qm =   0.336518E-03 delta_en =   0.660442E+00 tol =   0.100000E-04
 Iteration #          9
  pAp =    6.9271118631783403E-004  rzold =    4.7398163971451801E-004  alpha =   0.68424135350550386     
 delta_qm =   0.133209E-03 delta_en =   0.103487E+00 tol =   0.100000E-04
 Iteration #         10
  pAp =    2.6254852491236762E-004  rzold =    7.6961502852482822E-005  alpha =   0.29313248999654717     
 delta_qm =   0.101054E-03 delta_en =   0.595554E-01 tol =   0.100000E-04
 Iteration #         11
  pAp =    1.5154076887134976E-005  rzold =    8.6486630144399377E-006  alpha =   0.57071526552582053     
 delta_qm =   0.644164E-04 delta_en =   0.241998E-01 tol =   0.100000E-04
 Iteration #         12
  pAp =    8.5820064592042010E-006  rzold =    4.5630226122768922E-006  alpha =   0.53169647843635104     
 delta_qm =   0.349318E-04 delta_en =   0.711639E-02 tol =   0.100000E-04
 Iteration #         13
  pAp =    1.8417110223365245E-005  rzold =    5.0043619350682060E-006  alpha =   0.27172351549046603     
 delta_qm =   0.226608E-04 delta_en =   0.299480E-02 tol =   0.100000E-04
 Iteration #         14
  pAp =    1.1005435949032052E-005  rzold =    2.2482614144622099E-006  alpha =   0.20428644761318596     
 delta_qm =   0.188335E-04 delta_en =   0.206861E-02 tol =   0.100000E-04
 Iteration #         15
  pAp =    2.7399382738739093E-006  rzold =    1.1209109040762680E-006  alpha =   0.40910078696460872     
 delta_qm =   0.103788E-04 delta_en =   0.628218E-03 tol =   0.100000E-04
 Iteration #         16
  pAp =    7.7966401439132471E-007  rzold =    3.3125370162929469E-007  alpha =   0.42486724475529486     
 delta_qm =   0.523826E-05 delta_en =   0.160026E-03 tol =   0.100000E-04
 Iteration #         17
  pAp =    4.0927916643681252E-007  rzold =    1.0740379370252036E-007  alpha =   0.26242184433079890     
 delta_qm =   0.378153E-05 delta_en =   0.833973E-04 tol =   0.100000E-04
 Iteration #         18
  pAp =    1.2394693605484310E-007  rzold =    2.4111273756778702E-008  alpha =   0.19452900187956343     
 delta_qm =   0.338351E-05 delta_en =   0.667656E-04 tol =   0.100000E-04
 Iteration #         19
  pAp =    3.0761336815347822E-007  rzold =    4.1511081465271277E-008  alpha =   0.13494563553739986     
 delta_qm =   0.258142E-05 delta_en =   0.388630E-04 tol =   0.100000E-04
 Iteration #         20
  pAp =    1.0972557275389977E-008  rzold =    1.0050150148305529E-008  alpha =   0.91593508204752894     
 delta_qm =   0.119966E-05 delta_en =   0.839330E-05 tol =   0.100000E-04
 Charges are converged, EXIT

%%%% DENSITY %%%%%%%%%%%%%%%%%%%%%%%%%%%%%%%%%%%%%%%%%%%%%%%%%%%%%%%%%%%%%%%%%%%
 density label              = velectrostatic                                                                  
 integral of density        =    -0.1412520214E-11

%%%% CHARGES %%%%%%%%%%%%%%%%%%%%%%%%%%%%%%%%%%%%%%%%%%%%%%%%%%%%%%%%%%%%%%%%%%%
 total number of charges    =         12
 total charge               =      1.0000000

%%%% DENSITY %%%%%%%%%%%%%%%%%%%%%%%%%%%%%%%%%%%%%%%%%%%%%%%%%%%%%%%%%%%%%%%%%%%
 density label              = vsoftcavity                                                                     
 integral of density        =      3.952035607    

%%%% DENSITY %%%%%%%%%%%%%%%%%%%%%%%%%%%%%%%%%%%%%%%%%%%%%%%%%%%%%%%%%%%%%%%%%%%
 density label              = dvtot                                                                           
 integral of density        =     -31.97802322    

%%%% ELECTRONS %%%%%%%%%%%%%%%%%%%%%%%%%%%%%%%%%%%%%%%%%%%%%%%%%%%%%%%%%%%%%%%%%
 number of electrons        =          8
 total electronic charge    =      8.0000000

%%%% ELECTRONS %%%%%%%%%%%%%%%%%%%%%%%%%%%%%%%%%%%%%%%%%%%%%%%%%%%%%%%%%%%%%%%%%
 number of electrons        =          8
 total electronic charge    =      8.0000000

%%%% BOUNDARY %%%%%%%%%%%%%%%%%%%%%%%%%%%%%%%%%%%%%%%%%%%%%%%%%%%%%%%%%%%%%%%%%%
 boundary label             = solvent              
 boundary mode              = electronic           
 boundary is built as a function of a smooth density
 function type              =  2 
 using the modified SCCS function with parameters 
 rhomax                     =      0.0155000 
 rhomin                     =      0.0024000 
 volume of the QM region    =    182.8683487 
 surface of the QM region   =    158.6477569 

%%%% DIELECTRIC %%%%%%%%%%%%%%%%%%%%%%%%%%%%%%%%%%%%%%%%%%%%%%%%%%%%%%%%%%%%%%%%%
 dielectric build on homogeneous background
 environment bulk permitt.  =     78.3000000 
 dielectric flags
 need gradient              =  F 
 need factor depend. sqrt   =  T 
 total dielectric charge    =     -0.9867921

%%%% DENSITY %%%%%%%%%%%%%%%%%%%%%%%%%%%%%%%%%%%%%%%%%%%%%%%%%%%%%%%%%%%%%%%%%%%
 density label              = vreference                                                                      
 integral of density        =    -0.1352354442E-12

%%%% COMPUTE ELECTROSTATIC POTENTIAL %%%%%%%%%%%%%%%%%%%%%%%%%%%%%%%%%%%%%%%%%%%
 Warning: bad guess with residual norm =   0.740276E+03, reset to no guess
 Iteration #          1
  pAp =    21.927507573623245       rzold =    21.341581602011228       alpha =   0.97327895249176288     
 delta_qm =   0.109720E-01 delta_en =   0.702082E+03 tol =   0.100000E-04
 Iteration #          2
  pAp =    77.464337626830371       rzold =    5.5335210015555187       alpha =    7.1433141637539041E-002
 delta_qm =   0.546561E-02 delta_en =   0.174219E+03 tol =   0.100000E-04
 Iteration #          3
  pAp =    9.8624542765029055       rzold =   0.99387406267856671       alpha =   0.10077350270170085     
 delta_qm =   0.144596E-02 delta_en =   0.121935E+02 tol =   0.100000E-04
 Iteration #          4
  pAp =   0.24730304181942547       rzold =    3.7053241206900962E-002  alpha =   0.14982929823384994     
 delta_qm =   0.885203E-03 delta_en =   0.456987E+01 tol =   0.100000E-04
 Iteration #          5
  pAp =    2.3007913924137468E-003  rzold =    1.2952954465725640E-003  alpha =   0.56297822168644207     
 delta_qm =   0.653473E-03 delta_en =   0.249042E+01 tol =   0.100000E-04
 Iteration #          6
  pAp =    1.9634806021590701E-003  rzold =    9.8140162451946763E-004  alpha =   0.49982751214364174     
 delta_qm =   0.502439E-03 delta_en =   0.147226E+01 tol =   0.100000E-04
 Iteration #          7
  pAp =    2.0793468496748532E-003  rzold =    6.3909595176468053E-004  alpha =   0.30735418281207666     
 delta_qm =   0.428679E-03 delta_en =   0.107172E+01 tol =   0.100000E-04
 Iteration #          8
  pAp =    2.2236239721425063E-003  rzold =    8.5122475656254149E-004  alpha =   0.38280966891284651     
 delta_qm =   0.244088E-03 delta_en =   0.347465E+00 tol =   0.100000E-04
 Iteration #          9
  pAp =    8.3902391601825175E-004  rzold =    4.2094427819505068E-004  alpha =   0.50170712676787832     
 delta_qm =   0.128882E-03 delta_en =   0.968731E-01 tol =   0.100000E-04
 Iteration #         10
  pAp =    1.5318940622651645E-004  rzold =    4.6739478442880753E-005  alpha =   0.30510907767191503     
 delta_qm =   0.102000E-03 delta_en =   0.606767E-01 tol =   0.100000E-04
 Iteration #         11
  pAp =    1.5563788497052268E-005  rzold =    8.7912464119125362E-006  alpha =   0.56485260086755684     
 delta_qm =   0.671664E-04 delta_en =   0.263101E-01 tol =   0.100000E-04
 Iteration #         12
  pAp =    2.2832018643488619E-005  rzold =    8.9879975098578973E-006  alpha =   0.39365759332108602     
 delta_qm =   0.371743E-04 delta_en =   0.805939E-02 tol =   0.100000E-04
 Iteration #         13
  pAp =    1.1663428821846838E-005  rzold =    4.9727144548975661E-006  alpha =   0.42635099256430875     
 delta_qm =   0.221168E-04 delta_en =   0.285273E-02 tol =   0.100000E-04
 Iteration #         14
  pAp =    1.8686004835852764E-005  rzold =    2.9702076701114044E-006  alpha =   0.15895359635209333     
 delta_qm =   0.179596E-04 delta_en =   0.188109E-02 tol =   0.100000E-04
 Iteration #         15
  pAp =    1.7391257278578541E-006  rzold =    8.7803945630873195E-007  alpha =   0.50487405380992545     
 delta_qm =   0.868997E-05 delta_en =   0.440407E-03 tol =   0.100000E-04
 Iteration #         16
  pAp =    6.4605423071043463E-007  rzold =    2.4654780119747034E-007  alpha =   0.38162090653961606     
 delta_qm =   0.521925E-05 delta_en =   0.158867E-03 tol =   0.100000E-04
 Iteration #         17
  pAp =    5.4158718338512430E-007  rzold =    8.8771386454167981E-008  alpha =   0.16390968837060232     
 delta_qm =   0.445114E-05 delta_en =   0.115547E-03 tol =   0.100000E-04
 Iteration #         18
  pAp =    8.3217871170973908E-007  rzold =    8.9811538440944973E-008  alpha =   0.10792337892953804     
 delta_qm =   0.376437E-05 delta_en =   0.826422E-04 tol =   0.100000E-04
 Iteration #         19
  pAp =    2.5755223709382202E-008  rzold =    1.6693056379157461E-008  alpha =   0.64814255032374102     
 delta_qm =   0.227772E-05 delta_en =   0.302564E-04 tol =   0.100000E-04
 Iteration #         20
  pAp =    1.3898304450157113E-008  rzold =    1.1220263879319228E-008  alpha =   0.80731170622704185     
 delta_qm =   0.909773E-06 delta_en =   0.482707E-05 tol =   0.100000E-04
 Charges are converged, EXIT

%%%% DENSITY %%%%%%%%%%%%%%%%%%%%%%%%%%%%%%%%%%%%%%%%%%%%%%%%%%%%%%%%%%%%%%%%%%%
 density label              = velectrostatic                                                                  
 integral of density        =    -0.7067549580E-11

%%%% CHARGES %%%%%%%%%%%%%%%%%%%%%%%%%%%%%%%%%%%%%%%%%%%%%%%%%%%%%%%%%%%%%%%%%%%
 total number of charges    =         12
 total charge               =      1.0000000

%%%% DENSITY %%%%%%%%%%%%%%%%%%%%%%%%%%%%%%%%%%%%%%%%%%%%%%%%%%%%%%%%%%%%%%%%%%%
 density label              = vsoftcavity                                                                     
 integral of density        =      3.488914546    

%%%% DENSITY %%%%%%%%%%%%%%%%%%%%%%%%%%%%%%%%%%%%%%%%%%%%%%%%%%%%%%%%%%%%%%%%%%%
 density label              = dvtot                                                                           
 integral of density        =     -37.44262288    

%%%% ELECTRONS %%%%%%%%%%%%%%%%%%%%%%%%%%%%%%%%%%%%%%%%%%%%%%%%%%%%%%%%%%%%%%%%%
 number of electrons        =          8
 total electronic charge    =      8.0000000

%%%% ELECTRONS %%%%%%%%%%%%%%%%%%%%%%%%%%%%%%%%%%%%%%%%%%%%%%%%%%%%%%%%%%%%%%%%%
 number of electrons        =          8
 total electronic charge    =      8.0000000

%%%% BOUNDARY %%%%%%%%%%%%%%%%%%%%%%%%%%%%%%%%%%%%%%%%%%%%%%%%%%%%%%%%%%%%%%%%%%
 boundary label             = solvent              
 boundary mode              = electronic           
 boundary is built as a function of a smooth density
 function type              =  2 
 using the modified SCCS function with parameters 
 rhomax                     =      0.0155000 
 rhomin                     =      0.0024000 
 volume of the QM region    =    185.2074295 
 surface of the QM region   =    159.9588018 

%%%% DIELECTRIC %%%%%%%%%%%%%%%%%%%%%%%%%%%%%%%%%%%%%%%%%%%%%%%%%%%%%%%%%%%%%%%%%
 dielectric build on homogeneous background
 environment bulk permitt.  =     78.3000000 
 dielectric flags
 need gradient              =  F 
 need factor depend. sqrt   =  T 
 total dielectric charge    =     -0.9864169

%%%% DENSITY %%%%%%%%%%%%%%%%%%%%%%%%%%%%%%%%%%%%%%%%%%%%%%%%%%%%%%%%%%%%%%%%%%%
 density label              = vreference                                                                      
 integral of density        =     0.8742595125E-13

%%%% COMPUTE ELECTROSTATIC POTENTIAL %%%%%%%%%%%%%%%%%%%%%%%%%%%%%%%%%%%%%%%%%%%
 Warning: bad guess with residual norm =   0.127315E+04, reset to no guess
 Iteration #          1
  pAp =    22.253910878339465       rzold =    21.301944732420026       alpha =   0.95722252366679417     
 delta_qm =   0.141563E-01 delta_en =   0.116874E+04 tol =   0.100000E-04
 Iteration #          2
  pAp =    157.49322389877713       rzold =    10.205669566217765       alpha =    6.4800689919060114E-002
 delta_qm =   0.677526E-02 delta_en =   0.267713E+03 tol =   0.100000E-04
 Iteration #          3
  pAp =    12.398168401794699       rzold =    1.3381251916331913       alpha =   0.10792926408706392     
 delta_qm =   0.159973E-02 delta_en =   0.149249E+02 tol =   0.100000E-04
 Iteration #          4
  pAp =   0.31230976080605666       rzold =    4.6838966029203025E-002  alpha =   0.14997599149099239     
 delta_qm =   0.886406E-03 delta_en =   0.458229E+01 tol =   0.100000E-04
 Iteration #          5
  pAp =    2.7799003342522900E-003  rzold =    1.4920815220853425E-003  alpha =   0.53673921460449325     
 delta_qm =   0.677305E-03 delta_en =   0.267538E+01 tol =   0.100000E-04
 Iteration #          6
  pAp =    2.0308212042998500E-003  rzold =    1.0270741140938858E-003  alpha =   0.50574324904588630     
 delta_qm =   0.539287E-03 delta_en =   0.169612E+01 tol =   0.100000E-04
 Iteration #          7
  pAp =    6.5252039884255454E-004  rzold =    4.8545856492828116E-004  alpha =   0.74397454208234881     
 delta_qm =   0.359087E-03 delta_en =   0.751999E+00 tol =   0.100000E-04
 Iteration #          8
  pAp =    1.7810202281610267E-003  rzold =    5.9671845275760863E-004  alpha =   0.33504305191061412     
 delta_qm =   0.250109E-03 delta_en =   0.364819E+00 tol =   0.100000E-04
 Iteration #          9
  pAp =    3.1849247094059853E-003  rzold =    7.4779538740343203E-004  alpha =   0.23479217112887482     
 delta_qm =   0.148463E-03 delta_en =   0.128544E+00 tol =   0.100000E-04
 Iteration #         10
  pAp =    1.9121012210217514E-004  rzold =    5.6635238149929040E-005  alpha =   0.29619372409409062     
 delta_qm =   0.118929E-03 delta_en =   0.824883E-01 tol =   0.100000E-04
 Iteration #         11
  pAp =    2.6739638755120160E-005  rzold =    1.2564391909426961E-005  alpha =   0.46987889494285356     
 delta_qm =   0.850056E-04 delta_en =   0.421418E-01 tol =   0.100000E-04
 Iteration #         12
  pAp =    2.5786334849976160E-005  rzold =    1.1689476171303968E-005  alpha =   0.45332057616225269     
 delta_qm =   0.451904E-04 delta_en =   0.119099E-01 tol =   0.100000E-04
 Iteration #         13
  pAp =    1.2680803327750448E-005  rzold =    6.5386935220205954E-006  alpha =   0.51563716848375318     
 delta_qm =   0.238560E-04 delta_en =   0.331905E-02 tol =   0.100000E-04
 Iteration #         14
  pAp =    3.3640808869952836E-006  rzold =    1.5429731743774902E-006  alpha =   0.45866113990964014     
 delta_qm =   0.161449E-04 delta_en =   0.152015E-02 tol =   0.100000E-04
 Iteration #         15
  pAp =    9.0732606111577501E-006  rzold =    1.5455875588887674E-006  alpha =   0.17034532844654510     
 delta_qm =   0.112582E-04 delta_en =   0.739190E-03 tol =   0.100000E-04
 Iteration #         16
  pAp =    1.2099884824623279E-006  rzold =    4.0943902283821194E-007  alpha =   0.33838257865480098     
 delta_qm =   0.677283E-05 delta_en =   0.267521E-03 tol =   0.100000E-04
 Iteration #         17
  pAp =    2.0456449867170666E-006  rzold =    1.9974466950899892E-007  alpha =    9.7643858443667297E-002
 delta_qm =   0.600134E-05 delta_en =   0.210045E-03 tol =   0.100000E-04
 Iteration #         18
  pAp =    6.5953717894669968E-007  rzold =    1.1359769464987229E-007  alpha =   0.17223850038490804     
 delta_qm =   0.489061E-05 delta_en =   0.139490E-03 tol =   0.100000E-04
 Iteration #         19
  pAp =    3.8886824707749880E-008  rzold =    2.5788782927939999E-008  alpha =   0.66317533307882737     
 delta_qm =   0.303527E-05 delta_en =   0.537294E-04 tol =   0.100000E-04
 Iteration #         20
  pAp =    2.1804698389764638E-008  rzold =    1.7201486664030631E-008  alpha =   0.78888899798335188     
 delta_qm =   0.122959E-05 delta_en =   0.881735E-05 tol =   0.100000E-04
 Charges are converged, EXIT

%%%% DENSITY %%%%%%%%%%%%%%%%%%%%%%%%%%%%%%%%%%%%%%%%%%%%%%%%%%%%%%%%%%%%%%%%%%%
 density label              = velectrostatic                                                                  
 integral of density        =     0.1245389583E-11

%%%% CHARGES %%%%%%%%%%%%%%%%%%%%%%%%%%%%%%%%%%%%%%%%%%%%%%%%%%%%%%%%%%%%%%%%%%%
 total number of charges    =         12
 total charge               =      1.0000000

%%%% DENSITY %%%%%%%%%%%%%%%%%%%%%%%%%%%%%%%%%%%%%%%%%%%%%%%%%%%%%%%%%%%%%%%%%%%
 density label              = vsoftcavity                                                                     
 integral of density        =      4.212151877    

%%%% DENSITY %%%%%%%%%%%%%%%%%%%%%%%%%%%%%%%%%%%%%%%%%%%%%%%%%%%%%%%%%%%%%%%%%%%
 density label              = dvtot                                                                           
 integral of density        =     -34.80799647    

%%%% ELECTRONS %%%%%%%%%%%%%%%%%%%%%%%%%%%%%%%%%%%%%%%%%%%%%%%%%%%%%%%%%%%%%%%%%
 number of electrons        =          8
 total electronic charge    =      8.0000000

%%%% ELECTRONS %%%%%%%%%%%%%%%%%%%%%%%%%%%%%%%%%%%%%%%%%%%%%%%%%%%%%%%%%%%%%%%%%
 number of electrons        =          8
 total electronic charge    =      8.0000000

%%%% BOUNDARY %%%%%%%%%%%%%%%%%%%%%%%%%%%%%%%%%%%%%%%%%%%%%%%%%%%%%%%%%%%%%%%%%%
 boundary label             = solvent              
 boundary mode              = electronic           
 boundary is built as a function of a smooth density
 function type              =  2 
 using the modified SCCS function with parameters 
 rhomax                     =      0.0155000 
 rhomin                     =      0.0024000 
 volume of the QM region    =    186.7503711 
 surface of the QM region   =    160.7518405 

%%%% DIELECTRIC %%%%%%%%%%%%%%%%%%%%%%%%%%%%%%%%%%%%%%%%%%%%%%%%%%%%%%%%%%%%%%%%%
 dielectric build on homogeneous background
 environment bulk permitt.  =     78.3000000 
 dielectric flags
 need gradient              =  F 
 need factor depend. sqrt   =  T 
 total dielectric charge    =     -0.9863516

%%%% DENSITY %%%%%%%%%%%%%%%%%%%%%%%%%%%%%%%%%%%%%%%%%%%%%%%%%%%%%%%%%%%%%%%%%%%
 density label              = vreference                                                                      
 integral of density        =    -0.1997065065E-12

%%%% COMPUTE ELECTROSTATIC POTENTIAL %%%%%%%%%%%%%%%%%%%%%%%%%%%%%%%%%%%%%%%%%%%
 Warning: bad guess with residual norm =   0.114069E+04, reset to no guess
 Iteration #          1
  pAp =    22.266448906801863       rzold =    21.328447885334736       alpha =   0.95787379364382663     
 delta_qm =   0.134100E-01 delta_en =   0.104876E+04 tol =   0.100000E-04
 Iteration #          2
  pAp =    138.87671362239868       rzold =    9.3967079948313224       alpha =    6.7662228963601981E-002
 delta_qm =   0.706781E-02 delta_en =   0.291331E+03 tol =   0.100000E-04
 Iteration #          3
  pAp =    14.235434052096904       rzold =    1.4748745036144433       alpha =   0.10360586816087927     
 delta_qm =   0.167859E-02 delta_en =   0.164325E+02 tol =   0.100000E-04
 Iteration #          4
  pAp =   0.33094152850340158       rzold =    4.9218894023342480E-002  alpha =   0.14872383724678598     
 delta_qm =   0.891565E-03 delta_en =   0.463579E+01 tol =   0.100000E-04
 Iteration #          5
  pAp =    2.6637808111850715E-003  rzold =    1.5079527734885663E-003  alpha =   0.56609491560144665     
 delta_qm =   0.659579E-03 delta_en =   0.253718E+01 tol =   0.100000E-04
 Iteration #          6
  pAp =    2.0635443539368660E-003  rzold =    1.0083234264596547E-003  alpha =   0.48863666270897332     
 delta_qm =   0.530055E-03 delta_en =   0.163855E+01 tol =   0.100000E-04
 Iteration #          7
  pAp =    6.9645532828520643E-004  rzold =    4.8742162882297533E-004  alpha =   0.69986057831317305     
 delta_qm =   0.357790E-03 delta_en =   0.746576E+00 tol =   0.100000E-04
 Iteration #          8
  pAp =    1.9974299270788479E-003  rzold =    6.1332881435820306E-004  alpha =   0.30705898917573998     
 delta_qm =   0.259678E-03 delta_en =   0.393267E+00 tol =   0.100000E-04
 Iteration #          9
  pAp =    2.7390324968202223E-003  rzold =    7.2805917642191883E-004  alpha =   0.26580888589935753     
 delta_qm =   0.159899E-03 delta_en =   0.149110E+00 tol =   0.100000E-04
 Iteration #         10
  pAp =    1.5623856254989317E-004  rzold =    4.8679707630770494E-005  alpha =   0.31157293587634699     
 delta_qm =   0.130180E-03 delta_en =   0.988337E-01 tol =   0.100000E-04
 Iteration #         11
  pAp =    3.8678842505191627E-005  rzold =    1.6960404483761166E-005  alpha =   0.43849307231685314     
 delta_qm =   0.926971E-04 delta_en =   0.501129E-01 tol =   0.100000E-04
 Iteration #         12
  pAp =    2.6344991030213558E-005  rzold =    1.4333267455909670E-005  alpha =   0.54406044167833145     
 delta_qm =   0.468266E-04 delta_en =   0.127880E-01 tol =   0.100000E-04
 Iteration #         13
  pAp =    1.7742387449608120E-005  rzold =    8.3349609297534712E-006  alpha =   0.46977673965391659     
 delta_qm =   0.284963E-04 delta_en =   0.473581E-02 tol =   0.100000E-04
 Iteration #         14
  pAp =    6.1178702567870334E-006  rzold =    2.1641559959202074E-006  alpha =   0.35374336249111188     
 delta_qm =   0.214688E-04 delta_en =   0.268802E-02 tol =   0.100000E-04
 Iteration #         15
  pAp =    1.2203975464283316E-005  rzold =    2.3664187672212902E-006  alpha =   0.19390556578444082     
 delta_qm =   0.143003E-04 delta_en =   0.119263E-02 tol =   0.100000E-04
 Iteration #         16
  pAp =    1.1427716230078632E-006  rzold =    4.8024419047801105E-007  alpha =   0.42024511355468491     
 delta_qm =   0.823200E-05 delta_en =   0.395210E-03 tol =   0.100000E-04
 Iteration #         17
  pAp =    4.8125808836908609E-007  rzold =    1.2418483456822671E-007  alpha =   0.25804207257912509     
 delta_qm =   0.685292E-05 delta_en =   0.273886E-03 tol =   0.100000E-04
 Iteration #         18
  pAp =    1.2331759519937471E-006  rzold =    1.1792213077702396E-007  alpha =    9.5624740805537456E-002
 delta_qm =   0.608022E-05 delta_en =   0.215604E-03 tol =   0.100000E-04
 Iteration #         19
  pAp =    1.3238135738374139E-007  rzold =    6.1318092429566257E-008  alpha =   0.46319280630897297     
 delta_qm =   0.370277E-05 delta_en =   0.799598E-04 tol =   0.100000E-04
 Iteration #         20
  pAp =    4.5487013903108470E-008  rzold =    3.0937208734358753E-008  alpha =   0.68013276932748012     
 delta_qm =   0.157179E-05 delta_en =   0.144082E-04 tol =   0.100000E-04
 Iteration #         21
  pAp =    1.8361475137235432E-008  rzold =    6.9826513687170699E-009  alpha =   0.38028814768574210     
 delta_qm =   0.108391E-05 delta_en =   0.685180E-05 tol =   0.100000E-04
 Charges are converged, EXIT

%%%% DENSITY %%%%%%%%%%%%%%%%%%%%%%%%%%%%%%%%%%%%%%%%%%%%%%%%%%%%%%%%%%%%%%%%%%%
 density label              = velectrostatic                                                                  
 integral of density        =     0.6668093980E-11

%%%% CHARGES %%%%%%%%%%%%%%%%%%%%%%%%%%%%%%%%%%%%%%%%%%%%%%%%%%%%%%%%%%%%%%%%%%%
 total number of charges    =         12
 total charge               =      1.0000000

%%%% DENSITY %%%%%%%%%%%%%%%%%%%%%%%%%%%%%%%%%%%%%%%%%%%%%%%%%%%%%%%%%%%%%%%%%%%
 density label              = vsoftcavity                                                                     
 integral of density        =      4.479777505    

%%%% DENSITY %%%%%%%%%%%%%%%%%%%%%%%%%%%%%%%%%%%%%%%%%%%%%%%%%%%%%%%%%%%%%%%%%%%
 density label              = dvtot                                                                           
 integral of density        =     -34.64116141    

%%%% ELECTRONS %%%%%%%%%%%%%%%%%%%%%%%%%%%%%%%%%%%%%%%%%%%%%%%%%%%%%%%%%%%%%%%%%
 number of electrons        =          8
 total electronic charge    =      8.0000000

%%%% ELECTRONS %%%%%%%%%%%%%%%%%%%%%%%%%%%%%%%%%%%%%%%%%%%%%%%%%%%%%%%%%%%%%%%%%
 number of electrons        =          8
 total electronic charge    =      8.0000000

%%%% BOUNDARY %%%%%%%%%%%%%%%%%%%%%%%%%%%%%%%%%%%%%%%%%%%%%%%%%%%%%%%%%%%%%%%%%%
 boundary label             = solvent              
 boundary mode              = electronic           
 boundary is built as a function of a smooth density
 function type              =  2 
 using the modified SCCS function with parameters 
 rhomax                     =      0.0155000 
 rhomin                     =      0.0024000 
 volume of the QM region    =    186.7503711 
 surface of the QM region   =    160.7518405 

%%%% DIELECTRIC %%%%%%%%%%%%%%%%%%%%%%%%%%%%%%%%%%%%%%%%%%%%%%%%%%%%%%%%%%%%%%%%%
 dielectric build on homogeneous background
 environment bulk permitt.  =     78.3000000 
 dielectric flags
 need gradient              =  F 
 need factor depend. sqrt   =  T 
 total dielectric charge    =     -0.9865522

%%%% DENSITY %%%%%%%%%%%%%%%%%%%%%%%%%%%%%%%%%%%%%%%%%%%%%%%%%%%%%%%%%%%%%%%%%%%
 density label              = dvtot                                                                           
 integral of density        =     -34.64116141    

%%%% DENSITY %%%%%%%%%%%%%%%%%%%%%%%%%%%%%%%%%%%%%%%%%%%%%%%%%%%%%%%%%%%%%%%%%%%
 density label              = vreference                                                                      
 integral of density        =    -0.1997065065E-12

%%%% DENSITY %%%%%%%%%%%%%%%%%%%%%%%%%%%%%%%%%%%%%%%%%%%%%%%%%%%%%%%%%%%%%%%%%%%
 density label              = velectrostatic                                                                  
 integral of density        =     0.6668093980E-11

%%%% CHARGES %%%%%%%%%%%%%%%%%%%%%%%%%%%%%%%%%%%%%%%%%%%%%%%%%%%%%%%%%%%%%%%%%%%
 total number of charges    =         12
 total charge               =      1.0000000

%%%% DENSITY %%%%%%%%%%%%%%%%%%%%%%%%%%%%%%%%%%%%%%%%%%%%%%%%%%%%%%%%%%%%%%%%%%%
 density label              = vsoftcavity                                                                     
 integral of density        =      4.479777505    
