
     Program PWSCF v.6.1 (svn rev. 13369) starts on 14Nov2017 at 17:10:28 

     This program is part of the open-source Quantum ESPRESSO suite
     for quantum simulation of materials; please cite
         "P. Giannozzi et al., J. Phys.:Condens. Matter 21 395502 (2009);
          URL http://www.quantum-espresso.org", 
     in publications or presentations arising from this work. More details at
     http://www.quantum-espresso.org/quote

     Parallel version (MPI), running on     1 processors
     Reading input from anion.in

     Current dimensions of program PWSCF are:
     Max number of different atomic species (ntypx) = 10
     Max number of k-points (npk) =  40000
     Max angular momentum in pseudopotentials (lmaxx) =  3
               file C.pbe-rrkjus.UPF: wavefunction(s)  2S 2P renormalized
               file H.pbe-rrkjus.UPF: wavefunction(s)  1S renormalized
               file N.pbe-rrkjus.UPF: wavefunction(s)  2S renormalized
               file O.pbe-rrkjus.UPF: wavefunction(s)  2S renormalized

     gamma-point specific algorithms are used

     Subspace diagonalization in iterative solution of the eigenvalue problem:
     a serial algorithm will be used

 
     G-vector sticks info
     --------------------
     sticks:   dense  smooth     PW     G-vecs:    dense   smooth      PW
     Sum        9549    3809    949               701475   177509   22119
 


     bravais-lattice index     =            1
     lattice parameter (alat)  =      20.0000  a.u.
     unit-cell volume          =    8000.0000 (a.u.)^3
     number of atoms/cell      =            8
     number of atomic types    =            4
     number of electrons       =        24.00
     number of Kohn-Sham states=           12
     kinetic-energy cutoff     =      30.0000  Ry
     charge density cutoff     =     300.0000  Ry
     convergence threshold     =      1.0E-03
     mixing beta               =       0.7000
     number of iterations used =            8  plain     mixing
     Exchange-correlation      =  SLA  PW   PBE  PBE ( 1  4  3  4 0 0)
 

     Environ Module
     ==============

     Plese cite
         O. Andreussi, I. Dabo and N. Marzari, J. Chem. Phys. 136, 064102 (2012)         
     in publications or presentations arising from this work.

     compensation onset threshold      =               0.1000E+03 
     static permittivity               =                    78.30 
     epsilon calculation mode          =                    ionic 
     surface tension in input (dyn/cm) =                    50.00 
     surface tension in internal units =               0.6423E-04 
     external pressure in input (GPa)  =                    -0.35 
     external pressure in inter. units =              -0.2379E-04 

     Electrostatic Setup
     -------------------
     electrostatic problem to solve    = generalized              
     numerical solver adopted          = cg                       
     type of auxiliary density adopted = none                     
     type of core tool for poisson     = fft                      
     type of core tool for s(r) deriv  = analytic                 



     celldm(1)=  20.000000  celldm(2)=   0.000000  celldm(3)=   0.000000
     celldm(4)=   0.000000  celldm(5)=   0.000000  celldm(6)=   0.000000

     crystal axes: (cart. coord. in units of alat)
               a(1) = (   1.000000   0.000000   0.000000 )  
               a(2) = (   0.000000   1.000000   0.000000 )  
               a(3) = (   0.000000   0.000000   1.000000 )  

     reciprocal axes: (cart. coord. in units 2 pi/alat)
               b(1) = (  1.000000  0.000000  0.000000 )  
               b(2) = (  0.000000  1.000000  0.000000 )  
               b(3) = (  0.000000  0.000000  1.000000 )  


     PseudoPot. # 1 for C  read from file:
     /home/andreo/PWSCF/espresso-6.1-Environ-1.0/Environ/tests/../..//pseudo/C.pbe-rrkjus.UPF
     MD5 check sum: 00fb224312de0c5b6853bd333518df6f
     Pseudo is Ultrasoft, Zval =  4.0
     Generated by new atomic code, or converted to UPF format
     Using radial grid of  627 points,  4 beta functions with: 
                l(1) =   0
                l(2) =   0
                l(3) =   1
                l(4) =   1
     Q(r) pseudized with 0 coefficients 


     PseudoPot. # 2 for H  read from file:
     /home/andreo/PWSCF/espresso-6.1-Environ-1.0/Environ/tests/../..//pseudo/H.pbe-rrkjus.UPF
     MD5 check sum: 7cc9d459525c9a0585f487a71c3c9563
     Pseudo is Ultrasoft, Zval =  1.0
     Generated by new atomic code, or converted to UPF format
     Using radial grid of 1061 points,  2 beta functions with: 
                l(1) =   0
                l(2) =   0
     Q(r) pseudized with 0 coefficients 


     PseudoPot. # 3 for N  read from file:
     /home/andreo/PWSCF/espresso-6.1-Environ-1.0/Environ/tests/../..//pseudo/N.pbe-rrkjus.UPF
     MD5 check sum: 0c3fbe5807a93f9ba59d5a7019aa238b
     Pseudo is Ultrasoft, Zval =  5.0
     Generated by new atomic code, or converted to UPF format
     Using radial grid of 1257 points,  4 beta functions with: 
                l(1) =   0
                l(2) =   0
                l(3) =   1
                l(4) =   1
     Q(r) pseudized with 0 coefficients 


     PseudoPot. # 4 for O  read from file:
     /home/andreo/PWSCF/espresso-6.1-Environ-1.0/Environ/tests/../..//pseudo/O.pbe-rrkjus.UPF
     MD5 check sum: 390ba29e75625707450f3bd3f0eb6be9
     Pseudo is Ultrasoft, Zval =  6.0
     Generated by new atomic code, or converted to UPF format
     Using radial grid of 1269 points,  4 beta functions with: 
                l(1) =   0
                l(2) =   0
                l(3) =   1
                l(4) =   1
     Q(r) pseudized with 0 coefficients 


     atomic species   valence    mass     pseudopotential
        C              4.00    12.00000     C ( 1.00)
        H              1.00     1.00000     H ( 1.00)
        N              5.00    14.00000     N ( 1.00)
        O              6.00    16.00000     O ( 1.00)

     No symmetry found



   Cartesian axes

     site n.     atom                  positions (alat units)
         1           C   tau(   1) = (   0.0000000   0.0000000   0.0000000  )
         2           C   tau(   2) = (   0.0000000   0.0000000   0.1455089  )
         3           N   tau(   3) = (   0.1170969   0.0000000  -0.0545024  )
         4           H   tau(   4) = (   0.0476617  -0.0825466   0.1792090  )
         5           H   tau(   5) = (  -0.0953183  -0.0000030   0.1792090  )
         6           H   tau(   6) = (   0.0476566   0.0825496   0.1792090  )
         7           O   tau(   7) = (  -0.0984002  -0.0000019  -0.0641310  )
         8           H   tau(   8) = (   0.1944645   0.0000134  -0.0025716  )

     number of k points=     1
                       cart. coord. in units 2pi/alat
        k(    1) = (   0.0000000   0.0000000   0.0000000), wk =   2.0000000

     Dense  grid:   350738 G-vectors     FFT dimensions: ( 120, 120, 120)

     Smooth grid:    88755 G-vectors     FFT dimensions: (  72,  72,  72)

     Estimated max dynamical RAM per process >     298.30MB

     Initial potential from superposition of free atoms
     Check: negative starting charge=   -0.000561

     starting charge   22.61507, renormalised to   24.00000

     negative rho (up, down):  5.954E-04 0.000E+00
     Starting wfc are   20 randomized atomic wfcs

     total cpu time spent up to now is       41.1 secs

     per-process dynamical memory:   553.7 Mb

     Self-consistent Calculation

     iteration #  1     ecut=    30.00 Ry     beta=0.70
     Davidson diagonalization with overlap
     ethr =  1.00E-02,  avg # of iterations =  2.0

     negative rho (up, down):  1.758E-04 0.000E+00

     add environment contribution to local potential
     polarization accuracy = 7.6E-06, # of iterations =  16

     total cpu time spent up to now is       47.1 secs

     total energy              =     -78.45602745 Ry
     Harris-Foulkes estimate   =     -80.30749154 Ry
     estimated scf accuracy    <       2.43325747 Ry
     electrostatic embedding   =      -0.00222918 Ry
     cavitation energy         =       0.02262354 Ry
     PV energy                 =      -0.01287875 Ry
     correction to one-el term =       0.00000000 Ry

     iteration #  2     ecut=    30.00 Ry     beta=0.70
     Davidson diagonalization with overlap
     ethr =  1.00E-02,  avg # of iterations =  4.0

     negative rho (up, down):  3.206E-03 0.000E+00

     add environment contribution to local potential
     polarization accuracy = 6.8E-06, # of iterations =  16

     total cpu time spent up to now is       53.3 secs

     total energy              =     -78.92132117 Ry
     Harris-Foulkes estimate   =     -82.23195684 Ry
     estimated scf accuracy    <       2.24377832 Ry
     electrostatic embedding   =      -0.07658588 Ry
     cavitation energy         =       0.02262354 Ry
     PV energy                 =      -0.01287875 Ry
     correction to one-el term =       2.23831821 Ry

     iteration #  3     ecut=    30.00 Ry     beta=0.70
     Davidson diagonalization with overlap
     ethr =  9.35E-03,  avg # of iterations =  3.0

     negative rho (up, down):  3.522E-04 0.000E+00

     add environment contribution to local potential
     polarization accuracy = 6.0E-06, # of iterations =  16

     total cpu time spent up to now is       59.4 secs

     total energy              =     -79.43874357 Ry
     Harris-Foulkes estimate   =     -82.29888366 Ry
     estimated scf accuracy    <       0.12402811 Ry
     electrostatic embedding   =      -0.11332666 Ry
     cavitation energy         =       0.02262354 Ry
     PV energy                 =      -0.01287875 Ry
     correction to one-el term =       2.89809562 Ry

     iteration #  4     ecut=    30.00 Ry     beta=0.70
     Davidson diagonalization with overlap
     ethr =  5.17E-04,  avg # of iterations =  4.0

     negative rho (up, down):  2.185E-04 0.000E+00

     add environment contribution to local potential
     polarization accuracy = 4.0E-06, # of iterations =  16

     total cpu time spent up to now is       65.5 secs

     total energy              =     -79.49189046 Ry
     Harris-Foulkes estimate   =     -82.79516156 Ry
     estimated scf accuracy    <       0.02038768 Ry
     electrostatic embedding   =      -0.14620583 Ry
     cavitation energy         =       0.02262354 Ry
     PV energy                 =      -0.01287875 Ry
     correction to one-el term =       3.43036217 Ry

     iteration #  5     ecut=    30.00 Ry     beta=0.70
     Davidson diagonalization with overlap
     ethr =  8.49E-05,  avg # of iterations =  3.0

     negative rho (up, down):  1.243E-04 0.000E+00

     add environment contribution to local potential
     polarization accuracy = 4.2E-06, # of iterations =  16

     total cpu time spent up to now is       71.6 secs

     total energy              =     -79.50210230 Ry
     Harris-Foulkes estimate   =     -83.09844853 Ry
     estimated scf accuracy    <       0.00135948 Ry
     electrostatic embedding   =      -0.16758762 Ry
     cavitation energy         =       0.02262354 Ry
     PV energy                 =      -0.01287875 Ry
     correction to one-el term =       3.75365922 Ry

     iteration #  6     ecut=    30.00 Ry     beta=0.70
     Davidson diagonalization with overlap
     ethr =  5.66E-06,  avg # of iterations =  3.0

     negative rho (up, down):  1.640E-04 0.000E+00

     total cpu time spent up to now is       74.4 secs

     End of self-consistent calculation

          k = 0.0000 0.0000 0.0000 ( 11060 PWs)   bands (ev):

   -24.8254 -19.8682 -16.8144 -12.4090 -10.6317  -9.8756  -9.6542  -8.7892
    -7.9895  -5.4780  -5.0158  -4.8670

     highest occupied level (ev):    -4.8670

!    total energy              =     -79.51104084 Ry
     Harris-Foulkes estimate   =     -83.25917193 Ry
     estimated scf accuracy    <       0.00010057 Ry

     The total energy is the sum of the following terms:

     one-electron contribution =    -231.68760376 Ry
     hartree contribution      =     120.32440830 Ry
     xc contribution           =     -22.39577290 Ry
     ewald contribution        =      50.49985456 Ry
     electrostatic embedding   =      -0.17622737 Ry
     cavitation energy         =       0.02262354 Ry
     PV energy                 =      -0.01287875 Ry
     correction to one-el term =       3.91455554 Ry

     convergence has been achieved in   6 iterations

     Forces acting on atoms (cartesian axes, Ry/au):

     atom    1 type  1   force =     0.16532429    0.00002061    0.03587760
     atom    2 type  1   force =    -0.02673603    0.00002568   -0.05364387
     atom    3 type  3   force =    -0.11084581    0.00002207   -0.06944229
     atom    4 type  2   force =     0.01998204   -0.03185645    0.01399725
     atom    5 type  2   force =    -0.03840175   -0.00002310    0.01899172
     atom    6 type  2   force =     0.01997790    0.03180886    0.01399471
     atom    7 type  4   force =    -0.06403917    0.00002530   -0.02451962
     atom    8 type  2   force =     0.03473852   -0.00002297    0.06474450

     Total force =     0.253917     Total SCF correction =     0.014900

     Writing output data file pwscf.save
 
     init_run     :     38.62s CPU     40.96s WALL (       1 calls)
     electrons    :     22.12s CPU     34.81s WALL (       1 calls)
     forces       :     11.60s CPU     12.44s WALL (       1 calls)

     Called by init_run:
     wfcinit      :      0.11s CPU      0.12s WALL (       1 calls)
     potinit      :      0.95s CPU      1.14s WALL (       1 calls)

     Called by electrons:
     c_bands      :      1.32s CPU      1.33s WALL (       6 calls)
     sum_band     :      4.09s CPU      6.55s WALL (       6 calls)
     v_of_rho     :      4.45s CPU      5.44s WALL (       7 calls)
     newd         :      2.05s CPU      4.82s WALL (       7 calls)
     mix_rho      :      0.47s CPU      0.48s WALL (       6 calls)

     Called by c_bands:
     init_us_2    :      0.05s CPU      0.05s WALL (      13 calls)
     regterg      :      1.24s CPU      1.24s WALL (       6 calls)

     Called by sum_band:
     sum_band:bec :      0.00s CPU      0.00s WALL (       6 calls)
     addusdens    :      3.14s CPU      5.57s WALL (       6 calls)

     Called by *egterg:
     h_psi        :      1.18s CPU      1.19s WALL (      26 calls)
     s_psi        :      0.04s CPU      0.03s WALL (      26 calls)
     g_psi        :      0.00s CPU      0.01s WALL (      19 calls)
     rdiaghg      :      0.00s CPU      0.01s WALL (      25 calls)

     Called by h_psi:
     h_psi:pot    :      1.18s CPU      1.18s WALL (      26 calls)
     h_psi:calbec :      0.04s CPU      0.04s WALL (      26 calls)
     vloc_psi     :      1.10s CPU      1.11s WALL (      26 calls)
     add_vuspsi   :      0.04s CPU      0.03s WALL (      26 calls)

     General routines
     calbec       :      0.07s CPU      0.06s WALL (      36 calls)
     fft          :      8.99s CPU     11.24s WALL (     297 calls)
     ffts         :      0.06s CPU      0.07s WALL (      13 calls)
     fftw         :      0.99s CPU      0.98s WALL (     274 calls)
     interpolate  :      0.56s CPU      0.75s WALL (      13 calls)
     davcio       :      0.00s CPU      0.00s WALL (       1 calls)
 
     Parallel routines
     fft_scatter  :      2.11s CPU      3.24s WALL (     584 calls)
 
     Environ routines
     calc_eelect  :      0.02s CPU      0.02s WALL (      12 calls)
     calc_velect  :      9.84s CPU     15.24s WALL (      10 calls)
     dielectric   :      0.12s CPU      0.13s WALL (       2 calls)
     calc_felect  :      0.32s CPU      0.40s WALL (       1 calls)
 
     PWSCF        :  1m12.62s CPU     1m30.85s WALL

 
   This run was terminated on:  17:11:59  14Nov2017            

=------------------------------------------------------------------------------=
   JOB DONE.
=------------------------------------------------------------------------------=

%%%% IONS %%%%%%%%%%%%%%%%%%%%%%%%%%%%%%%%%%%%%%%%%%%%%%%%%%%%%%%%%%%%%%%%%%%%%%
 number of ions             =          8
 ionic center of charge     =      0.0082412     0.0000001     0.0199910
 total ionic charge         =    -23.0000000
 ionic dipole               =      0.0000000     0.0000000     0.0000000
 ionic quadrupole (pc)      =    -70.6147067    -5.4513517   -84.5532413
 ionic quadrupole (gauss)   =    -73.4897067    -8.3263517   -87.4282413
 ion   1 type =  1 coordinates =      0.0000000     0.0000000     0.0000000
 ion   2 type =  1 coordinates =      0.0000000     0.0000000     2.9101782
 ion   3 type =  3 coordinates =      2.3419379     0.0000000    -1.0900479
 ion   4 type =  2 coordinates =      0.9532347    -1.6509323     3.5841800
 ion   5 type =  2 coordinates =     -1.9063663    -0.0000596     3.5841809
 ion   6 type =  2 coordinates =      0.9531315     1.6509919     3.5841800
 ion   7 type =  4 coordinates =     -1.9680045    -0.0000375    -1.2826193
 ion   8 type =  2 coordinates =      3.8892907     0.0002681    -0.0514326

%%%% SYSTEM %%%%%%%%%%%%%%%%%%%%%%%%%%%%%%%%%%%%%%%%%%%%%%%%%%%%%%%%%%%%%%%%%%%%
 system is built from all present ionic types
 system defined dimension   =  0 
 system defined axis        =  3 
 system center              =      0.0082412     0.0000001     0.0199910 
 system width               =      0.4368498 

%%%% BOUNDARY %%%%%%%%%%%%%%%%%%%%%%%%%%%%%%%%%%%%%%%%%%%%%%%%%%%%%%%%%%%%%%%%%%
 boundary mode              = ionic                
 boundary is built from soft-spheres centered on ionic positions
 solvent-dependent scaling  =      0.9800000 
 softness parameter         =      0.5000000 
 volume of the QM region    =    541.2939875 
 surface of the QM region   =    352.2243394 

%%%% DIELECTRIC %%%%%%%%%%%%%%%%%%%%%%%%%%%%%%%%%%%%%%%%%%%%%%%%%%%%%%%%%%%%%%%%%
 dielectric build on homogeneous background
 environment bulk permitt.  =     78.3000000 
 dielectric flags
 need gradient              =  F 
 need factor depend. sqrt   =  T 
 need gradient of logarithm =  T 

%%%% ELECTRONS %%%%%%%%%%%%%%%%%%%%%%%%%%%%%%%%%%%%%%%%%%%%%%%%%%%%%%%%%%%%%%%%%
 number of electrons        =         24
 total electronic charge    =     24.0000000
 number of spin components  =  1

%%%% COMPUTE ELECTROSTATIC POTENTIAL %%%%%%%%%%%%%%%%%%%%%%%%%%%%%%%%%%%%%%%%%%%
 Iteration #          1
  pAp =    91.7205714601530       rzold =    91.2171098987244       alpha = 
  0.994510919923266     
 delta_qm =   0.846493E-02 delta_en =   0.123820E+03 tol =   0.100000E-04
 Iteration #          2
  pAp =    22.7662872513467       rzold =    2.93763050410635       alpha = 
  0.129034236969517     
 delta_qm =   0.271896E-02 delta_en =   0.127747E+02 tol =   0.100000E-04
 Iteration #          3
  pAp =   0.731698328579579       rzold =   0.149031803196030       alpha = 
  0.203679299753684     
 delta_qm =   0.983887E-03 delta_en =   0.167276E+01 tol =   0.100000E-04
 Iteration #          4
  pAp =   0.124253232581950       rzold =   1.828592594937419E-002  alpha = 
  0.147166601378471     
 delta_qm =   0.104734E-02 delta_en =   0.189549E+01 tol =   0.100000E-04
 Iteration #          5
  pAp =   1.784822017990388E-002  rzold =   4.121335899010670E-003  alpha = 
  0.230910189221616     
 delta_qm =   0.703090E-03 delta_en =   0.854211E+00 tol =   0.100000E-04
 Iteration #          6
  pAp =   3.101372462217597E-003  rzold =   1.426325513383934E-003  alpha = 
  0.459901392290063     
 delta_qm =   0.456578E-03 delta_en =   0.360224E+00 tol =   0.100000E-04
 Iteration #          7
  pAp =   5.257493797232385E-003  rzold =   1.293117319550905E-003  alpha = 
  0.245956984339500     
 delta_qm =   0.294827E-03 delta_en =   0.150203E+00 tol =   0.100000E-04
 Iteration #          8
  pAp =   9.560163033638004E-004  rzold =   4.114438220675714E-004  alpha = 
  0.430373227548402     
 delta_qm =   0.192033E-03 delta_en =   0.637229E-01 tol =   0.100000E-04
 Iteration #          9
  pAp =   3.952251099766346E-004  rzold =   1.948181243246412E-004  alpha = 
  0.492929521447052     
 delta_qm =   0.903465E-04 delta_en =   0.141048E-01 tol =   0.100000E-04
 Iteration #         10
  pAp =   2.343059072656847E-004  rzold =   6.905587112741275E-005  alpha = 
  0.294725267208516     
 delta_qm =   0.482920E-04 delta_en =   0.402990E-02 tol =   0.100000E-04
 Iteration #         11
  pAp =   3.441100119169841E-005  rzold =   1.314913926371701E-005  alpha = 
  0.382120217614860     
 delta_qm =   0.295584E-04 delta_en =   0.150975E-02 tol =   0.100000E-04
 Iteration #         12
  pAp =   4.162910349012410E-006  rzold =   2.071254497753518E-006  alpha = 
  0.497549628529688     
 delta_qm =   0.197025E-04 delta_en =   0.670792E-03 tol =   0.100000E-04
 Iteration #         13
  pAp =   1.598428577616408E-006  rzold =   9.643396220938497E-007  alpha = 
  0.603304792968531     
 delta_qm =   0.892646E-05 delta_en =   0.137690E-03 tol =   0.100000E-04
 Iteration #         14
  pAp =   1.896917815082968E-006  rzold =   5.192337482560054E-007  alpha = 
  0.273724957469122     
 delta_qm =   0.615463E-05 delta_en =   0.654558E-04 tol =   0.100000E-04
 Iteration #         15
  pAp =   5.450662916043839E-007  rzold =   1.849424023776866E-007  alpha = 
  0.339302586174087     
 delta_qm =   0.389518E-05 delta_en =   0.262179E-04 tol =   0.100000E-04
 Iteration #         16
  pAp =   1.096908216408830E-007  rzold =   4.468978906456595E-008  alpha = 
  0.407415938690622     
 delta_qm =   0.210243E-05 delta_en =   0.763815E-05 tol =   0.100000E-04
 Charges are converged, EXIT

%%%% ELECTRONS %%%%%%%%%%%%%%%%%%%%%%%%%%%%%%%%%%%%%%%%%%%%%%%%%%%%%%%%%%%%%%%%%
 number of electrons        =         24
 total electronic charge    =     24.0000000
 number of spin components  =  1

%%%% COMPUTE ELECTROSTATIC POTENTIAL %%%%%%%%%%%%%%%%%%%%%%%%%%%%%%%%%%%%%%%%%%%
 Warning: bad guess with residual norm =   0.578391E+03, reset to no guess
 Iteration #          1
  pAp =    91.1652764792859       rzold =    90.6605121063685       alpha = 
  0.994463194843356     
 delta_qm =   0.889209E-02 delta_en =   0.136632E+03 tol =   0.100000E-04
 Iteration #          2
  pAp =    27.3617316210796       rzold =    3.36813387660964       alpha = 
  0.123096517546967     
 delta_qm =   0.207442E-02 delta_en =   0.743596E+01 tol =   0.100000E-04
 Iteration #          3
  pAp =   0.330993773783688       rzold =   6.644941495134145E-002  alpha = 
  0.200757295799671     
 delta_qm =   0.895410E-03 delta_en =   0.138544E+01 tol =   0.100000E-04
 Iteration #          4
  pAp =   7.995989187013333E-002  rzold =   1.188598375774292E-002  alpha = 
  0.148649322550955     
 delta_qm =   0.978144E-03 delta_en =   0.165329E+01 tol =   0.100000E-04
 Iteration #          5
  pAp =   8.740193097007234E-003  rzold =   2.511276345182922E-003  alpha = 
  0.287325041599232     
 delta_qm =   0.655653E-03 delta_en =   0.742834E+00 tol =   0.100000E-04
 Iteration #          6
  pAp =   4.391057981642304E-003  rzold =   1.559071005524625E-003  alpha = 
  0.355055891323374     
 delta_qm =   0.448360E-03 delta_en =   0.347374E+00 tol =   0.100000E-04
 Iteration #          7
  pAp =   4.297584493290932E-003  rzold =   1.279223210065818E-003  alpha = 
  0.297660979571861     
 delta_qm =   0.253328E-03 delta_en =   0.110895E+00 tol =   0.100000E-04
 Iteration #          8
  pAp =   7.330151427487285E-004  rzold =   3.295794940037820E-004  alpha = 
  0.449621671890562     
 delta_qm =   0.168128E-03 delta_en =   0.488452E-01 tol =   0.100000E-04
 Iteration #          9
  pAp =   3.202366195917936E-004  rzold =   1.500256688056045E-004  alpha = 
  0.468483801124439     
 delta_qm =   0.638085E-04 delta_en =   0.703560E-02 tol =   0.100000E-04
 Iteration #         10
  pAp =   1.481845141351788E-004  rzold =   4.184062611589487E-005  alpha = 
  0.282354916504477     
 delta_qm =   0.421720E-04 delta_en =   0.307321E-02 tol =   0.100000E-04
 Iteration #         11
  pAp =   1.714665484848953E-005  rzold =   6.456838391178132E-006  alpha = 
  0.376565484535132     
 delta_qm =   0.291990E-04 delta_en =   0.147326E-02 tol =   0.100000E-04
 Iteration #         12
  pAp =   2.876300759348957E-006  rzold =   1.654100985729065E-006  alpha = 
  0.575079285555474     
 delta_qm =   0.156161E-04 delta_en =   0.421395E-03 tol =   0.100000E-04
 Iteration #         13
  pAp =   2.106956821772481E-006  rzold =   9.935481472870867E-007  alpha = 
  0.471556007707487     
 delta_qm =   0.831949E-05 delta_en =   0.119602E-03 tol =   0.100000E-04
 Iteration #         14
  pAp =   9.197329626831711E-007  rzold =   3.309541192383489E-007  alpha = 
  0.359837183906994     
 delta_qm =   0.489038E-05 delta_en =   0.413266E-04 tol =   0.100000E-04
 Iteration #         15
  pAp =   3.277377801213451E-007  rzold =   9.767390401487087E-008  alpha = 
  0.298024548706918     
 delta_qm =   0.332120E-05 delta_en =   0.190605E-04 tol =   0.100000E-04
 Iteration #         16
  pAp =   1.179244174391657E-007  rzold =   3.992851838712902E-008  alpha = 
  0.338594154240594     
 delta_qm =   0.197691E-05 delta_en =   0.675334E-05 tol =   0.100000E-04
 Charges are converged, EXIT

%%%% ELECTRONS %%%%%%%%%%%%%%%%%%%%%%%%%%%%%%%%%%%%%%%%%%%%%%%%%%%%%%%%%%%%%%%%%
 number of electrons        =         24
 total electronic charge    =     24.0000000
 number of spin components  =  1

%%%% COMPUTE ELECTROSTATIC POTENTIAL %%%%%%%%%%%%%%%%%%%%%%%%%%%%%%%%%%%%%%%%%%%
 Warning: bad guess with residual norm =   0.400369E+03, reset to no guess
 Iteration #          1
  pAp =    91.8769213603708       rzold =    91.1046604985165       alpha = 
  0.991594615378706     
 delta_qm =   0.110613E-01 delta_en =   0.211423E+03 tol =   0.100000E-04
 Iteration #          2
  pAp =    42.4446614174023       rzold =    5.20932155231614       alpha = 
  0.122732079332369     
 delta_qm =   0.210006E-02 delta_en =   0.762089E+01 tol =   0.100000E-04
 Iteration #          3
  pAp =   0.436329293660100       rzold =   8.963010005456458E-002  alpha = 
  0.205418479476160     
 delta_qm =   0.116925E-02 delta_en =   0.236244E+01 tol =   0.100000E-04
 Iteration #          4
  pAp =   4.472042140291894E-002  rzold =   8.397055501047983E-003  alpha = 
  0.187767808030984     
 delta_qm =   0.784323E-03 delta_en =   0.106300E+01 tol =   0.100000E-04
 Iteration #          5
  pAp =   1.069572286227475E-002  rzold =   2.700143250586024E-003  alpha = 
  0.252450749271916     
 delta_qm =   0.739555E-03 delta_en =   0.945116E+00 tol =   0.100000E-04
 Iteration #          6
  pAp =   5.050814081729213E-003  rzold =   1.593848197184170E-003  alpha = 
  0.315562634338442     
 delta_qm =   0.422030E-03 delta_en =   0.307773E+00 tol =   0.100000E-04
 Iteration #          7
  pAp =   5.087293460164983E-003  rzold =   1.440624223705849E-003  alpha = 
  0.283180877019650     
 delta_qm =   0.270226E-03 delta_en =   0.126182E+00 tol =   0.100000E-04
 Iteration #          8
  pAp =   7.757853574436709E-004  rzold =   3.569997774984535E-004  alpha = 
  0.460178545615789     
 delta_qm =   0.171289E-03 delta_en =   0.506994E-01 tol =   0.100000E-04
 Iteration #          9
  pAp =   2.903416114096824E-004  rzold =   1.408751529302910E-004  alpha = 
  0.485204832494751     
 delta_qm =   0.662349E-04 delta_en =   0.758085E-02 tol =   0.100000E-04
 Iteration #         10
  pAp =   1.425011247605508E-004  rzold =   4.293119698500705E-005  alpha = 
  0.301269179854866     
 delta_qm =   0.423621E-04 delta_en =   0.310098E-02 tol =   0.100000E-04
 Iteration #         11
  pAp =   2.295550952352577E-005  rzold =   7.545594023377757E-006  alpha = 
  0.328705142251132     
 delta_qm =   0.300506E-04 delta_en =   0.156045E-02 tol =   0.100000E-04
 Iteration #         12
  pAp =   2.948974841800981E-006  rzold =   1.682365981713730E-006  alpha = 
  0.570491805445951     
 delta_qm =   0.164613E-04 delta_en =   0.468242E-03 tol =   0.100000E-04
 Iteration #         13
  pAp =   2.173286711563999E-006  rzold =   1.035037068393667E-006  alpha = 
  0.476254266354394     
 delta_qm =   0.870732E-05 delta_en =   0.131012E-03 tol =   0.100000E-04
 Iteration #         14
  pAp =   8.974920509702734E-007  rzold =   3.554715028502150E-007  alpha = 
  0.396072034806232     
 delta_qm =   0.473583E-05 delta_en =   0.387557E-04 tol =   0.100000E-04
 Iteration #         15
  pAp =   1.640503983848656E-007  rzold =   7.233672423705757E-008  alpha = 
  0.440942082123776     
 delta_qm =   0.277555E-05 delta_en =   0.133120E-04 tol =   0.100000E-04
 Iteration #         16
  pAp =   9.306659014538346E-008  rzold =   2.707064617856935E-008  alpha = 
  0.290873944519522     
 delta_qm =   0.185835E-05 delta_en =   0.596759E-05 tol =   0.100000E-04
 Charges are converged, EXIT

%%%% ELECTRONS %%%%%%%%%%%%%%%%%%%%%%%%%%%%%%%%%%%%%%%%%%%%%%%%%%%%%%%%%%%%%%%%%
 number of electrons        =         24
 total electronic charge    =     24.0000000
 number of spin components  =  1

%%%% COMPUTE ELECTROSTATIC POTENTIAL %%%%%%%%%%%%%%%%%%%%%%%%%%%%%%%%%%%%%%%%%%%
 Warning: bad guess with residual norm =   0.431142E+03, reset to no guess
 Iteration #          1
  pAp =    92.4191865446523       rzold =    91.5336120021233       alpha = 
  0.990417849630162     
 delta_qm =   0.118567E-01 delta_en =   0.242926E+03 tol =   0.100000E-04
 Iteration #          2
  pAp =    48.3944548877984       rzold =    5.95412435128698       alpha = 
  0.123033193887430     
 delta_qm =   0.214419E-02 delta_en =   0.794458E+01 tol =   0.100000E-04
 Iteration #          3
  pAp =   0.540642420428575       rzold =   0.105325642515412       alpha = 
  0.194815720216550     
 delta_qm =   0.132208E-02 delta_en =   0.302037E+01 tol =   0.100000E-04
 Iteration #          4
  pAp =   9.194353404569099E-002  rzold =   1.392753604398738E-002  alpha = 
  0.151479233298408     
 delta_qm =   0.814095E-03 delta_en =   0.114523E+01 tol =   0.100000E-04
 Iteration #          5
  pAp =   1.264668517083267E-002  rzold =   3.259054731131639E-003  alpha = 
  0.257700313331755     
 delta_qm =   0.749954E-03 delta_en =   0.971880E+00 tol =   0.100000E-04
 Iteration #          6
  pAp =   4.738198870344408E-003  rzold =   1.591905305263160E-003  alpha = 
  0.335972665737318     
 delta_qm =   0.480299E-03 delta_en =   0.398627E+00 tol =   0.100000E-04
 Iteration #          7
  pAp =   4.179862525165338E-003  rzold =   1.400831337496245E-003  alpha = 
  0.335138136496686     
 delta_qm =   0.278779E-03 delta_en =   0.134296E+00 tol =   0.100000E-04
 Iteration #          8
  pAp =   8.627799756414097E-004  rzold =   3.884198727054031E-004  alpha = 
  0.450195743609653     
 delta_qm =   0.177753E-03 delta_en =   0.545981E-01 tol =   0.100000E-04
 Iteration #          9
  pAp =   3.009623270863004E-004  rzold =   1.449503494806608E-004  alpha = 
  0.481622902387702     
 delta_qm =   0.708463E-04 delta_en =   0.867317E-02 tol =   0.100000E-04
 Iteration #         10
  pAp =   1.560614587778631E-004  rzold =   4.841397499483960E-005  alpha = 
  0.310223775773824     
 delta_qm =   0.430808E-04 delta_en =   0.320709E-02 tol =   0.100000E-04
 Iteration #         11
  pAp =   2.661891863282544E-005  rzold =   8.609411839687723E-006  alpha = 
  0.323432065683950     
 delta_qm =   0.305092E-04 delta_en =   0.160844E-02 tol =   0.100000E-04
 Iteration #         12
  pAp =   3.193645859280232E-006  rzold =   1.744544075932202E-006  alpha = 
  0.546254704748440     
 delta_qm =   0.173605E-04 delta_en =   0.520797E-03 tol =   0.100000E-04
 Iteration #         13
  pAp =   2.219755103365558E-006  rzold =   1.075456681264357E-006  alpha = 
  0.484493392822373     
 delta_qm =   0.910263E-05 delta_en =   0.143178E-03 tol =   0.100000E-04
 Iteration #         14
  pAp =   9.328746377041943E-007  rzold =   3.864806676356119E-007  alpha = 
  0.414290036426268     
 delta_qm =   0.479929E-05 delta_en =   0.398013E-04 tol =   0.100000E-04
 Iteration #         15
  pAp =   1.567579445969999E-007  rzold =   7.395230739998178E-008  alpha = 
  0.471761144802591     
 delta_qm =   0.267774E-05 delta_en =   0.123903E-04 tol =   0.100000E-04
 Iteration #         16
  pAp =   3.767160323773554E-008  rzold =   1.808667359418956E-008  alpha = 
  0.480114251576959     
 delta_qm =   0.152138E-05 delta_en =   0.399963E-05 tol =   0.100000E-04
 Charges are converged, EXIT

%%%% ELECTRONS %%%%%%%%%%%%%%%%%%%%%%%%%%%%%%%%%%%%%%%%%%%%%%%%%%%%%%%%%%%%%%%%%
 number of electrons        =         24
 total electronic charge    =     24.0000000
 number of spin components  =  1

%%%% COMPUTE ELECTROSTATIC POTENTIAL %%%%%%%%%%%%%%%%%%%%%%%%%%%%%%%%%%%%%%%%%%%
 Warning: bad guess with residual norm =   0.445798E+03, reset to no guess
 Iteration #          1
  pAp =    92.6037030913340       rzold =    91.6090747442905       alpha = 
  0.989259302664576     
 delta_qm =   0.125559E-01 delta_en =   0.272419E+03 tol =   0.100000E-04
 Iteration #          2
  pAp =    54.3348265786605       rzold =    6.68372477921943       alpha = 
  0.123009958806870     
 delta_qm =   0.222440E-02 delta_en =   0.855005E+01 tol =   0.100000E-04
 Iteration #          3
  pAp =   0.632511558726814       rzold =   0.119936904633018       alpha = 
  0.189620099393029     
 delta_qm =   0.138415E-02 delta_en =   0.331060E+01 tol =   0.100000E-04
 Iteration #          4
  pAp =   0.117988262046739       rzold =   1.721685998416811E-002  alpha = 
  0.145920108369322     
 delta_qm =   0.831318E-03 delta_en =   0.119420E+01 tol =   0.100000E-04
 Iteration #          5
  pAp =   1.333427072719753E-002  rzold =   3.494936949234793E-003  alpha = 
  0.262101844243065     
 delta_qm =   0.753774E-03 delta_en =   0.981808E+00 tol =   0.100000E-04
 Iteration #          6
  pAp =   4.823089302827095E-003  rzold =   1.618807260415956E-003  alpha = 
  0.335637007481300     
 delta_qm =   0.498008E-03 delta_en =   0.428564E+00 tol =   0.100000E-04
 Iteration #          7
  pAp =   4.089836017655326E-003  rzold =   1.414994465812651E-003  alpha = 
  0.345978288543671     
 delta_qm =   0.287292E-03 delta_en =   0.142623E+00 tol =   0.100000E-04
 Iteration #          8
  pAp =   9.024769057178937E-004  rzold =   4.069533486862153E-004  alpha = 
  0.450929376816015     
 delta_qm =   0.182230E-03 delta_en =   0.573833E-01 tol =   0.100000E-04
 Iteration #          9
  pAp =   3.046469719784885E-004  rzold =   1.480310561472945E-004  alpha = 
  0.485910150972212     
 delta_qm =   0.728976E-04 delta_en =   0.918268E-02 tol =   0.100000E-04
 Iteration #         10
  pAp =   1.617325937721500E-004  rzold =   5.079552056810065E-005  alpha = 
  0.314071019226104     
 delta_qm =   0.434667E-04 delta_en =   0.326481E-02 tol =   0.100000E-04
 Iteration #         11
  pAp =   2.882565002905896E-005  rzold =   9.169564284676157E-006  alpha = 
  0.318104336777571     
 delta_qm =   0.306994E-04 delta_en =   0.162856E-02 tol =   0.100000E-04
 Iteration #         12
  pAp =   3.315575867251282E-006  rzold =   1.779372786471826E-006  alpha = 
  0.536670810053574     
 delta_qm =   0.176859E-04 delta_en =   0.540506E-03 tol =   0.100000E-04
 Iteration #         13
  pAp =   2.200001143414135E-006  rzold =   1.077597193049540E-006  alpha = 
  0.489816651357390     
 delta_qm =   0.934346E-05 delta_en =   0.150855E-03 tol =   0.100000E-04
 Iteration #         14
  pAp =   9.649029120059115E-007  rzold =   4.032653750505635E-007  alpha = 
  0.417933628381560     
 delta_qm =   0.485097E-05 delta_en =   0.406631E-04 tol =   0.100000E-04
 Iteration #         15
  pAp =   1.656922179597221E-007  rzold =   7.747081246946469E-008  alpha = 
  0.467558545738684     
 delta_qm =   0.272177E-05 delta_en =   0.128011E-04 tol =   0.100000E-04
 Iteration #         16
  pAp =   3.984361681497184E-008  rzold =   1.868923542621133E-008  alpha = 
  0.469064731572977     
 delta_qm =   0.156586E-05 delta_en =   0.423693E-05 tol =   0.100000E-04
 Charges are converged, EXIT

%%%% ELECTRONS %%%%%%%%%%%%%%%%%%%%%%%%%%%%%%%%%%%%%%%%%%%%%%%%%%%%%%%%%%%%%%%%%
 number of electrons        =         24
 total electronic charge    =     24.0000000
 number of spin components  =  1
