
     Program PWSCF v.6.1 (svn rev. 13369) starts on  1Feb2018 at 12:43:39 

     This program is part of the open-source Quantum ESPRESSO suite
     for quantum simulation of materials; please cite
         "P. Giannozzi et al., J. Phys.:Condens. Matter 21 395502 (2009);
          URL http://www.quantum-espresso.org", 
     in publications or presentations arising from this work. More details at
     http://www.quantum-espresso.org/quote

     Parallel version (MPI), running on     1 processors
     Reading input from anion.in

     Current dimensions of program PWSCF are:
     Max number of different atomic species (ntypx) = 10
     Max number of k-points (npk) =  40000
     Max angular momentum in pseudopotentials (lmaxx) =  3
               file C.pbe-rrkjus.UPF: wavefunction(s)  2S 2P renormalized
               file H.pbe-rrkjus.UPF: wavefunction(s)  1S renormalized
               file O.pbe-rrkjus.UPF: wavefunction(s)  2S renormalized

     gamma-point specific algorithms are used

     Subspace diagonalization in iterative solution of the eigenvalue problem:
     a serial algorithm will be used

 
     G-vector sticks info
     --------------------
     sticks:   dense  smooth     PW     G-vecs:    dense   smooth      PW
     Sum        9549    3809    949               701475   177509   22119
 


     bravais-lattice index     =            1
     lattice parameter (alat)  =      20.0000  a.u.
     unit-cell volume          =    8000.0000 (a.u.)^3
     number of atoms/cell      =            7
     number of atomic types    =            3
     number of electrons       =        24.00
     number of Kohn-Sham states=           12
     kinetic-energy cutoff     =      30.0000  Ry
     charge density cutoff     =     300.0000  Ry
     convergence threshold     =      1.0E-03
     mixing beta               =       0.7000
     number of iterations used =            8  plain     mixing
     Exchange-correlation      =  SLA  PW   PBE  PBE ( 1  4  3  4 0 0)
 

     Environ Module
     ==============

     Plese cite
         O. Andreussi, I. Dabo and N. Marzari, J. Chem. Phys. 136, 064102 (2012)         
     in publications or presentations arising from this work.

     compensation onset threshold      =               0.1000E+03 
     static permittivity               =                    78.30 
     epsilon calculation mode          =               electronic 
     external pressure in input (GPa)  =                     0.45 
     external pressure in inter. units =               0.3059E-04 

     Electrostatic Setup
     -------------------
     electrostatic problem to solve    = generalized              
     numerical solver adopted          = cg                       
     type of auxiliary density adopted = none                     
     type of core tool for poisson     = fft                      
     type of core tool for s(r) deriv  = analytic                 



     celldm(1)=  20.000000  celldm(2)=   0.000000  celldm(3)=   0.000000
     celldm(4)=   0.000000  celldm(5)=   0.000000  celldm(6)=   0.000000

     crystal axes: (cart. coord. in units of alat)
               a(1) = (   1.000000   0.000000   0.000000 )  
               a(2) = (   0.000000   1.000000   0.000000 )  
               a(3) = (   0.000000   0.000000   1.000000 )  

     reciprocal axes: (cart. coord. in units 2 pi/alat)
               b(1) = (  1.000000  0.000000  0.000000 )  
               b(2) = (  0.000000  1.000000  0.000000 )  
               b(3) = (  0.000000  0.000000  1.000000 )  


     PseudoPot. # 1 for C  read from file:
     /home/fnattino/Programs/qe-6.1/Environ/tests/../..//pseudo/C.pbe-rrkjus.UPF
     MD5 check sum: 00fb224312de0c5b6853bd333518df6f
     Pseudo is Ultrasoft, Zval =  4.0
     Generated by new atomic code, or converted to UPF format
     Using radial grid of  627 points,  4 beta functions with: 
                l(1) =   0
                l(2) =   0
                l(3) =   1
                l(4) =   1
     Q(r) pseudized with 0 coefficients 


     PseudoPot. # 2 for H  read from file:
     /home/fnattino/Programs/qe-6.1/Environ/tests/../..//pseudo/H.pbe-rrkjus.UPF
     MD5 check sum: 7cc9d459525c9a0585f487a71c3c9563
     Pseudo is Ultrasoft, Zval =  1.0
     Generated by new atomic code, or converted to UPF format
     Using radial grid of 1061 points,  2 beta functions with: 
                l(1) =   0
                l(2) =   0
     Q(r) pseudized with 0 coefficients 


     PseudoPot. # 3 for O  read from file:
     /home/fnattino/Programs/qe-6.1/Environ/tests/../..//pseudo/O.pbe-rrkjus.UPF
     MD5 check sum: 390ba29e75625707450f3bd3f0eb6be9
     Pseudo is Ultrasoft, Zval =  6.0
     Generated by new atomic code, or converted to UPF format
     Using radial grid of 1269 points,  4 beta functions with: 
                l(1) =   0
                l(2) =   0
                l(3) =   1
                l(4) =   1
     Q(r) pseudized with 0 coefficients 


     atomic species   valence    mass     pseudopotential
        C              4.00    12.00000     C ( 1.00)
        H              1.00     1.00000     H ( 1.00)
        O              6.00    16.00000     O ( 1.00)

      2 Sym. Ops. (no inversion) found



   Cartesian axes

     site n.     atom                  positions (alat units)
         1           C   tau(   1) = (   0.0000000   0.0000000   0.0000000  )
         2           C   tau(   2) = (   0.0000000   0.0000000   0.1455089  )
         3           O   tau(   3) = (   0.1170969   0.0000000  -0.0545024  )
         4           H   tau(   4) = (   0.0476617  -0.0825466   0.1792090  )
         5           H   tau(   5) = (  -0.0953183  -0.0000030   0.1792090  )
         6           H   tau(   6) = (   0.0476566   0.0825496   0.1792090  )
         7           O   tau(   7) = (  -0.0984002  -0.0000019  -0.0641310  )

     number of k points=     1
                       cart. coord. in units 2pi/alat
        k(    1) = (   0.0000000   0.0000000   0.0000000), wk =   2.0000000

     Dense  grid:   350738 G-vectors     FFT dimensions: ( 120, 120, 120)

     Smooth grid:    88755 G-vectors     FFT dimensions: (  72,  72,  72)

     Estimated max dynamical RAM per process >     292.61MB

     Initial potential from superposition of free atoms
     Check: negative starting charge=   -0.000600

     starting charge   22.71128, renormalised to   24.00000

     negative rho (up, down):  6.345E-04 0.000E+00
     Starting wfc are   19 randomized atomic wfcs

     total cpu time spent up to now is        2.9 secs

     per-process dynamical memory:   604.5 Mb

     Self-consistent Calculation

     iteration #  1     ecut=    30.00 Ry     beta=0.70
     Davidson diagonalization with overlap
     ethr =  1.00E-02,  avg # of iterations =  2.0

     negative rho (up, down):  1.721E-04 0.000E+00

     add environment contribution to local potential
     polarization accuracy = 6.8E-06, # of iterations =  25

     total cpu time spent up to now is        7.5 secs

     total energy              =     -89.65071491 Ry
     Harris-Foulkes estimate   =     -91.05801329 Ry
     estimated scf accuracy    <       1.85536135 Ry
     electrostatic embedding   =       0.00000000 Ry
     PV energy                 =       0.01088192 Ry
     correction to one-el term =       0.00000000 Ry

     iteration #  2     ecut=    30.00 Ry     beta=0.70
     Davidson diagonalization with overlap
     ethr =  7.73E-03,  avg # of iterations =  3.0

     negative rho (up, down):  1.455E-03 0.000E+00

     add environment contribution to local potential
     polarization accuracy = 6.4E-06, # of iterations =  29

     total cpu time spent up to now is       12.5 secs

     total energy              =     -90.18098421 Ry
     Harris-Foulkes estimate   =     -92.98642327 Ry
     estimated scf accuracy    <       0.86519171 Ry
     electrostatic embedding   =      -0.10574944 Ry
     PV energy                 =       0.01032497 Ry
     correction to one-el term =       2.41399148 Ry

     iteration #  3     ecut=    30.00 Ry     beta=0.70
     Davidson diagonalization with overlap
     ethr =  3.60E-03,  avg # of iterations =  4.0

     negative rho (up, down):  2.117E-02 0.000E+00

     add environment contribution to local potential
     polarization accuracy = 5.4E-06, # of iterations =  31

     total cpu time spent up to now is       17.8 secs

     total energy              =     -87.36418976 Ry
     Harris-Foulkes estimate   =    -105.62164119 Ry
     estimated scf accuracy    <       9.52396758 Ry
     electrostatic embedding   =       6.62570082 Ry
     PV energy                 =       0.01033076 Ry
     correction to one-el term =      11.26680620 Ry

     iteration #  4     ecut=    30.00 Ry     beta=0.70
     Davidson diagonalization with overlap
     ethr =  3.60E-03,  avg # of iterations =  5.0

     negative rho (up, down):  1.194E-03 0.000E+00

     add environment contribution to local potential
     polarization accuracy = 7.1E-06, # of iterations =  26

     total cpu time spent up to now is       22.6 secs

     total energy              =     -95.03975829 Ry
     Harris-Foulkes estimate   =     -88.93868303 Ry
     estimated scf accuracy    <       1.04223381 Ry
     electrostatic embedding   =      -4.03943867 Ry
     PV energy                 =       0.01028301 Ry
     correction to one-el term =      -2.16558113 Ry

     iteration #  5     ecut=    30.00 Ry     beta=0.70
     Davidson diagonalization with overlap
     ethr =  3.60E-03,  avg # of iterations =  3.0

     negative rho (up, down):  9.271E-04 0.000E+00

     add environment contribution to local potential
     polarization accuracy = 9.8E-06, # of iterations =  26

     total cpu time spent up to now is       27.3 secs

     total energy              =     -90.41479905 Ry
     Harris-Foulkes estimate   =     -93.24240601 Ry
     estimated scf accuracy    <       0.07495718 Ry
     electrostatic embedding   =      -0.15662571 Ry
     PV energy                 =       0.01042617 Ry
     correction to one-el term =       2.94787643 Ry

     iteration #  6     ecut=    30.00 Ry     beta=0.70
     Davidson diagonalization with overlap
     ethr =  3.12E-04,  avg # of iterations =  3.0

     negative rho (up, down):  1.195E-03 0.000E+00

     add environment contribution to local potential
     polarization accuracy = 6.3E-06, # of iterations =  27

     total cpu time spent up to now is       32.1 secs

     total energy              =     -90.42993273 Ry
     Harris-Foulkes estimate   =     -93.53955712 Ry
     estimated scf accuracy    <       0.02002825 Ry
     electrostatic embedding   =      -0.17395165 Ry
     PV energy                 =       0.01038108 Ry
     correction to one-el term =       3.27118881 Ry

     iteration #  7     ecut=    30.00 Ry     beta=0.70
     Davidson diagonalization with overlap
     ethr =  8.35E-05,  avg # of iterations =  2.0

     negative rho (up, down):  1.242E-03 0.000E+00

     add environment contribution to local potential
     polarization accuracy = 1.0E-05, # of iterations =  26

     total cpu time spent up to now is       36.7 secs

     total energy              =     -90.43121306 Ry
     Harris-Foulkes estimate   =     -93.73246540 Ry
     estimated scf accuracy    <       0.01594996 Ry
     electrostatic embedding   =      -0.18323649 Ry
     PV energy                 =       0.01038194 Ry
     correction to one-el term =       3.47309672 Ry

     iteration #  8     ecut=    30.00 Ry     beta=0.70
     Davidson diagonalization with overlap
     ethr =  6.65E-05,  avg # of iterations =  1.0

     negative rho (up, down):  1.451E-03 0.000E+00

     add environment contribution to local potential
     polarization accuracy = 9.7E-06, # of iterations =  26

     total cpu time spent up to now is       41.3 secs

     total energy              =     -90.43161305 Ry
     Harris-Foulkes estimate   =     -93.90405738 Ry
     estimated scf accuracy    <       0.01206894 Ry
     electrostatic embedding   =      -0.18962770 Ry
     PV energy                 =       0.01041481 Ry
     correction to one-el term =       3.65114685 Ry

     iteration #  9     ecut=    30.00 Ry     beta=0.70
     Davidson diagonalization with overlap
     ethr =  5.03E-05,  avg # of iterations =  1.0

     negative rho (up, down):  1.158E-03 0.000E+00

     add environment contribution to local potential
     polarization accuracy = 9.1E-06, # of iterations =  26

     total cpu time spent up to now is       45.9 secs

     total energy              =     -90.43178771 Ry
     Harris-Foulkes estimate   =     -94.00119910 Ry
     estimated scf accuracy    <       0.00980944 Ry
     electrostatic embedding   =      -0.19366255 Ry
     PV energy                 =       0.01040950 Ry
     correction to one-el term =       3.75250851 Ry

     iteration # 10     ecut=    30.00 Ry     beta=0.70
     Davidson diagonalization with overlap
     ethr =  4.09E-05,  avg # of iterations =  1.0

     negative rho (up, down):  9.579E-04 0.000E+00

     add environment contribution to local potential
     polarization accuracy = 6.1E-06, # of iterations =  27

     total cpu time spent up to now is       50.6 secs

     total energy              =     -90.43156441 Ry
     Harris-Foulkes estimate   =     -94.03367504 Ry
     estimated scf accuracy    <       0.00891122 Ry
     electrostatic embedding   =      -0.19436853 Ry
     PV energy                 =       0.01041209 Ry
     correction to one-el term =       3.78584519 Ry

     iteration # 11     ecut=    30.00 Ry     beta=0.70
     Davidson diagonalization with overlap
     ethr =  3.71E-05,  avg # of iterations =  3.0

     negative rho (up, down):  1.708E-04 0.000E+00

     total cpu time spent up to now is       52.3 secs

     End of self-consistent calculation

          k = 0.0000 0.0000 0.0000 ( 11060 PWs)   bands (ev):

   -25.3270 -22.4224 -16.8268 -11.7894  -9.9105  -9.8586  -9.7759  -8.3170
    -7.9505  -5.8029  -5.5197  -5.0172

     highest occupied level (ev):    -5.0172

!    total energy              =     -90.17005282 Ry
     Harris-Foulkes estimate   =     -94.38457169 Ry
     estimated scf accuracy    <       0.00025033 Ry

     The total energy is the sum of the following terms:

     one-electron contribution =    -245.75951067 Ry
     hartree contribution      =     127.98641189 Ry
     xc contribution           =     -23.55031034 Ry
     ewald contribution        =      46.93894023 Ry
     electrostatic embedding   =       0.06209561 Ry
     PV energy                 =       0.01041249 Ry
     correction to one-el term =       4.14190797 Ry

     convergence has been achieved in  11 iterations

     Forces acting on atoms (cartesian axes, Ry/au):

     atom    1 type  1   force =     0.13570687    0.00000000   -0.01688297
     atom    2 type  1   force =    -0.02159652    0.00000000   -0.11339981
     atom    3 type  3   force =    -0.16875158    0.00000000    0.07345707
     atom    4 type  2   force =     0.01927744   -0.03113193    0.00328942
     atom    5 type  2   force =    -0.03820094    0.00000000    0.00654014
     atom    6 type  2   force =     0.01927744    0.03113193    0.00328942
     atom    7 type  3   force =     0.05428727    0.00000000    0.04370672

     Total force =     0.273794     Total SCF correction =     0.015668

     Writing output data file pwscf.save
 
     init_run     :      2.70s CPU      2.85s WALL (       1 calls)
     electrons    :     45.28s CPU     49.48s WALL (       1 calls)
     forces       :      0.54s CPU      0.60s WALL (       1 calls)

     Called by init_run:
     wfcinit      :      0.08s CPU      0.09s WALL (       1 calls)
     potinit      :      1.12s CPU      1.17s WALL (       1 calls)

     Called by electrons:
     c_bands      :      1.71s CPU      1.73s WALL (      11 calls)
     sum_band     :      4.24s CPU      4.70s WALL (      11 calls)
     v_of_rho     :      6.29s CPU      6.55s WALL (      12 calls)
     newd         :      2.04s CPU      2.46s WALL (      12 calls)
     mix_rho      :      0.69s CPU      0.69s WALL (      11 calls)

     Called by c_bands:
     init_us_2    :      0.08s CPU      0.08s WALL (      23 calls)
     regterg      :      1.58s CPU      1.59s WALL (      11 calls)

     Called by sum_band:
     sum_band:bec :      0.00s CPU      0.00s WALL (      11 calls)
     addusdens    :      2.94s CPU      3.37s WALL (      11 calls)

     Called by *egterg:
     h_psi        :      1.45s CPU      1.47s WALL (      40 calls)
     s_psi        :      0.04s CPU      0.03s WALL (      40 calls)
     g_psi        :      0.02s CPU      0.02s WALL (      28 calls)
     rdiaghg      :      0.00s CPU      0.01s WALL (      39 calls)

     Called by h_psi:
     h_psi:pot    :      1.44s CPU      1.46s WALL (      40 calls)
     h_psi:calbec :      0.03s CPU      0.04s WALL (      40 calls)
     vloc_psi     :      1.37s CPU      1.38s WALL (      40 calls)
     add_vuspsi   :      0.04s CPU      0.03s WALL (      40 calls)

     General routines
     calbec       :      0.05s CPU      0.06s WALL (      55 calls)
     fft          :     19.31s CPU     20.46s WALL (     919 calls)
     ffts         :      0.06s CPU      0.08s WALL (      23 calls)
     fftw         :      1.08s CPU      1.08s WALL (     478 calls)
     interpolate  :      0.67s CPU      0.76s WALL (      23 calls)
     davcio       :      0.00s CPU      0.00s WALL (       1 calls)
 
     Parallel routines
     fft_scatter  :      4.83s CPU      5.54s WALL (    1420 calls)
 
     Environ routines
     calc_eelect  :      0.03s CPU      0.03s WALL (      22 calls)
     calc_velect  :     22.88s CPU     25.62s WALL (      20 calls)
     dielectric   :      0.62s CPU      0.62s WALL (      13 calls)
     calc_felect  :      0.06s CPU      0.07s WALL (       1 calls)
 
     PWSCF        :    48.74s CPU        53.16s WALL

 
   This run was terminated on:  12:44:32   1Feb2018            

=------------------------------------------------------------------------------=
   JOB DONE.
=------------------------------------------------------------------------------=

%%%% IONS %%%%%%%%%%%%%%%%%%%%%%%%%%%%%%%%%%%%%%%%%%%%%%%%%%%%%%%%%%%%%%%%%%%%%%
 number of ions             =          7
 ionic center of charge     =      0.0048774    -0.0000005     0.0177332
 total ionic charge         =    -23.0000000
 ionic dipole               =      0.0000000     0.0000000     0.0000000
 ionic quadrupole (pc)      =    -61.3787794    -5.4513517   -86.5224183
 ionic quadrupole (gauss)   =    -64.2537794    -8.3263517   -89.3974183
 ion   1 type =  1 coordinates =      0.0000000     0.0000000     0.0000000
 ion   2 type =  1 coordinates =      0.0000000     0.0000000     2.9101782
 ion   3 type =  3 coordinates =      2.3419379     0.0000000    -1.0900479
 ion   4 type =  2 coordinates =      0.9532347    -1.6509323     3.5841800
 ion   5 type =  2 coordinates =     -1.9063663    -0.0000596     3.5841809
 ion   6 type =  2 coordinates =      0.9531315     1.6509919     3.5841800
 ion   7 type =  3 coordinates =     -1.9680045    -0.0000375    -1.2826193

%%%% SYSTEM %%%%%%%%%%%%%%%%%%%%%%%%%%%%%%%%%%%%%%%%%%%%%%%%%%%%%%%%%%%%%%%%%%%%
 system is built from all present ionic types
 system defined dimension   =  0 
 system defined axis        =  3 
 system center              =      0.0048774    -0.0000005     0.0177332 
 system width               =      0.1900359 

%%%% ELECTRONS %%%%%%%%%%%%%%%%%%%%%%%%%%%%%%%%%%%%%%%%%%%%%%%%%%%%%%%%%%%%%%%%%
 number of electrons        =         23
 total electronic charge    =     24.0000000
 number of spin components  =  1

%%%% BOUNDARY %%%%%%%%%%%%%%%%%%%%%%%%%%%%%%%%%%%%%%%%%%%%%%%%%%%%%%%%%%%%%%%%%%
 boundary mode              = electronic           
 boundary is built as a function of a smooth density
 function type              =  2 
 using the modified SCCS function with parameters 
 rhomax                     =      0.0155000 
 rhomin                     =      0.0024000 
 volume of the QM region    =    355.7302307 
 surface of the QM region   =    264.3643836 

%%%% DIELECTRIC %%%%%%%%%%%%%%%%%%%%%%%%%%%%%%%%%%%%%%%%%%%%%%%%%%%%%%%%%%%%%%%%%
 dielectric build on homogeneous background
 environment bulk permitt.  =     78.3000000 
 dielectric flags
 need gradient              =  F 
 need factor depend. sqrt   =  T 
 total dielectric charge    =      0.0000000

%%%% ELECTRONS %%%%%%%%%%%%%%%%%%%%%%%%%%%%%%%%%%%%%%%%%%%%%%%%%%%%%%%%%%%%%%%%%
 number of electrons        =         24
 total electronic charge    =     24.0000000
 number of spin components  =  1

%%%% BOUNDARY %%%%%%%%%%%%%%%%%%%%%%%%%%%%%%%%%%%%%%%%%%%%%%%%%%%%%%%%%%%%%%%%%%
 boundary mode              = electronic           
 boundary is built as a function of a smooth density
 function type              =  2 
 using the modified SCCS function with parameters 
 rhomax                     =      0.0155000 
 rhomin                     =      0.0024000 
 volume of the QM region    =    337.5233842 
 surface of the QM region   =    259.6092468 

%%%% DIELECTRIC %%%%%%%%%%%%%%%%%%%%%%%%%%%%%%%%%%%%%%%%%%%%%%%%%%%%%%%%%%%%%%%%%
 dielectric build on homogeneous background
 environment bulk permitt.  =     78.3000000 
 dielectric flags
 need gradient              =  F 
 need factor depend. sqrt   =  T 
 total dielectric charge    =      0.0000000

%%%% COMPUTE ELECTROSTATIC POTENTIAL %%%%%%%%%%%%%%%%%%%%%%%%%%%%%%%%%%%%%%%%%%%
 Iteration #          1
  pAp =    95.9109250866239       rzold =    94.5805774958272       alpha = 
  0.986129342516558     
 delta_qm =   0.393989E-01 delta_en =   0.268232E+04 tol =   0.100000E-04
 Iteration #          2
  pAp =    229.369002555762       rzold =    15.5608266338646       alpha = 
  6.784188996977285E-002
 delta_qm =   0.121343E-01 delta_en =   0.254434E+03 tol =   0.100000E-04
 Iteration #          3
  pAp =    8.39897575117247       rzold =   0.932958152899792       alpha = 
  0.111079991244117     
 delta_qm =   0.443031E-02 delta_en =   0.339166E+02 tol =   0.100000E-04
 Iteration #          4
  pAp =    2.37874738561346       rzold =   0.215495149524034       alpha = 
  9.059185974405577E-002
 delta_qm =   0.322812E-02 delta_en =   0.180071E+02 tol =   0.100000E-04
 Iteration #          5
  pAp =   8.450222906360179E-002  rzold =   1.437778073818917E-002  alpha = 
  0.170146762961336     
 delta_qm =   0.273163E-02 delta_en =   0.128940E+02 tol =   0.100000E-04
 Iteration #          6
  pAp =   1.321622193436224E-002  rzold =   3.404530162931395E-003  alpha = 
  0.257602375311177     
 delta_qm =   0.222645E-02 delta_en =   0.856584E+01 tol =   0.100000E-04
 Iteration #          7
  pAp =   1.915991592537265E-002  rzold =   3.910485848652424E-003  alpha = 
  0.204097234240675     
 delta_qm =   0.162234E-02 delta_en =   0.454810E+01 tol =   0.100000E-04
 Iteration #          8
  pAp =   6.353402065840287E-003  rzold =   1.979638316109590E-003  alpha = 
  0.311587130106769     
 delta_qm =   0.126074E-02 delta_en =   0.274658E+01 tol =   0.100000E-04
 Iteration #          9
  pAp =   4.174520186444426E-003  rzold =   1.426633784014891E-003  alpha = 
  0.341747966304602     
 delta_qm =   0.990472E-03 delta_en =   0.169523E+01 tol =   0.100000E-04
 Iteration #         10
  pAp =   3.699306126493000E-003  rzold =   1.305066234101432E-003  alpha = 
  0.352786763105398     
 delta_qm =   0.648634E-03 delta_en =   0.727014E+00 tol =   0.100000E-04
 Iteration #         11
  pAp =   2.575776785773888E-003  rzold =   9.065252541669752E-004  alpha = 
  0.351942473887391     
 delta_qm =   0.329372E-03 delta_en =   0.187463E+00 tol =   0.100000E-04
 Iteration #         12
  pAp =   1.551973309908403E-003  rzold =   3.029054990600189E-004  alpha = 
  0.195174425440278     
 delta_qm =   0.234263E-03 delta_en =   0.948309E-01 tol =   0.100000E-04
 Iteration #         13
  pAp =   2.163740103753406E-004  rzold =   5.632403376755121E-005  alpha = 
  0.260308683422038     
 delta_qm =   0.192156E-03 delta_en =   0.638043E-01 tol =   0.100000E-04
 Iteration #         14
  pAp =   3.985453820991192E-005  rzold =   1.344228138743982E-005  alpha = 
  0.337283581524392     
 delta_qm =   0.151253E-03 delta_en =   0.395322E-01 tol =   0.100000E-04
 Iteration #         15
  pAp =   5.715451744462803E-005  rzold =   1.207048414440875E-005  alpha = 
  0.211190378015225     
 delta_qm =   0.115829E-03 delta_en =   0.231833E-01 tol =   0.100000E-04
 Iteration #         16
  pAp =   1.487872969120538E-005  rzold =   7.464602030252122E-006  alpha = 
  0.501696192159761     
 delta_qm =   0.684253E-04 delta_en =   0.809053E-02 tol =   0.100000E-04
 Iteration #         17
  pAp =   9.726837342858296E-006  rzold =   3.777293686818292E-006  alpha = 
  0.388337293374365     
 delta_qm =   0.522859E-04 delta_en =   0.472403E-02 tol =   0.100000E-04
 Iteration #         18
  pAp =   5.110841834697381E-006  rzold =   1.759762092070495E-006  alpha = 
  0.344319419185214     
 delta_qm =   0.345300E-04 delta_en =   0.206033E-02 tol =   0.100000E-04
 Iteration #         19
  pAp =   1.339937948412335E-006  rzold =   5.746100068007549E-007  alpha = 
  0.428833295960905     
 delta_qm =   0.180813E-04 delta_en =   0.564943E-03 tol =   0.100000E-04
 Iteration #         20
  pAp =   7.655690051891046E-007  rzold =   2.302635054989871E-007  alpha = 
  0.300774331168370     
 delta_qm =   0.126633E-04 delta_en =   0.277099E-03 tol =   0.100000E-04
 Iteration #         21
  pAp =   2.389864842527422E-007  rzold =   7.463923382209852E-008  alpha = 
  0.312315711306766     
 delta_qm =   0.945463E-05 delta_en =   0.154466E-03 tol =   0.100000E-04
 Iteration #         22
  pAp =   1.258204013774222E-007  rzold =   4.240050284430096E-008  alpha = 
  0.336992271365536     
 delta_qm =   0.681060E-05 delta_en =   0.801520E-04 tol =   0.100000E-04
 Iteration #         23
  pAp =   8.689186595801256E-008  rzold =   2.912136040878250E-008  alpha = 
  0.335144838791405     
 delta_qm =   0.439528E-05 delta_en =   0.333823E-04 tol =   0.100000E-04
 Iteration #         24
  pAp =   2.605756299603192E-007  rzold =   3.149263727057123E-008  alpha = 
  0.120857953122351     
 delta_qm =   0.349792E-05 delta_en =   0.211428E-04 tol =   0.100000E-04
 Iteration #         25
  pAp =   1.048189469375860E-007  rzold =   1.981985116485449E-008  alpha = 
  0.189086532005098     
 delta_qm =   0.198305E-05 delta_en =   0.679535E-05 tol =   0.100000E-04
 Charges are converged, EXIT

%%%% ELECTRONS %%%%%%%%%%%%%%%%%%%%%%%%%%%%%%%%%%%%%%%%%%%%%%%%%%%%%%%%%%%%%%%%%
 number of electrons        =         23
 total electronic charge    =     24.0000000
 number of spin components  =  1

%%%% BOUNDARY %%%%%%%%%%%%%%%%%%%%%%%%%%%%%%%%%%%%%%%%%%%%%%%%%%%%%%%%%%%%%%%%%%
 boundary mode              = electronic           
 boundary is built as a function of a smooth density
 function type              =  2 
 using the modified SCCS function with parameters 
 rhomax                     =      0.0155000 
 rhomin                     =      0.0024000 
 volume of the QM region    =    337.7127938 
 surface of the QM region   =    261.3549321 

%%%% DIELECTRIC %%%%%%%%%%%%%%%%%%%%%%%%%%%%%%%%%%%%%%%%%%%%%%%%%%%%%%%%%%%%%%%%%
 dielectric build on homogeneous background
 environment bulk permitt.  =     78.3000000 
 dielectric flags
 need gradient              =  F 
 need factor depend. sqrt   =  T 
 total dielectric charge    =     -0.9826127

%%%% COMPUTE ELECTROSTATIC POTENTIAL %%%%%%%%%%%%%%%%%%%%%%%%%%%%%%%%%%%%%%%%%%%
 Warning: bad guess with residual norm =   0.115198E+05, reset to no guess
 Iteration #          1
  pAp =    91.1877127592466       rzold =    93.2799801674274       alpha = 
   1.02294461989309     
 delta_qm =   0.834602E-01 delta_en =   0.120366E+05 tol =   0.100000E-04
 Iteration #          2
  pAp =    426.700421785981       rzold =    33.6436009300651       alpha = 
  7.884595189582350E-002
 delta_qm =   0.644604E-01 delta_en =   0.718009E+04 tol =   0.100000E-04
 Iteration #          3
  pAp =    5.21045710896976       rzold =    3.72296314148576       alpha = 
  0.714517567964758     
 delta_qm =   0.610810E-01 delta_en =   0.644698E+04 tol =   0.100000E-04
 Iteration #          4
  pAp =    64.4648114520383       rzold =    13.9219666904417       alpha = 
  0.215962264945111     
 delta_qm =   0.514174E-01 delta_en =   0.456839E+04 tol =   0.100000E-04
 Iteration #          5
  pAp =    145.477617056835       rzold =    19.0388833912273       alpha = 
  0.130871564824912     
 delta_qm =   0.215248E-01 delta_en =   0.800612E+03 tol =   0.100000E-04
 Iteration #          6
  pAp =    17.4413140228959       rzold =    2.47665480239474       alpha = 
  0.141999324084386     
 delta_qm =   0.790730E-02 delta_en =   0.108044E+03 tol =   0.100000E-04
 Iteration #          7
  pAp =    3.41294852690943       rzold =   0.344516564341495       alpha = 
  0.100943967254458     
 delta_qm =   0.431879E-02 delta_en =   0.322306E+02 tol =   0.100000E-04
 Iteration #          8
  pAp =   0.237989212773315       rzold =   4.482462292517397E-002  alpha = 
  0.188347288529709     
 delta_qm =   0.269932E-02 delta_en =   0.125908E+02 tol =   0.100000E-04
 Iteration #          9
  pAp =   4.367718877722751E-002  rzold =   1.018093699731755E-002  alpha = 
  0.233095061342998     
 delta_qm =   0.164510E-02 delta_en =   0.467656E+01 tol =   0.100000E-04
 Iteration #         10
  pAp =   1.458188972329735E-002  rzold =   3.679284187408026E-003  alpha = 
  0.252318749985447     
 delta_qm =   0.806483E-03 delta_en =   0.112392E+01 tol =   0.100000E-04
 Iteration #         11
  pAp =   3.977255645453522E-003  rzold =   1.020427170534331E-003  alpha = 
  0.256565647647217     
 delta_qm =   0.460851E-03 delta_en =   0.367000E+00 tol =   0.100000E-04
 Iteration #         12
  pAp =   1.206229061180531E-003  rzold =   2.536796680975796E-004  alpha = 
  0.210308038714723     
 delta_qm =   0.453873E-03 delta_en =   0.355969E+00 tol =   0.100000E-04
 Iteration #         13
  pAp =   1.898036713196539E-004  rzold =   7.931099372655796E-005  alpha = 
  0.417858059199434     
 delta_qm =   0.332090E-03 delta_en =   0.190570E+00 tol =   0.100000E-04
 Iteration #         14
  pAp =   9.648016718966672E-005  rzold =   6.048195658726278E-005  alpha = 
  0.626884865035148     
 delta_qm =   0.234002E-03 delta_en =   0.946197E-01 tol =   0.100000E-04
 Iteration #         15
  pAp =   2.167659514384783E-004  rzold =   6.979065544402589E-005  alpha = 
  0.321963181859922     
 delta_qm =   0.179113E-03 delta_en =   0.554368E-01 tol =   0.100000E-04
 Iteration #         16
  pAp =   3.495781208529091E-004  rzold =   5.873918110841797E-005  alpha = 
  0.168028768405485     
 delta_qm =   0.149384E-03 delta_en =   0.385613E-01 tol =   0.100000E-04
 Iteration #         17
  pAp =   3.040001053300816E-005  rzold =   1.073875790390129E-005  alpha = 
  0.353248492866185     
 delta_qm =   0.100683E-03 delta_en =   0.175167E-01 tol =   0.100000E-04
 Iteration #         18
  pAp =   1.134522267571317E-005  rzold =   3.625905849984267E-006  alpha = 
  0.319597592187087     
 delta_qm =   0.695887E-04 delta_en =   0.836800E-02 tol =   0.100000E-04
 Iteration #         19
  pAp =   3.888101468270394E-006  rzold =   1.623666693906390E-006  alpha = 
  0.417598847961309     
 delta_qm =   0.426804E-04 delta_en =   0.314775E-02 tol =   0.100000E-04
 Iteration #         20
  pAp =   2.558236936957345E-006  rzold =   9.400885102485060E-007  alpha = 
  0.367475153168028     
 delta_qm =   0.336804E-04 delta_en =   0.196019E-02 tol =   0.100000E-04
 Iteration #         21
  pAp =   9.524978814056262E-007  rzold =   4.754119315878149E-007  alpha = 
  0.499121248318408     
 delta_qm =   0.276741E-04 delta_en =   0.132340E-02 tol =   0.100000E-04
 Iteration #         22
  pAp =   8.707820282337122E-007  rzold =   3.578880653489247E-007  alpha = 
  0.410996154887191     
 delta_qm =   0.185974E-04 delta_en =   0.597650E-03 tol =   0.100000E-04
 Iteration #         23
  pAp =   6.496209327319619E-007  rzold =   1.897070926588209E-007  alpha = 
  0.292027370271172     
 delta_qm =   0.123198E-04 delta_en =   0.262270E-03 tol =   0.100000E-04
 Iteration #         24
  pAp =   6.645341796037968E-007  rzold =   1.108059499075322E-007  alpha = 
  0.166742288520955     
 delta_qm =   0.983275E-05 delta_en =   0.167068E-03 tol =   0.100000E-04
 Iteration #         25
  pAp =   7.224336830009322E-007  rzold =   7.503036887578179E-008  alpha = 
  0.103857794343297     
 delta_qm =   0.768149E-05 delta_en =   0.101961E-03 tol =   0.100000E-04
 Iteration #         26
  pAp =   6.982143096918321E-008  rzold =   2.293027254495706E-008  alpha = 
  0.328413099340197     
 delta_qm =   0.491389E-05 delta_en =   0.417248E-04 tol =   0.100000E-04
 Iteration #         27
  pAp =   1.494856315042617E-008  rzold =   8.784427898416707E-009  alpha = 
  0.587643629024390     
 delta_qm =   0.302934E-05 delta_en =   0.158577E-04 tol =   0.100000E-04
 Iteration #         28
  pAp =   1.492224611235600E-008  rzold =   5.894066703980302E-009  alpha = 
  0.394985222707181     
 delta_qm =   0.241477E-05 delta_en =   0.100762E-04 tol =   0.100000E-04
 Iteration #         29
  pAp =   8.970391554260055E-009  rzold =   2.584589062613034E-009  alpha = 
  0.288124442169485     
 delta_qm =   0.192624E-05 delta_en =   0.641159E-05 tol =   0.100000E-04
 Charges are converged, EXIT

%%%% ELECTRONS %%%%%%%%%%%%%%%%%%%%%%%%%%%%%%%%%%%%%%%%%%%%%%%%%%%%%%%%%%%%%%%%%
 number of electrons        =         24
 total electronic charge    =     24.0000000
 number of spin components  =  1

%%%% BOUNDARY %%%%%%%%%%%%%%%%%%%%%%%%%%%%%%%%%%%%%%%%%%%%%%%%%%%%%%%%%%%%%%%%%%
 boundary mode              = electronic           
 boundary is built as a function of a smooth density
 function type              =  2 
 using the modified SCCS function with parameters 
 rhomax                     =      0.0155000 
 rhomin                     =      0.0024000 
 volume of the QM region    =    336.1517457 
 surface of the QM region   =    261.0634984 

%%%% DIELECTRIC %%%%%%%%%%%%%%%%%%%%%%%%%%%%%%%%%%%%%%%%%%%%%%%%%%%%%%%%%%%%%%%%%
 dielectric build on homogeneous background
 environment bulk permitt.  =     78.3000000 
 dielectric flags
 need gradient              =  F 
 need factor depend. sqrt   =  T 
 total dielectric charge    =      0.1506276

%%%% COMPUTE ELECTROSTATIC POTENTIAL %%%%%%%%%%%%%%%%%%%%%%%%%%%%%%%%%%%%%%%%%%%
 Warning: bad guess with residual norm =   0.233459E+08, reset to no guess
 Iteration #          1
  pAp =    65.7276361942541       rzold =    92.3232701040908       alpha = 
   1.40463396296856     
 delta_qm =   0.516124E+01 delta_en =   0.460311E+08 tol =   0.100000E-04
 Iteration #          2
  pAp =   -941.212179858743       rzold =    326.452172606314       alpha = 
 -0.346842273816843     
 delta_qm =   0.605895E+01 delta_en =   0.634363E+08 tol =   0.100000E-04
 Iteration #          3
  pAp =    54770.6459232357       rzold =    1930.03930009085       alpha = 
  3.523857109145504E-002
 delta_qm =   0.290922E-01 delta_en =   0.146250E+04 tol =   0.100000E-04
 Iteration #          4
  pAp =    31.7746033415960       rzold =    3.22179384858856       alpha = 
  0.101395249972198     
 delta_qm =   0.161417E-01 delta_en =   0.450236E+03 tol =   0.100000E-04
 Iteration #          5
  pAp =    11.0304364938705       rzold =   0.973524236709774       alpha = 
  8.825799751902390E-002
 delta_qm =   0.405718E-02 delta_en =   0.284441E+02 tol =   0.100000E-04
 Iteration #          6
  pAp =   0.405015679879535       rzold =   5.500525775040820E-002  alpha = 
  0.135810193241824     
 delta_qm =   0.337727E-02 delta_en =   0.197095E+02 tol =   0.100000E-04
 Iteration #          7
  pAp =   6.198514232988243E-002  rzold =   9.908431785580631E-003  alpha = 
  0.159851722737819     
 delta_qm =   0.290196E-02 delta_en =   0.145521E+02 tol =   0.100000E-04
 Iteration #          8
  pAp =   2.495249623281452E-002  rzold =   6.157643564594429E-003  alpha = 
  0.246774651607667     
 delta_qm =   0.244637E-02 delta_en =   0.103416E+02 tol =   0.100000E-04
 Iteration #          9
  pAp =   9.136316173914144E-003  rzold =   3.370479884192117E-003  alpha = 
  0.368910162480525     
 delta_qm =   0.201426E-02 delta_en =   0.701092E+01 tol =   0.100000E-04
 Iteration #         10
  pAp =   6.842335098683997E-003  rzold =   2.457659029117445E-003  alpha = 
  0.359184254157639     
 delta_qm =   0.169172E-02 delta_en =   0.494539E+01 tol =   0.100000E-04
 Iteration #         11
  pAp =   7.563824353930073E-003  rzold =   2.497628294266005E-003  alpha = 
  0.330207072162942     
 delta_qm =   0.122448E-02 delta_en =   0.259089E+01 tol =   0.100000E-04
 Iteration #         12
  pAp =   3.680775183182906E-003  rzold =   1.602943074539724E-003  alpha = 
  0.435490622155738     
 delta_qm =   0.578451E-03 delta_en =   0.578198E+00 tol =   0.100000E-04
 Iteration #         13
  pAp =   2.625744821138093E-003  rzold =   6.446463006458608E-004  alpha = 
  0.245509881789064     
 delta_qm =   0.316742E-03 delta_en =   0.173362E+00 tol =   0.100000E-04
 Iteration #         14
  pAp =   7.342040889649692E-004  rzold =   1.674752291115579E-004  alpha = 
  0.228104462544812     
 delta_qm =   0.251626E-03 delta_en =   0.109410E+00 tol =   0.100000E-04
 Iteration #         15
  pAp =   1.300269828292327E-004  rzold =   3.327460554515366E-005  alpha = 
  0.255905388413526     
 delta_qm =   0.188852E-03 delta_en =   0.616293E-01 tol =   0.100000E-04
 Iteration #         16
  pAp =   7.819665747688138E-005  rzold =   1.607096797084158E-005  alpha = 
  0.205519883961702     
 delta_qm =   0.145972E-03 delta_en =   0.368202E-01 tol =   0.100000E-04
 Iteration #         17
  pAp =   2.703042758517612E-005  rzold =   9.332276789537669E-006  alpha = 
  0.345250801532108     
 delta_qm =   0.103611E-03 delta_en =   0.185504E-01 tol =   0.100000E-04
 Iteration #         18
  pAp =   1.297705367774305E-005  rzold =   5.432982630193485E-006  alpha = 
  0.418660719536947     
 delta_qm =   0.675505E-04 delta_en =   0.788499E-02 tol =   0.100000E-04
 Iteration #         19
  pAp =   1.152610430898678E-005  rzold =   3.809646332383184E-006  alpha = 
  0.330523326030708     
 delta_qm =   0.608519E-04 delta_en =   0.639870E-02 tol =   0.100000E-04
 Iteration #         20
  pAp =   3.430597815881206E-006  rzold =   1.382257700543918E-006  alpha = 
  0.402920358120983     
 delta_qm =   0.408873E-04 delta_en =   0.288882E-02 tol =   0.100000E-04
 Iteration #         21
  pAp =   1.835392087453376E-006  rzold =   6.701332523201003E-007  alpha = 
  0.365117217678494     
 delta_qm =   0.243268E-04 delta_en =   0.102262E-02 tol =   0.100000E-04
 Iteration #         22
  pAp =   5.405114739340231E-007  rzold =   2.025809223099412E-007  alpha = 
  0.374794860200635     
 delta_qm =   0.140813E-04 delta_en =   0.342634E-03 tol =   0.100000E-04
 Iteration #         23
  pAp =   2.480498152463500E-007  rzold =   8.213658991597445E-008  alpha = 
  0.331129413801017     
 delta_qm =   0.955448E-05 delta_en =   0.157746E-03 tol =   0.100000E-04
 Iteration #         24
  pAp =   2.415976412598937E-007  rzold =   4.675984038773241E-008  alpha = 
  0.193544275283017     
 delta_qm =   0.792492E-05 delta_en =   0.108526E-03 tol =   0.100000E-04
 Iteration #         25
  pAp =   3.698125905036758E-007  rzold =   5.331254558790024E-008  alpha = 
  0.144160980336797     
 delta_qm =   0.667065E-05 delta_en =   0.768919E-04 tol =   0.100000E-04
 Iteration #         26
  pAp =   1.317784673867937E-007  rzold =   3.381742272879495E-008  alpha = 
  0.256623281476895     
 delta_qm =   0.587225E-05 delta_en =   0.595873E-04 tol =   0.100000E-04
 Iteration #         27
  pAp =   2.954059329030798E-008  rzold =   1.122876012993769E-008  alpha = 
  0.380112884652921     
 delta_qm =   0.101862E-04 delta_en =   0.179294E-03 tol =   0.100000E-04
 Iteration #         28
  pAp =   9.130332841653537E-009  rzold =   4.530245020969003E-009  alpha = 
  0.496175232550291     
 delta_qm =   0.321165E-04 delta_en =   0.178238E-02 tol =   0.100000E-04
 Iteration #         29
  pAp =  -2.118429703551212E-007  rzold =   3.176845894857958E-008  alpha = 
 -0.149962299411327     
 delta_qm =   0.353545E-04 delta_en =   0.215990E-02 tol =   0.100000E-04
 Iteration #         30
  pAp =   3.858503116720090E-007  rzold =   3.485811182313604E-008  alpha = 
  9.034102284921069E-002
 delta_qm =   0.397355E-05 delta_en =   0.272835E-04 tol =   0.100000E-04
 Iteration #         31
  pAp =   5.134859842483326E-009  rzold =   1.831571698214591E-009  alpha = 
  0.356693610809211     
 delta_qm =   0.176860E-05 delta_en =   0.540511E-05 tol =   0.100000E-04
 Charges are converged, EXIT

%%%% ELECTRONS %%%%%%%%%%%%%%%%%%%%%%%%%%%%%%%%%%%%%%%%%%%%%%%%%%%%%%%%%%%%%%%%%
 number of electrons        =         24
 total electronic charge    =     24.0000000
 number of spin components  =  1

%%%% BOUNDARY %%%%%%%%%%%%%%%%%%%%%%%%%%%%%%%%%%%%%%%%%%%%%%%%%%%%%%%%%%%%%%%%%%
 boundary mode              = electronic           
 boundary is built as a function of a smooth density
 function type              =  2 
 using the modified SCCS function with parameters 
 rhomax                     =      0.0155000 
 rhomin                     =      0.0024000 
 volume of the QM region    =    340.8317538 
 surface of the QM region   =    266.3575426 

%%%% DIELECTRIC %%%%%%%%%%%%%%%%%%%%%%%%%%%%%%%%%%%%%%%%%%%%%%%%%%%%%%%%%%%%%%%%%
 dielectric build on homogeneous background
 environment bulk permitt.  =     78.3000000 
 dielectric flags
 need gradient              =  F 
 need factor depend. sqrt   =  T 
 total dielectric charge    =     -1.6247710

%%%% COMPUTE ELECTROSTATIC POTENTIAL %%%%%%%%%%%%%%%%%%%%%%%%%%%%%%%%%%%%%%%%%%%
 Warning: bad guess with residual norm =   0.478414E+04, reset to no guess
 Iteration #          1
  pAp =    95.5106294055373       rzold =    93.1174658919564       alpha = 
  0.974943485050030     
 delta_qm =   0.513306E-01 delta_en =   0.455298E+04 tol =   0.100000E-04
 Iteration #          2
  pAp =    395.676781823026       rzold =    28.3247522484550       alpha = 
  7.158558083179066E-002
 delta_qm =   0.112910E-01 delta_en =   0.220297E+03 tol =   0.100000E-04
 Iteration #          3
  pAp =    7.41799023935488       rzold =   0.779315907443676       alpha = 
  0.105057553636179     
 delta_qm =   0.383415E-02 delta_en =   0.254028E+02 tol =   0.100000E-04
 Iteration #          4
  pAp =    2.43811831019706       rzold =   0.207744444955341       alpha = 
  8.520687617433521E-002
 delta_qm =   0.327562E-02 delta_en =   0.185409E+02 tol =   0.100000E-04
 Iteration #          5
  pAp =   9.507780921141525E-002  rzold =   1.791629466908326E-002  alpha = 
  0.188438236194994     
 delta_qm =   0.261780E-02 delta_en =   0.118418E+02 tol =   0.100000E-04
 Iteration #          6
  pAp =   7.066623116507326E-003  rzold =   2.912111520760150E-003  alpha = 
  0.412093792572238     
 delta_qm =   0.199770E-02 delta_en =   0.689609E+01 tol =   0.100000E-04
 Iteration #          7
  pAp =   2.242659734398982E-002  rzold =   3.809598484219170E-003  alpha = 
  0.169869660822181     
 delta_qm =   0.162837E-02 delta_en =   0.458195E+01 tol =   0.100000E-04
 Iteration #          8
  pAp =   7.504973958436399E-003  rzold =   2.264183935676434E-003  alpha = 
  0.301691111550260     
 delta_qm =   0.134384E-02 delta_en =   0.312060E+01 tol =   0.100000E-04
 Iteration #          9
  pAp =   5.789479143203482E-003  rzold =   1.672374509717792E-003  alpha = 
  0.288864415667006     
 delta_qm =   0.109162E-02 delta_en =   0.205913E+01 tol =   0.100000E-04
 Iteration #         10
  pAp =   3.608642983330224E-003  rzold =   1.397356921889706E-003  alpha = 
  0.387225039535543     
 delta_qm =   0.635733E-03 delta_en =   0.698382E+00 tol =   0.100000E-04
 Iteration #         11
  pAp =   2.772344644998980E-003  rzold =   8.787418963543766E-004  alpha = 
  0.316967047347282     
 delta_qm =   0.331230E-03 delta_en =   0.189585E+00 tol =   0.100000E-04
 Iteration #         12
  pAp =   1.050912276815501E-003  rzold =   2.280849420952959E-004  alpha = 
  0.217035186596587     
 delta_qm =   0.245919E-03 delta_en =   0.104503E+00 tol =   0.100000E-04
 Iteration #         13
  pAp =   2.429535023921020E-004  rzold =   6.068493422396287E-005  alpha = 
  0.249780034559961     
 delta_qm =   0.214357E-03 delta_en =   0.794000E-01 tol =   0.100000E-04
 Iteration #         14
  pAp =   4.542961020409442E-005  rzold =   1.752822281212086E-005  alpha = 
  0.385832560160093     
 delta_qm =   0.168604E-03 delta_en =   0.491222E-01 tol =   0.100000E-04
 Iteration #         15
  pAp =   2.229984830479638E-005  rzold =   1.195673899140022E-005  alpha = 
  0.536180283738903     
 delta_qm =   0.108055E-03 delta_en =   0.201759E-01 tol =   0.100000E-04
 Iteration #         16
  pAp =   1.008474136443803E-004  rzold =   1.806451758433473E-005  alpha = 
  0.179127227278588     
 delta_qm =   0.837480E-04 delta_en =   0.121197E-01 tol =   0.100000E-04
 Iteration #         17
  pAp =   1.853318460446928E-005  rzold =   7.055248841570546E-006  alpha = 
  0.380681949278656     
 delta_qm =   0.581094E-04 delta_en =   0.583494E-02 tol =   0.100000E-04
 Iteration #         18
  pAp =   8.524450874574607E-006  rzold =   2.584645343071388E-006  alpha = 
  0.303203734891647     
 delta_qm =   0.381773E-04 delta_en =   0.251857E-02 tol =   0.100000E-04
 Iteration #         19
  pAp =   2.797847004875273E-006  rzold =   1.008615847171359E-006  alpha = 
  0.360497141342553     
 delta_qm =   0.220881E-04 delta_en =   0.843061E-03 tol =   0.100000E-04
 Iteration #         20
  pAp =   1.006880935714183E-006  rzold =   3.521272399804156E-007  alpha = 
  0.349720833407826     
 delta_qm =   0.163108E-04 delta_en =   0.459719E-03 tol =   0.100000E-04
 Iteration #         21
  pAp =   3.011133554554533E-007  rzold =   1.113573464075552E-007  alpha = 
  0.369818689174780     
 delta_qm =   0.111940E-04 delta_en =   0.216528E-03 tol =   0.100000E-04
 Iteration #         22
  pAp =   1.398431661243309E-007  rzold =   5.964494481359664E-008  alpha = 
  0.426513117992250     
 delta_qm =   0.877953E-05 delta_en =   0.133195E-03 tol =   0.100000E-04
 Iteration #         23
  pAp =   5.669162299297684E-007  rzold =   6.663997332665793E-008  alpha = 
  0.117548184032257     
 delta_qm =   0.677128E-05 delta_en =   0.792291E-04 tol =   0.100000E-04
 Iteration #         24
  pAp =   1.997438179287651E-007  rzold =   5.023069225160505E-008  alpha = 
  0.251475578931403     
 delta_qm =   0.371030E-05 delta_en =   0.237882E-04 tol =   0.100000E-04
 Iteration #         25
  pAp =   5.261441970745497E-008  rzold =   1.526831034990447E-008  alpha = 
  0.290192506822252     
 delta_qm =   0.244743E-05 delta_en =   0.103506E-04 tol =   0.100000E-04
 Iteration #         26
  pAp =   3.072039700142619E-008  rzold =   6.619955565893895E-009  alpha = 
  0.215490560411266     
 delta_qm =   0.202516E-05 delta_en =   0.708703E-05 tol =   0.100000E-04
 Charges are converged, EXIT

%%%% ELECTRONS %%%%%%%%%%%%%%%%%%%%%%%%%%%%%%%%%%%%%%%%%%%%%%%%%%%%%%%%%%%%%%%%%
 number of electrons        =         23
 total electronic charge    =     24.0000000
 number of spin components  =  1

%%%% BOUNDARY %%%%%%%%%%%%%%%%%%%%%%%%%%%%%%%%%%%%%%%%%%%%%%%%%%%%%%%%%%%%%%%%%%
 boundary mode              = electronic           
 boundary is built as a function of a smooth density
 function type              =  2 
 using the modified SCCS function with parameters 
 rhomax                     =      0.0155000 
 rhomin                     =      0.0024000 
 volume of the QM region    =    339.3577828 
 surface of the QM region   =    266.5293882 

%%%% DIELECTRIC %%%%%%%%%%%%%%%%%%%%%%%%%%%%%%%%%%%%%%%%%%%%%%%%%%%%%%%%%%%%%%%%%
 dielectric build on homogeneous background
 environment bulk permitt.  =     78.3000000 
 dielectric flags
 need gradient              =  F 
 need factor depend. sqrt   =  T 
 total dielectric charge    =     -0.9846514

%%%% COMPUTE ELECTROSTATIC POTENTIAL %%%%%%%%%%%%%%%%%%%%%%%%%%%%%%%%%%%%%%%%%%%
 Warning: bad guess with residual norm =   0.544122E+04, reset to no guess
 Iteration #          1
  pAp =    95.7135519575172       rzold =    93.1088935297486       alpha = 
  0.972786942136211     
 delta_qm =   0.546216E-01 delta_en =   0.515552E+04 tol =   0.100000E-04
 Iteration #          2
  pAp =    431.611088037990       rzold =    30.9086941945168       alpha = 
  7.161237292355235E-002
 delta_qm =   0.114158E-01 delta_en =   0.225193E+03 tol =   0.100000E-04
 Iteration #          3
  pAp =    6.72418212011313       rzold =   0.747480901158843       alpha = 
  0.111163095794655     
 delta_qm =   0.366765E-02 delta_en =   0.232444E+02 tol =   0.100000E-04
 Iteration #          4
  pAp =    2.52727928883654       rzold =   0.202817899987419       alpha = 
  8.025147868828887E-002
 delta_qm =   0.334294E-02 delta_en =   0.193109E+02 tol =   0.100000E-04
 Iteration #          5
  pAp =   0.111040994341920       rzold =   1.973958864015020E-002  alpha = 
  0.177768478723881     
 delta_qm =   0.262506E-02 delta_en =   0.119076E+02 tol =   0.100000E-04
 Iteration #          6
  pAp =   9.702883036195230E-003  rzold =   3.157783843291042E-003  alpha = 
  0.325447996385340     
 delta_qm =   0.215309E-02 delta_en =   0.801064E+01 tol =   0.100000E-04
 Iteration #          7
  pAp =   2.528344978363100E-002  rzold =   4.509910709128788E-003  alpha = 
  0.178374025211093     
 delta_qm =   0.169046E-02 delta_en =   0.493802E+01 tol =   0.100000E-04
 Iteration #          8
  pAp =   6.658996044283495E-003  rzold =   2.163318330995778E-003  alpha = 
  0.324871544690721     
 delta_qm =   0.142443E-02 delta_en =   0.350610E+01 tol =   0.100000E-04
 Iteration #          9
  pAp =   7.209284231894810E-003  rzold =   1.914790085384221E-003  alpha = 
  0.265600581665644     
 delta_qm =   0.117515E-02 delta_en =   0.238633E+01 tol =   0.100000E-04
 Iteration #         10
  pAp =   2.823931350981902E-003  rzold =   1.297363150969451E-003  alpha = 
  0.459417382975102     
 delta_qm =   0.667766E-03 delta_en =   0.770534E+00 tol =   0.100000E-04
 Iteration #         11
  pAp =   2.524634721736666E-003  rzold =   8.631851702802959E-004  alpha = 
  0.341904974548762     
 delta_qm =   0.340996E-03 delta_en =   0.200929E+00 tol =   0.100000E-04
 Iteration #         12
  pAp =   7.358768101109882E-004  rzold =   1.925404490197205E-004  alpha = 
  0.261647664900163     
 delta_qm =   0.258145E-03 delta_en =   0.115152E+00 tol =   0.100000E-04
 Iteration #         13
  pAp =   1.990420075546140E-004  rzold =   5.067569937661384E-005  alpha = 
  0.254598011742367     
 delta_qm =   0.235660E-03 delta_en =   0.959659E-01 tol =   0.100000E-04
 Iteration #         14
  pAp =   6.554009967920429E-005  rzold =   2.171679491680880E-005  alpha = 
  0.331351264692987     
 delta_qm =   0.185387E-03 delta_en =   0.593885E-01 tol =   0.100000E-04
 Iteration #         15
  pAp =   2.558941587463934E-005  rzold =   1.572286142283485E-005  alpha = 
  0.614428305040646     
 delta_qm =   0.114695E-03 delta_en =   0.227319E-01 tol =   0.100000E-04
 Iteration #         16
  pAp =   7.033670383737191E-005  rzold =   1.548103951483434E-005  alpha = 
  0.220099019007610     
 delta_qm =   0.961949E-04 delta_en =   0.159900E-01 tol =   0.100000E-04
 Iteration #         17
  pAp =   4.671860558803300E-005  rzold =   1.222665546456834E-005  alpha = 
  0.261708484460851     
 delta_qm =   0.689639E-04 delta_en =   0.821841E-02 tol =   0.100000E-04
 Iteration #         18
  pAp =   1.018285778139513E-005  rzold =   3.254192634390377E-006  alpha = 
  0.319575575369032     
 delta_qm =   0.446631E-04 delta_en =   0.344700E-02 tol =   0.100000E-04
 Iteration #         19
  pAp =   3.916185540778325E-006  rzold =   1.345710429561788E-006  alpha = 
  0.343627853059877     
 delta_qm =   0.277802E-04 delta_en =   0.133356E-02 tol =   0.100000E-04
 Iteration #         20
  pAp =   1.393201264481126E-006  rzold =   4.946906256398814E-007  alpha = 
  0.355074775089384     
 delta_qm =   0.205568E-04 delta_en =   0.730218E-03 tol =   0.100000E-04
 Iteration #         21
  pAp =   4.345179234578076E-007  rzold =   1.658271136912253E-007  alpha = 
  0.381634691548754     
 delta_qm =   0.143272E-04 delta_en =   0.354703E-03 tol =   0.100000E-04
 Iteration #         22
  pAp =   2.202264947203158E-007  rzold =   9.857370814268482E-008  alpha = 
  0.447601494397265     
 delta_qm =   0.104441E-04 delta_en =   0.188488E-03 tol =   0.100000E-04
 Iteration #         23
  pAp =   1.419052664006772E-007  rzold =   5.939859505955208E-008  alpha = 
  0.418579215318457     
 delta_qm =   0.555754E-05 delta_en =   0.533713E-04 tol =   0.100000E-04
 Iteration #         24
  pAp =   2.194589082651904E-007  rzold =   3.386835935142071E-008  alpha = 
  0.154326655587363     
 delta_qm =   0.378279E-05 delta_en =   0.247269E-04 tol =   0.100000E-04
 Iteration #         25
  pAp =   2.560197409993258E-007  rzold =   3.555573380056167E-008  alpha = 
  0.138878875753004     
 delta_qm =   0.298961E-05 delta_en =   0.154444E-04 tol =   0.100000E-04
 Iteration #         26
  pAp =   2.523464455695253E-008  rzold =   6.262068227631640E-009  alpha = 
  0.248153613319128     
 delta_qm =   0.238267E-05 delta_en =   0.981007E-05 tol =   0.100000E-04
 Charges are converged, EXIT

%%%% ELECTRONS %%%%%%%%%%%%%%%%%%%%%%%%%%%%%%%%%%%%%%%%%%%%%%%%%%%%%%%%%%%%%%%%%
 number of electrons        =         24
 total electronic charge    =     24.0000000
 number of spin components  =  1

%%%% BOUNDARY %%%%%%%%%%%%%%%%%%%%%%%%%%%%%%%%%%%%%%%%%%%%%%%%%%%%%%%%%%%%%%%%%%
 boundary mode              = electronic           
 boundary is built as a function of a smooth density
 function type              =  2 
 using the modified SCCS function with parameters 
 rhomax                     =      0.0155000 
 rhomin                     =      0.0024000 
 volume of the QM region    =    339.3856710 
 surface of the QM region   =    266.4598682 

%%%% DIELECTRIC %%%%%%%%%%%%%%%%%%%%%%%%%%%%%%%%%%%%%%%%%%%%%%%%%%%%%%%%%%%%%%%%%
 dielectric build on homogeneous background
 environment bulk permitt.  =     78.3000000 
 dielectric flags
 need gradient              =  F 
 need factor depend. sqrt   =  T 
 total dielectric charge    =     -0.9821640

%%%% COMPUTE ELECTROSTATIC POTENTIAL %%%%%%%%%%%%%%%%%%%%%%%%%%%%%%%%%%%%%%%%%%%
 Warning: bad guess with residual norm =   0.585593E+04, reset to no guess
 Iteration #          1
  pAp =    96.0119145153149       rzold =    93.2669144764917       alpha = 
  0.971409797912265     
 delta_qm =   0.565852E-01 delta_en =   0.553287E+04 tol =   0.100000E-04
 Iteration #          2
  pAp =    456.277850147983       rzold =    32.6863095886590       alpha = 
  7.163685368040115E-002
 delta_qm =   0.111537E-01 delta_en =   0.214973E+03 tol =   0.100000E-04
 Iteration #          3
  pAp =    5.79633938266075       rzold =   0.684947582469005       alpha = 
  0.118168992056947     
 delta_qm =   0.338869E-02 delta_en =   0.198430E+02 tol =   0.100000E-04
 Iteration #          4
  pAp =    2.34343742521685       rzold =   0.182153416630486       alpha = 
  7.772915746347693E-002
 delta_qm =   0.339734E-02 delta_en =   0.199444E+02 tol =   0.100000E-04
 Iteration #          5
  pAp =   0.117881129234648       rzold =   2.015500219215459E-002  alpha = 
  0.170977342370339     
 delta_qm =   0.263657E-02 delta_en =   0.120122E+02 tol =   0.100000E-04
 Iteration #          6
  pAp =   1.314281700038689E-002  rzold =   3.467552006857914E-003  alpha = 
  0.263836284622683     
 delta_qm =   0.226462E-02 delta_en =   0.886206E+01 tol =   0.100000E-04
 Iteration #          7
  pAp =   2.278252188967744E-002  rzold =   4.607210017793717E-003  alpha = 
  0.202225637710512     
 delta_qm =   0.173484E-02 delta_en =   0.520074E+01 tol =   0.100000E-04
 Iteration #          8
  pAp =   6.150296041542125E-003  rzold =   2.128237285955431E-003  alpha = 
  0.346038186061333     
 delta_qm =   0.146570E-02 delta_en =   0.371221E+01 tol =   0.100000E-04
 Iteration #          9
  pAp =   7.443011004013020E-003  rzold =   1.974727245183569E-003  alpha = 
  0.265312955216493     
 delta_qm =   0.121589E-02 delta_en =   0.255466E+01 tol =   0.100000E-04
 Iteration #         10
  pAp =   2.811158491255502E-003  rzold =   1.309413902604952E-003  alpha = 
  0.465791561264890     
 delta_qm =   0.690805E-03 delta_en =   0.824621E+00 tol =   0.100000E-04
 Iteration #         11
  pAp =   2.582064412116029E-003  rzold =   8.908779226672992E-004  alpha = 
  0.345025444945122     
 delta_qm =   0.337470E-03 delta_en =   0.196795E+00 tol =   0.100000E-04
 Iteration #         12
  pAp =   6.725881851535793E-004  rzold =   1.887202950834440E-004  alpha = 
  0.280588180478299     
 delta_qm =   0.257187E-03 delta_en =   0.114299E+00 tol =   0.100000E-04
 Iteration #         13
  pAp =   1.190185390897551E-004  rzold =   3.913422667847441E-005  alpha = 
  0.328807822527230     
 delta_qm =   0.224299E-03 delta_en =   0.869357E-01 tol =   0.100000E-04
 Iteration #         14
  pAp =   4.502375459484902E-005  rzold =   1.666710662187305E-005  alpha = 
  0.370184734077683     
 delta_qm =   0.168819E-03 delta_en =   0.492475E-01 tol =   0.100000E-04
 Iteration #         15
  pAp =   5.117855333636016E-005  rzold =   2.049690799386177E-005  alpha = 
  0.400497994914983     
 delta_qm =   0.115293E-03 delta_en =   0.229693E-01 tol =   0.100000E-04
 Iteration #         16
  pAp =   5.235194013397457E-005  rzold =   1.388012720040737E-005  alpha = 
  0.265131094757645     
 delta_qm =   0.955621E-04 delta_en =   0.157803E-01 tol =   0.100000E-04
 Iteration #         17
  pAp =   5.590676343763185E-005  rzold =   1.237676664647881E-005  alpha = 
  0.221382278018759     
 delta_qm =   0.689209E-04 delta_en =   0.820817E-02 tol =   0.100000E-04
 Iteration #         18
  pAp =   1.173215923564897E-005  rzold =   3.511126333078092E-006  alpha = 
  0.299273668431749     
 delta_qm =   0.465340E-04 delta_en =   0.374183E-02 tol =   0.100000E-04
 Iteration #         19
  pAp =   4.151279993569255E-006  rzold =   1.421995365409921E-006  alpha = 
  0.342543834097612     
 delta_qm =   0.284960E-04 delta_en =   0.140317E-02 tol =   0.100000E-04
 Iteration #         20
  pAp =   1.490097904931983E-006  rzold =   5.248951198034412E-007  alpha = 
  0.352255457890467     
 delta_qm =   0.213336E-04 delta_en =   0.786452E-03 tol =   0.100000E-04
 Iteration #         21
  pAp =   4.627964907242543E-007  rzold =   1.756864748212219E-007  alpha = 
  0.379619289131344     
 delta_qm =   0.149504E-04 delta_en =   0.386232E-03 tol =   0.100000E-04
 Iteration #         22
  pAp =   2.338393981247239E-007  rzold =   1.015361570812108E-007  alpha = 
  0.434213215974213     
 delta_qm =   0.114833E-04 delta_en =   0.227863E-03 tol =   0.100000E-04
 Iteration #         23
  pAp =   5.834879290881431E-007  rzold =   8.736179845875054E-008  alpha = 
  0.149723403182096     
 delta_qm =   0.835354E-05 delta_en =   0.120583E-03 tol =   0.100000E-04
 Iteration #         24
  pAp =   5.508506270393769E-007  rzold =   1.008618341151631E-007  alpha = 
  0.183101968417934     
 delta_qm =   0.491042E-05 delta_en =   0.416660E-04 tol =   0.100000E-04
 Iteration #         25
  pAp =   6.582675188743655E-008  rzold =   2.238055547832983E-008  alpha = 
  0.339991794166002     
 delta_qm =   0.310818E-05 delta_en =   0.166938E-04 tol =   0.100000E-04
 Iteration #         26
  pAp =   2.443688197126938E-008  rzold =   6.486980174198399E-009  alpha = 
  0.265458587630991     
 delta_qm =   0.250716E-05 delta_en =   0.108620E-04 tol =   0.100000E-04
 Iteration #         27
  pAp =   1.223737515460693E-008  rzold =   3.497196462390638E-009  alpha = 
  0.285779950210489     
 delta_qm =   0.191190E-05 delta_en =   0.631647E-05 tol =   0.100000E-04
 Charges are converged, EXIT

%%%% ELECTRONS %%%%%%%%%%%%%%%%%%%%%%%%%%%%%%%%%%%%%%%%%%%%%%%%%%%%%%%%%%%%%%%%%
 number of electrons        =         24
 total electronic charge    =     24.0000000
 number of spin components  =  1

%%%% BOUNDARY %%%%%%%%%%%%%%%%%%%%%%%%%%%%%%%%%%%%%%%%%%%%%%%%%%%%%%%%%%%%%%%%%%
 boundary mode              = electronic           
 boundary is built as a function of a smooth density
 function type              =  2 
 using the modified SCCS function with parameters 
 rhomax                     =      0.0155000 
 rhomin                     =      0.0024000 
 volume of the QM region    =    340.4602552 
 surface of the QM region   =    266.5011657 

%%%% DIELECTRIC %%%%%%%%%%%%%%%%%%%%%%%%%%%%%%%%%%%%%%%%%%%%%%%%%%%%%%%%%%%%%%%%%
 dielectric build on homogeneous background
 environment bulk permitt.  =     78.3000000 
 dielectric flags
 need gradient              =  F 
 need factor depend. sqrt   =  T 
 total dielectric charge    =     -0.9814661

%%%% COMPUTE ELECTROSTATIC POTENTIAL %%%%%%%%%%%%%%%%%%%%%%%%%%%%%%%%%%%%%%%%%%%
 Warning: bad guess with residual norm =   0.618327E+04, reset to no guess
 Iteration #          1
  pAp =    96.4769979172671       rzold =    93.6193993477987       alpha = 
  0.970380519386405     
 delta_qm =   0.580840E-01 delta_en =   0.582985E+04 tol =   0.100000E-04
 Iteration #          2
  pAp =    477.514928858044       rzold =    34.2085172968396       alpha = 
  7.163863416510920E-002
 delta_qm =   0.106105E-01 delta_en =   0.194541E+03 tol =   0.100000E-04
 Iteration #          3
  pAp =    4.81184598548049       rzold =   0.600741397444605       alpha = 
  0.124846347796108     
 delta_qm =   0.311217E-02 delta_en =   0.167367E+02 tol =   0.100000E-04
 Iteration #          4
  pAp =    2.02274617446451       rzold =   0.155695907121158       alpha = 
  7.697253816948905E-002
 delta_qm =   0.342611E-02 delta_en =   0.202837E+02 tol =   0.100000E-04
 Iteration #          5
  pAp =   0.116467012428741       rzold =   1.924277082980791E-002  alpha = 
  0.165220781649065     
 delta_qm =   0.264784E-02 delta_en =   0.121151E+02 tol =   0.100000E-04
 Iteration #          6
  pAp =   1.637456142455983E-002  rzold =   3.772513513625314E-003  alpha = 
  0.230388675202440     
 delta_qm =   0.233819E-02 delta_en =   0.944723E+01 tol =   0.100000E-04
 Iteration #          7
  pAp =   1.981106146038071E-002  rzold =   4.463298592263803E-003  alpha = 
  0.225293258576264     
 delta_qm =   0.176761E-02 delta_en =   0.539907E+01 tol =   0.100000E-04
 Iteration #          8
  pAp =   6.350618355132344E-003  rzold =   2.180778995264358E-003  alpha = 
  0.343396323525241     
 delta_qm =   0.150170E-02 delta_en =   0.389681E+01 tol =   0.100000E-04
 Iteration #          9
  pAp =   7.557734182091631E-003  rzold =   2.041646454556956E-003  alpha = 
  0.270140018868978     
 delta_qm =   0.124529E-02 delta_en =   0.267971E+01 tol =   0.100000E-04
 Iteration #         10
  pAp =   2.831286976939970E-003  rzold =   1.329230491421156E-003  alpha = 
  0.469479251749244     
 delta_qm =   0.703568E-03 delta_en =   0.855374E+00 tol =   0.100000E-04
 Iteration #         11
  pAp =   2.682118747678665E-003  rzold =   9.199457468609484E-004  alpha = 
  0.342992176486275     
 delta_qm =   0.326358E-03 delta_en =   0.184048E+00 tol =   0.100000E-04
 Iteration #         12
  pAp =   6.779642215282846E-004  rzold =   1.909299562890795E-004  alpha = 
  0.281622466534709     
 delta_qm =   0.247549E-03 delta_en =   0.105893E+00 tol =   0.100000E-04
 Iteration #         13
  pAp =   9.908761574095499E-005  rzold =   3.485075650017941E-005  alpha = 
  0.351716571637871     
 delta_qm =   0.203385E-03 delta_en =   0.714795E-01 tol =   0.100000E-04
 Iteration #         14
  pAp =   1.964827563514418E-005  rzold =   1.174021723558817E-005  alpha = 
  0.597518960625168     
 delta_qm =   0.147448E-03 delta_en =   0.375681E-01 tol =   0.100000E-04
 Iteration #         15
  pAp =   8.358025424483220E-005  rzold =   1.928650143100864E-005  alpha = 
  0.230754280484869     
 delta_qm =   0.106440E-03 delta_en =   0.195773E-01 tol =   0.100000E-04
 Iteration #         16
  pAp =   4.516540914177647E-005  rzold =   1.297662960525630E-005  alpha = 
  0.287313451861402     
 delta_qm =   0.795825E-04 delta_en =   0.109441E-01 tol =   0.100000E-04
 Iteration #         17
  pAp =   2.912857496232381E-005  rzold =   7.657407094795585E-006  alpha = 
  0.262882997355690     
 delta_qm =   0.644536E-04 delta_en =   0.717858E-02 tol =   0.100000E-04
 Iteration #         18
  pAp =   1.016157168470258E-005  rzold =   2.849078871668400E-006  alpha = 
  0.280377776201437     
 delta_qm =   0.399988E-04 delta_en =   0.276464E-02 tol =   0.100000E-04
 Iteration #         19
  pAp =   3.948951343566490E-006  rzold =   1.273883601690297E-006  alpha = 
  0.322587819109412     
 delta_qm =   0.274246E-04 delta_en =   0.129964E-02 tol =   0.100000E-04
 Iteration #         20
  pAp =   1.329174232145860E-006  rzold =   4.565991291896810E-007  alpha = 
  0.343520900531252     
 delta_qm =   0.200648E-04 delta_en =   0.695683E-03 tol =   0.100000E-04
 Iteration #         21
  pAp =   4.116314177148287E-007  rzold =   1.547629477596469E-007  alpha = 
  0.375974576038956     
 delta_qm =   0.148190E-04 delta_en =   0.379475E-03 tol =   0.100000E-04
 Iteration #         22
  pAp =   2.349152794099430E-007  rzold =   9.462010309347543E-008  alpha = 
  0.402783945476603     
 delta_qm =   0.102807E-04 delta_en =   0.182636E-03 tol =   0.100000E-04
 Iteration #         23
  pAp =   7.381633451271581E-007  rzold =   9.425609749688607E-008  alpha = 
  0.127690027036833     
 delta_qm =   0.930592E-05 delta_en =   0.149645E-03 tol =   0.100000E-04
 Iteration #         24
  pAp =   3.899638268843710E-007  rzold =   8.378845724494193E-008  alpha = 
  0.214862126865388     
 delta_qm =   0.471537E-05 delta_en =   0.384217E-04 tol =   0.100000E-04
 Iteration #         25
  pAp =   6.161265394878573E-008  rzold =   2.115115570543776E-008  alpha = 
  0.343292397743802     
 delta_qm =   0.301035E-05 delta_en =   0.156595E-04 tol =   0.100000E-04
 Iteration #         26
  pAp =   1.977947496570630E-008  rzold =   5.753096803325274E-009  alpha = 
  0.290861957321921     
 delta_qm =   0.240088E-05 delta_en =   0.996060E-05 tol =   0.100000E-04
 Charges are converged, EXIT

%%%% ELECTRONS %%%%%%%%%%%%%%%%%%%%%%%%%%%%%%%%%%%%%%%%%%%%%%%%%%%%%%%%%%%%%%%%%
 number of electrons        =         23
 total electronic charge    =     24.0000000
 number of spin components  =  1

%%%% BOUNDARY %%%%%%%%%%%%%%%%%%%%%%%%%%%%%%%%%%%%%%%%%%%%%%%%%%%%%%%%%%%%%%%%%%
 boundary mode              = electronic           
 boundary is built as a function of a smooth density
 function type              =  2 
 using the modified SCCS function with parameters 
 rhomax                     =      0.0155000 
 rhomin                     =      0.0024000 
 volume of the QM region    =    340.2865219 
 surface of the QM region   =    266.1908326 

%%%% DIELECTRIC %%%%%%%%%%%%%%%%%%%%%%%%%%%%%%%%%%%%%%%%%%%%%%%%%%%%%%%%%%%%%%%%%
 dielectric build on homogeneous background
 environment bulk permitt.  =     78.3000000 
 dielectric flags
 need gradient              =  F 
 need factor depend. sqrt   =  T 
 total dielectric charge    =     -0.9822426

%%%% COMPUTE ELECTROSTATIC POTENTIAL %%%%%%%%%%%%%%%%%%%%%%%%%%%%%%%%%%%%%%%%%%%
 Warning: bad guess with residual norm =   0.641262E+04, reset to no guess
 Iteration #          1
  pAp =    96.5871101434048       rzold =    93.6542892389799       alpha = 
  0.969635483450427     
 delta_qm =   0.591064E-01 delta_en =   0.603688E+04 tol =   0.100000E-04
 Iteration #          2
  pAp =    492.162210460342       rzold =    35.2251255461090       alpha = 
  7.157218656255894E-002
 delta_qm =   0.103763E-01 delta_en =   0.186048E+03 tol =   0.100000E-04
 Iteration #          3
  pAp =    4.37872561765102       rzold =   0.564516160796414       alpha = 
  0.128922478841972     
 delta_qm =   0.299302E-02 delta_en =   0.154797E+02 tol =   0.100000E-04
 Iteration #          4
  pAp =    1.81907909432955       rzold =   0.139343720642473       alpha = 
  7.660124349558901E-002
 delta_qm =   0.345664E-02 delta_en =   0.206467E+02 tol =   0.100000E-04
 Iteration #          5
  pAp =   0.119145480190050       rzold =   1.897529012784108E-002  alpha = 
  0.159261518754832     
 delta_qm =   0.265170E-02 delta_en =   0.121505E+02 tol =   0.100000E-04
 Iteration #          6
  pAp =   1.917029466294769E-002  rzold =   4.029276268330270E-003  alpha = 
  0.210183324730947     
 delta_qm =   0.238536E-02 delta_en =   0.983219E+01 tol =   0.100000E-04
 Iteration #          7
  pAp =   1.775119518159491E-002  rzold =   4.327074395806220E-003  alpha = 
  0.243762425658678     
 delta_qm =   0.178824E-02 delta_en =   0.552579E+01 tol =   0.100000E-04
 Iteration #          8
  pAp =   6.622625439827927E-003  rzold =   2.225447982157701E-003  alpha = 
  0.336037120380392     
 delta_qm =   0.152684E-02 delta_en =   0.402838E+01 tol =   0.100000E-04
 Iteration #          9
  pAp =   7.532926582909656E-003  rzold =   2.074840688580238E-003  alpha = 
  0.275436202084796     
 delta_qm =   0.126905E-02 delta_en =   0.278293E+01 tol =   0.100000E-04
 Iteration #         10
  pAp =   2.810257408122047E-003  rzold =   1.337562365057147E-003  alpha = 
  0.475957241920758     
 delta_qm =   0.713954E-03 delta_en =   0.880813E+00 tol =   0.100000E-04
 Iteration #         11
  pAp =   2.752622249233584E-003  rzold =   9.408148754507675E-004  alpha = 
  0.341788589303425     
 delta_qm =   0.324887E-03 delta_en =   0.182394E+00 tol =   0.100000E-04
 Iteration #         12
  pAp =   6.956586463892863E-004  rzold =   1.948483740744851E-004  alpha = 
  0.280091931705035     
 delta_qm =   0.246155E-03 delta_en =   0.104704E+00 tol =   0.100000E-04
 Iteration #         13
  pAp =   1.024224817389290E-004  rzold =   3.490461753761751E-005  alpha = 
  0.340790585670322     
 delta_qm =   0.199309E-03 delta_en =   0.686434E-01 tol =   0.100000E-04
 Iteration #         14
  pAp =   2.670870875393063E-005  rzold =   1.221989653368147E-005  alpha = 
  0.457524796360030     
 delta_qm =   0.159782E-03 delta_en =   0.441162E-01 tol =   0.100000E-04
 Iteration #         15
  pAp =   5.370431114698472E-005  rzold =   1.742968270748949E-005  alpha = 
  0.324549041505918     
 delta_qm =   0.100269E-03 delta_en =   0.173732E-01 tol =   0.100000E-04
 Iteration #         16
  pAp =   3.044960554104021E-005  rzold =   1.003835442137548E-005  alpha = 
  0.329671082531618     
 delta_qm =   0.789270E-04 delta_en =   0.107645E-01 tol =   0.100000E-04
 Iteration #         17
  pAp =   4.734478351255549E-005  rzold =   9.004115485524571E-006  alpha = 
  0.190181785985709     
 delta_qm =   0.654844E-04 delta_en =   0.741002E-02 tol =   0.100000E-04
 Iteration #         18
  pAp =   1.115855511368737E-005  rzold =   3.176831257342700E-006  alpha = 
  0.284699159073554     
 delta_qm =   0.415663E-04 delta_en =   0.298556E-02 tol =   0.100000E-04
 Iteration #         19
  pAp =   3.313531116909809E-006  rzold =   1.210402741600590E-006  alpha = 
  0.365290893278047     
 delta_qm =   0.270373E-04 delta_en =   0.126319E-02 tol =   0.100000E-04
 Iteration #         20
  pAp =   1.215102764871719E-006  rzold =   4.335574883220889E-007  alpha = 
  0.356807260139730     
 delta_qm =   0.198058E-04 delta_en =   0.677845E-03 tol =   0.100000E-04
 Iteration #         21
  pAp =   3.738727012026356E-007  rzold =   1.457373020016849E-007  alpha = 
  0.389804608715458     
 delta_qm =   0.146680E-04 delta_en =   0.371782E-03 tol =   0.100000E-04
 Iteration #         22
  pAp =   2.121958265836043E-007  rzold =   9.004158507129399E-008  alpha = 
  0.424332497584810     
 delta_qm =   0.102455E-04 delta_en =   0.181390E-03 tol =   0.100000E-04
 Iteration #         23
  pAp =   2.428552321980783E-007  rzold =   6.518828591317108E-008  alpha = 
  0.268424465568039     
 delta_qm =   0.761925E-05 delta_en =   0.100316E-03 tol =   0.100000E-04
 Iteration #         24
  pAp =   9.568883530237268E-007  rzold =   9.661591313465224E-008  alpha = 
  0.100968846396082     
 delta_qm =   0.460717E-05 delta_en =   0.366786E-04 tol =   0.100000E-04
 Iteration #         25
  pAp =   7.376557950841729E-008  rzold =   2.298737418677265E-008  alpha = 
  0.311627378785109     
 delta_qm =   0.301895E-05 delta_en =   0.157491E-04 tol =   0.100000E-04
 Iteration #         26
  pAp =   1.759201818555418E-008  rzold =   5.565002778044240E-009  alpha = 
  0.316336802255808     
 delta_qm =   0.237428E-05 delta_en =   0.974106E-05 tol =   0.100000E-04
 Charges are converged, EXIT

%%%% ELECTRONS %%%%%%%%%%%%%%%%%%%%%%%%%%%%%%%%%%%%%%%%%%%%%%%%%%%%%%%%%%%%%%%%%
 number of electrons        =         24
 total electronic charge    =     24.0000000
 number of spin components  =  1

%%%% BOUNDARY %%%%%%%%%%%%%%%%%%%%%%%%%%%%%%%%%%%%%%%%%%%%%%%%%%%%%%%%%%%%%%%%%%
 boundary mode              = electronic           
 boundary is built as a function of a smooth density
 function type              =  2 
 using the modified SCCS function with parameters 
 rhomax                     =      0.0155000 
 rhomin                     =      0.0024000 
 volume of the QM region    =    340.3712577 
 surface of the QM region   =    266.0342369 

%%%% DIELECTRIC %%%%%%%%%%%%%%%%%%%%%%%%%%%%%%%%%%%%%%%%%%%%%%%%%%%%%%%%%%%%%%%%%
 dielectric build on homogeneous background
 environment bulk permitt.  =     78.3000000 
 dielectric flags
 need gradient              =  F 
 need factor depend. sqrt   =  T 
 total dielectric charge    =     -0.9828552

%%%% COMPUTE ELECTROSTATIC POTENTIAL %%%%%%%%%%%%%%%%%%%%%%%%%%%%%%%%%%%%%%%%%%%
 Warning: bad guess with residual norm =   0.647314E+04, reset to no guess
 Iteration #          1
  pAp =    96.6732492064560       rzold =    93.7233714672862       alpha = 
  0.969486101239134     
 delta_qm =   0.593755E-01 delta_en =   0.609198E+04 tol =   0.100000E-04
 Iteration #          2
  pAp =    496.072779349920       rzold =    35.4901438297486       alpha = 
  7.154221176226751E-002
 delta_qm =   0.102404E-01 delta_en =   0.181206E+03 tol =   0.100000E-04
 Iteration #          3
  pAp =    4.20170583923745       rzold =   0.546633738226594       alpha = 
  0.130098050444626     
 delta_qm =   0.295020E-02 delta_en =   0.150400E+02 tol =   0.100000E-04
 Iteration #          4
  pAp =    1.73010487418458       rzold =   0.132849024125621       alpha = 
  7.678668854582253E-002
 delta_qm =   0.346506E-02 delta_en =   0.207475E+02 tol =   0.100000E-04
 Iteration #          5
  pAp =   0.119068863718653       rzold =   1.862367167701763E-002  alpha = 
  0.156410929737462     
 delta_qm =   0.265460E-02 delta_en =   0.121771E+02 tol =   0.100000E-04
 Iteration #          6
  pAp =   2.092014195830165E-002  rzold =   4.184901475415722E-003  alpha = 
  0.200041734121935     
 delta_qm =   0.241046E-02 delta_en =   0.100403E+02 tol =   0.100000E-04
 Iteration #          7
  pAp =   1.649718653709794E-002  rzold =   4.228202710874499E-003  alpha = 
  0.256298411936263     
 delta_qm =   0.179641E-02 delta_en =   0.557642E+01 tol =   0.100000E-04
 Iteration #          8
  pAp =   6.814175919086671E-003  rzold =   2.251162119847437E-003  alpha = 
  0.330364543941679     
 delta_qm =   0.153569E-02 delta_en =   0.407522E+01 tol =   0.100000E-04
 Iteration #          9
  pAp =   7.401236988822000E-003  rzold =   2.074877078800459E-003  alpha = 
  0.280341932292416     
 delta_qm =   0.127673E-02 delta_en =   0.281672E+01 tol =   0.100000E-04
 Iteration #         10
  pAp =   2.810057749011535E-003  rzold =   1.343319343337383E-003  alpha = 
  0.478039764061756     
 delta_qm =   0.714446E-03 delta_en =   0.882029E+00 tol =   0.100000E-04
 Iteration #         11
  pAp =   2.787002502477882E-003  rzold =   9.482462862115448E-004  alpha = 
  0.340238763821874     
 delta_qm =   0.322343E-03 delta_en =   0.179548E+00 tol =   0.100000E-04
 Iteration #         12
  pAp =   6.896360750136119E-004  rzold =   1.932635563119930E-004  alpha = 
  0.280239916840456     
 delta_qm =   0.242428E-03 delta_en =   0.101557E+00 tol =   0.100000E-04
 Iteration #         13
  pAp =   9.889310109927624E-005  rzold =   3.385581039866994E-005  alpha = 
  0.342347545201186     
 delta_qm =   0.195324E-03 delta_en =   0.659256E-01 tol =   0.100000E-04
 Iteration #         14
  pAp =   2.356234297552576E-005  rzold =   1.140607756528483E-005  alpha = 
  0.484080788448430     
 delta_qm =   0.153833E-03 delta_en =   0.408922E-01 tol =   0.100000E-04
 Iteration #         15
  pAp =   5.133726424804688E-005  rzold =   1.623017804928316E-005  alpha = 
  0.316148090222798     
 delta_qm =   0.963824E-04 delta_en =   0.160524E-01 tol =   0.100000E-04
 Iteration #         16
  pAp =   2.562186624823946E-005  rzold =   9.174463834810557E-006  alpha = 
  0.358071646535153     
 delta_qm =   0.760693E-04 delta_en =   0.999913E-02 tol =   0.100000E-04
 Iteration #         17
  pAp =   3.826318479949820E-005  rzold =   7.314227208155843E-006  alpha = 
  0.191155734852781     
 delta_qm =   0.628085E-04 delta_en =   0.681680E-02 tol =   0.100000E-04
 Iteration #         18
  pAp =   1.259281426272177E-005  rzold =   3.200906890108844E-006  alpha = 
  0.254185190325916     
 delta_qm =   0.405881E-04 delta_en =   0.284670E-02 tol =   0.100000E-04
 Iteration #         19
  pAp =   3.243224473646981E-006  rzold =   1.179792354220269E-006  alpha = 
  0.363771414469379     
 delta_qm =   0.263347E-04 delta_en =   0.119840E-02 tol =   0.100000E-04
 Iteration #         20
  pAp =   1.154558839163954E-006  rzold =   4.131164378967891E-007  alpha = 
  0.357813239034173     
 delta_qm =   0.192996E-04 delta_en =   0.643635E-03 tol =   0.100000E-04
 Iteration #         21
  pAp =   3.455383863363578E-007  rzold =   1.368961861485671E-007  alpha = 
  0.396182281222174     
 delta_qm =   0.143717E-04 delta_en =   0.356913E-03 tol =   0.100000E-04
 Iteration #         22
  pAp =   2.022032835450047E-007  rzold =   8.433054507542629E-008  alpha = 
  0.417058237615893     
 delta_qm =   0.988335E-05 delta_en =   0.168792E-03 tol =   0.100000E-04
 Iteration #         23
  pAp =   4.666801929179451E-007  rzold =   7.606075356037560E-008  alpha = 
  0.162982605035798     
 delta_qm =   0.851954E-05 delta_en =   0.125423E-03 tol =   0.100000E-04
 Iteration #         24
  pAp =   5.765308797565979E-007  rzold =   9.071442668095915E-008  alpha = 
  0.157345304243300     
 delta_qm =   0.457762E-05 delta_en =   0.362096E-04 tol =   0.100000E-04
 Iteration #         25
  pAp =   6.400740799830064E-008  rzold =   2.118932928098522E-008  alpha = 
  0.331044951571040     
 delta_qm =   0.297857E-05 delta_en =   0.153306E-04 tol =   0.100000E-04
 Iteration #         26
  pAp =   1.559321556312702E-008  rzold =   5.251306591419518E-009  alpha = 
  0.336768678029257     
 delta_qm =   0.229805E-05 delta_en =   0.912562E-05 tol =   0.100000E-04
 Charges are converged, EXIT

%%%% ELECTRONS %%%%%%%%%%%%%%%%%%%%%%%%%%%%%%%%%%%%%%%%%%%%%%%%%%%%%%%%%%%%%%%%%
 number of electrons        =         23
 total electronic charge    =     24.0000000
 number of spin components  =  1

%%%% BOUNDARY %%%%%%%%%%%%%%%%%%%%%%%%%%%%%%%%%%%%%%%%%%%%%%%%%%%%%%%%%%%%%%%%%%
 boundary mode              = electronic           
 boundary is built as a function of a smooth density
 function type              =  2 
 using the modified SCCS function with parameters 
 rhomax                     =      0.0155000 
 rhomin                     =      0.0024000 
 volume of the QM region    =    340.3843831 
 surface of the QM region   =    265.8795243 

%%%% DIELECTRIC %%%%%%%%%%%%%%%%%%%%%%%%%%%%%%%%%%%%%%%%%%%%%%%%%%%%%%%%%%%%%%%%%
 dielectric build on homogeneous background
 environment bulk permitt.  =     78.3000000 
 dielectric flags
 need gradient              =  F 
 need factor depend. sqrt   =  T 
 total dielectric charge    =     -0.9835764

%%%% COMPUTE ELECTROSTATIC POTENTIAL %%%%%%%%%%%%%%%%%%%%%%%%%%%%%%%%%%%%%%%%%%%
 Warning: bad guess with residual norm =   0.657665E+04, reset to no guess
 Iteration #          1
  pAp =    96.2412240787935       rzold =    93.7621079439538       alpha = 
  0.974240600547537     
 delta_qm =   0.601423E-01 delta_en =   0.625033E+04 tol =   0.100000E-04
 Iteration #          2
  pAp =    503.262805989320       rzold =    36.0231966959366       alpha = 
  7.157929468902795E-002
 delta_qm =   0.119450E-01 delta_en =   0.246555E+03 tol =   0.100000E-04
 Iteration #          3
  pAp =    4.08667077143506       rzold =   0.562662963503398       alpha = 
  0.137682479204415     
 delta_qm =   0.619271E-02 delta_en =   0.662683E+02 tol =   0.100000E-04
 Iteration #          4
  pAp =    1.84034890936496       rzold =   0.161778145759093       alpha = 
  8.790623611417107E-002
 delta_qm =   0.617358E-02 delta_en =   0.658593E+02 tol =   0.100000E-04
 Iteration #          5
  pAp =   0.205367534540140       rzold =   4.765366897943783E-002  alpha = 
  0.232040906982422     
 delta_qm =   0.457339E-02 delta_en =   0.361427E+02 tol =   0.100000E-04
 Iteration #          6
  pAp =   0.128316871548952       rzold =   3.252515973503170E-002  alpha = 
  0.253475317332869     
 delta_qm =   0.320222E-02 delta_en =   0.177193E+02 tol =   0.100000E-04
 Iteration #          7
  pAp =   0.214410391191076       rzold =   3.101531536188880E-002  alpha = 
  0.144653974975722     
 delta_qm =   0.181074E-02 delta_en =   0.566573E+01 tol =   0.100000E-04
 Iteration #          8
  pAp =   1.848031528423528E-002  rzold =   3.945832565670116E-003  alpha = 
  0.213515435477236     
 delta_qm =   0.153976E-02 delta_en =   0.409684E+01 tol =   0.100000E-04
 Iteration #          9
  pAp =   6.321010852248158E-003  rzold =   1.495279261893346E-003  alpha = 
  0.236556983818740     
 delta_qm =   0.138507E-02 delta_en =   0.331504E+01 tol =   0.100000E-04
 Iteration #         10
  pAp =   1.416232971317007E-003  rzold =   8.283432864837995E-004  alpha = 
  0.584891965700737     
 delta_qm =   0.102719E-02 delta_en =   0.182324E+01 tol =   0.100000E-04
 Iteration #         11
  pAp =   2.180703757633659E-003  rzold =   1.018773879431637E-003  alpha = 
  0.467176651512325     
 delta_qm =   0.788004E-03 delta_en =   0.107300E+01 tol =   0.100000E-04
 Iteration #         12
  pAp =   1.342104977093095E-003  rzold =   5.221419082514043E-004  alpha = 
  0.389046994954394     
 delta_qm =   0.502648E-03 delta_en =   0.436587E+00 tol =   0.100000E-04
 Iteration #         13
  pAp =   5.620389622146115E-004  rzold =   2.087784982310183E-004  alpha = 
  0.371466236803877     
 delta_qm =   0.245383E-03 delta_en =   0.104048E+00 tol =   0.100000E-04
 Iteration #         14
  pAp =   1.527608602555129E-004  rzold =   5.200481335677276E-005  alpha = 
  0.340432839077940     
 delta_qm =   0.142797E-03 delta_en =   0.352357E-01 tol =   0.100000E-04
 Iteration #         15
  pAp =   8.266427374133837E-005  rzold =   1.667735633762514E-005  alpha = 
  0.201748053697412     
 delta_qm =   0.105777E-03 delta_en =   0.193342E-01 tol =   0.100000E-04
 Iteration #         16
  pAp =   1.404913252255913E-005  rzold =   5.248691349469600E-006  alpha = 
  0.373595404630258     
 delta_qm =   0.892263E-04 delta_en =   0.137572E-01 tol =   0.100000E-04
 Iteration #         17
  pAp =   1.615659192654710E-005  rzold =   5.065537017049202E-006  alpha = 
  0.313527570670765     
 delta_qm =   0.713934E-04 delta_en =   0.880765E-02 tol =   0.100000E-04
 Iteration #         18
  pAp =   2.085313769135340E-005  rzold =   5.936588822211987E-006  alpha = 
  0.284685638683216     
 delta_qm =   0.435210E-04 delta_en =   0.327296E-02 tol =   0.100000E-04
 Iteration #         19
  pAp =   1.171019669411163E-005  rzold =   3.783366188507359E-006  alpha = 
  0.323083060629528     
 delta_qm =   0.278550E-04 delta_en =   0.134076E-02 tol =   0.100000E-04
 Iteration #         20
  pAp =   2.954668891102844E-006  rzold =   8.827641494614298E-007  alpha = 
  0.298769229987030     
 delta_qm =   0.203279E-04 delta_en =   0.714050E-03 tol =   0.100000E-04
 Iteration #         21
  pAp =   4.914152945040075E-007  rzold =   1.711359824559095E-007  alpha = 
  0.348251233467692     
 delta_qm =   0.142331E-04 delta_en =   0.350061E-03 tol =   0.100000E-04
 Iteration #         22
  pAp =   1.771312516446687E-007  rzold =   7.331827708845067E-008  alpha = 
  0.413920617664519     
 delta_qm =   0.101584E-04 delta_en =   0.178316E-03 tol =   0.100000E-04
 Iteration #         23
  pAp =   1.729177635130821E-007  rzold =   5.299898688324883E-008  alpha = 
  0.306498220925921     
 delta_qm =   0.664443E-05 delta_en =   0.762884E-04 tol =   0.100000E-04
 Iteration #         24
  pAp =   7.781922715326372E-007  rzold =   8.089934693306768E-008  alpha = 
  0.103958044679289     
 delta_qm =   0.541119E-05 delta_en =   0.505976E-04 tol =   0.100000E-04
 Iteration #         25
  pAp =   9.508821474228938E-008  rzold =   3.065527756231061E-008  alpha = 
  0.322387770612724     
 delta_qm =   0.389070E-05 delta_en =   0.261577E-04 tol =   0.100000E-04
 Iteration #         26
  pAp =   2.585447090444385E-008  rzold =   9.741918923106550E-009  alpha = 
  0.376798231884611     
 delta_qm =   0.254270E-05 delta_en =   0.111721E-04 tol =   0.100000E-04
 Iteration #         27
  pAp =   1.204533562487771E-008  rzold =   4.094802870712577E-009  alpha = 
  0.339949254901243     
 delta_qm =   0.187669E-05 delta_en =   0.608596E-05 tol =   0.100000E-04
 Charges are converged, EXIT

%%%% ELECTRONS %%%%%%%%%%%%%%%%%%%%%%%%%%%%%%%%%%%%%%%%%%%%%%%%%%%%%%%%%%%%%%%%%
 number of electrons        =         23
 total electronic charge    =     24.0000000
 number of spin components  =  1

%%%% BOUNDARY %%%%%%%%%%%%%%%%%%%%%%%%%%%%%%%%%%%%%%%%%%%%%%%%%%%%%%%%%%%%%%%%%%
 boundary mode              = electronic           
 boundary is built as a function of a smooth density
 function type              =  2 
 using the modified SCCS function with parameters 
 rhomax                     =      0.0155000 
 rhomin                     =      0.0024000 
 volume of the QM region    =    340.3843831 
 surface of the QM region   =    265.8795243 

%%%% DIELECTRIC %%%%%%%%%%%%%%%%%%%%%%%%%%%%%%%%%%%%%%%%%%%%%%%%%%%%%%%%%%%%%%%%%
 dielectric build on homogeneous background
 environment bulk permitt.  =     78.3000000 
 dielectric flags
 need gradient              =  F 
 need factor depend. sqrt   =  T 
 total dielectric charge    =     -0.9408440
