
     Program PWSCF v.6.1 (svn rev. 13369) starts on 13Oct2017 at 16:17:17 

     This program is part of the open-source Quantum ESPRESSO suite
     for quantum simulation of materials; please cite
         "P. Giannozzi et al., J. Phys.:Condens. Matter 21 395502 (2009);
          URL http://www.quantum-espresso.org", 
     in publications or presentations arising from this work. More details at
     http://www.quantum-espresso.org/quote

     Parallel version (MPI), running on     1 processors
     Reading input from cation.in

     Current dimensions of program PWSCF are:
     Max number of different atomic species (ntypx) = 10
     Max number of k-points (npk) =  40000
     Max angular momentum in pseudopotentials (lmaxx) =  3
               file C.pbe-rrkjus.UPF: wavefunction(s)  2S 2P renormalized
               file H.pbe-rrkjus.UPF: wavefunction(s)  1S renormalized
               file N.pbe-rrkjus.UPF: wavefunction(s)  2S renormalized
               file O.pbe-rrkjus.UPF: wavefunction(s)  2S renormalized

     gamma-point specific algorithms are used

     Subspace diagonalization in iterative solution of the eigenvalue problem:
     a serial algorithm will be used

 
     G-vector sticks info
     --------------------
     sticks:   dense  smooth     PW     G-vecs:    dense   smooth      PW
     Sum        9549    3809    949               701475   177509   22119
 


     bravais-lattice index     =            1
     lattice parameter (alat)  =      20.0000  a.u.
     unit-cell volume          =    8000.0000 (a.u.)^3
     number of atoms/cell      =           10
     number of atomic types    =            4
     number of electrons       =        24.00
     number of Kohn-Sham states=           12
     kinetic-energy cutoff     =      30.0000  Ry
     charge density cutoff     =     300.0000  Ry
     convergence threshold     =      5.0E-03
     mixing beta               =       0.7000
     number of iterations used =            8  plain     mixing
     Exchange-correlation      =  SLA  PW   PBE  PBE ( 1  4  3  4 0 0)
 

     Environ Module
     ==============

     Plese cite
         O. Andreussi, I. Dabo and N. Marzari, J. Chem. Phys. 136, 064102 (2012)         
     in publications or presentations arising from this work.

     compensation onset threshold      =               0.1000E+03 
     static permittivity               =                    78.30 
     epsilon calculation mode          =                    ionic 
     surface tension in input (dyn/cm) =                    50.00 
     surface tension in internal units =               0.6423E-04 
     external pressure in input (GPa)  =                    -0.35 
     external pressure in inter. units =              -0.2379E-04 

     Electrostatic Setup
     -------------------
     electrostatic problem to solve    = generalized              
     numerical solver adopted          = cg                       
     type of auxiliary density adopted = none                     
     type of core tool for poisson     = fft                      
     type of core tool for s(r) deriv  = analytic                 



     celldm(1)=  20.000000  celldm(2)=   0.000000  celldm(3)=   0.000000
     celldm(4)=   0.000000  celldm(5)=   0.000000  celldm(6)=   0.000000

     crystal axes: (cart. coord. in units of alat)
               a(1) = (   1.000000   0.000000   0.000000 )  
               a(2) = (   0.000000   1.000000   0.000000 )  
               a(3) = (   0.000000   0.000000   1.000000 )  

     reciprocal axes: (cart. coord. in units 2 pi/alat)
               b(1) = (  1.000000  0.000000  0.000000 )  
               b(2) = (  0.000000  1.000000  0.000000 )  
               b(3) = (  0.000000  0.000000  1.000000 )  


     PseudoPot. # 1 for C  read from file:
     /home/andreo/PWSCF/espresso-6.1-Environ-1.0/Environ/tests/../..//pseudo/C.pbe-rrkjus.UPF
     MD5 check sum: 00fb224312de0c5b6853bd333518df6f
     Pseudo is Ultrasoft, Zval =  4.0
     Generated by new atomic code, or converted to UPF format
     Using radial grid of  627 points,  4 beta functions with: 
                l(1) =   0
                l(2) =   0
                l(3) =   1
                l(4) =   1
     Q(r) pseudized with 0 coefficients 


     PseudoPot. # 2 for H  read from file:
     /home/andreo/PWSCF/espresso-6.1-Environ-1.0/Environ/tests/../..//pseudo/H.pbe-rrkjus.UPF
     MD5 check sum: 7cc9d459525c9a0585f487a71c3c9563
     Pseudo is Ultrasoft, Zval =  1.0
     Generated by new atomic code, or converted to UPF format
     Using radial grid of 1061 points,  2 beta functions with: 
                l(1) =   0
                l(2) =   0
     Q(r) pseudized with 0 coefficients 


     PseudoPot. # 3 for N  read from file:
     /home/andreo/PWSCF/espresso-6.1-Environ-1.0/Environ/tests/../..//pseudo/N.pbe-rrkjus.UPF
     MD5 check sum: 0c3fbe5807a93f9ba59d5a7019aa238b
     Pseudo is Ultrasoft, Zval =  5.0
     Generated by new atomic code, or converted to UPF format
     Using radial grid of 1257 points,  4 beta functions with: 
                l(1) =   0
                l(2) =   0
                l(3) =   1
                l(4) =   1
     Q(r) pseudized with 0 coefficients 


     PseudoPot. # 4 for O  read from file:
     /home/andreo/PWSCF/espresso-6.1-Environ-1.0/Environ/tests/../..//pseudo/O.pbe-rrkjus.UPF
     MD5 check sum: 390ba29e75625707450f3bd3f0eb6be9
     Pseudo is Ultrasoft, Zval =  6.0
     Generated by new atomic code, or converted to UPF format
     Using radial grid of 1269 points,  4 beta functions with: 
                l(1) =   0
                l(2) =   0
                l(3) =   1
                l(4) =   1
     Q(r) pseudized with 0 coefficients 


     atomic species   valence    mass     pseudopotential
        C              4.00    12.00000     C ( 1.00)
        H              1.00     1.00000     H ( 1.00)
        N              5.00    14.00000     N ( 1.00)
        O              6.00    16.00000     O ( 1.00)

     No symmetry found



   Cartesian axes

     site n.     atom                  positions (alat units)
         1           C   tau(   1) = (   0.0000000   0.0000000   0.0000000  )
         2           C   tau(   2) = (   0.0000000   0.0000000   0.1455089  )
         3           N   tau(   3) = (   0.1170969   0.0000000  -0.0545024  )
         4           H   tau(   4) = (   0.0476617  -0.0825466   0.1792090  )
         5           H   tau(   5) = (  -0.0953183  -0.0000030   0.1792090  )
         6           H   tau(   6) = (   0.0476566   0.0825496   0.1792090  )
         7           O   tau(   7) = (  -0.0984002  -0.0000019  -0.0641310  )
         8           H   tau(   8) = (   0.1263131  -0.0000015  -0.1475548  )
         9           H   tau(   9) = (   0.1944645   0.0000134  -0.0025716  )
        10           H   tau(  10) = (  -0.0770366  -0.0000045  -0.1522861  )

     number of k points=     1
                       cart. coord. in units 2pi/alat
        k(    1) = (   0.0000000   0.0000000   0.0000000), wk =   2.0000000

     Dense  grid:   350738 G-vectors     FFT dimensions: ( 120, 120, 120)

     Smooth grid:    88755 G-vectors     FFT dimensions: (  72,  72,  72)

     Estimated max dynamical RAM per process >     298.98MB

     Initial potential from superposition of free atoms
     Check: negative starting charge=   -0.000452

     starting charge   24.42266, renormalised to   24.00000

     negative rho (up, down):  4.438E-04 0.000E+00
     Starting wfc are   22 randomized atomic wfcs

     total cpu time spent up to now is       68.5 secs

     per-process dynamical memory:   543.5 Mb

     Self-consistent Calculation

     iteration #  1     ecut=    30.00 Ry     beta=0.70
     Davidson diagonalization with overlap
     ethr =  1.00E-02,  avg # of iterations =  2.0

     negative rho (up, down):  1.277E-04 0.000E+00

     add environment contribution to local potential
     polarization accuracy = 5.2E-05, # of iterations =  15

     total cpu time spent up to now is       72.3 secs

     total energy              =     -80.22674268 Ry
     Harris-Foulkes estimate   =     -83.01879009 Ry
     estimated scf accuracy    <       3.73442311 Ry
     electrostatic embedding   =       0.00242302 Ry
     cavitation energy         =       0.02741319 Ry
     PV energy                 =      -0.01754709 Ry
     correction to one-el term =       0.00000000 Ry

     iteration #  2     ecut=    30.00 Ry     beta=0.70
     Davidson diagonalization with overlap
     ethr =  1.00E-02,  avg # of iterations =  4.0

     negative rho (up, down):  7.296E-04 0.000E+00

     add environment contribution to local potential
     polarization accuracy = 9.7E-05, # of iterations =  14

     total cpu time spent up to now is       76.2 secs

     total energy              =     -80.95087070 Ry
     Harris-Foulkes estimate   =     -76.87724294 Ry
     estimated scf accuracy    <       1.62223809 Ry
     electrostatic embedding   =      -0.14519301 Ry
     cavitation energy         =       0.02741319 Ry
     PV energy                 =      -0.01754709 Ry
     correction to one-el term =      -4.79771420 Ry

     iteration #  3     ecut=    30.00 Ry     beta=0.70
     Davidson diagonalization with overlap
     ethr =  6.76E-03,  avg # of iterations =  3.0

     negative rho (up, down):  3.056E-04 0.000E+00

     add environment contribution to local potential
     polarization accuracy = 9.8E-05, # of iterations =  14

     total cpu time spent up to now is       80.0 secs

     total energy              =     -81.31157152 Ry
     Harris-Foulkes estimate   =     -77.09435822 Ry
     estimated scf accuracy    <       0.22328084 Ry
     electrostatic embedding   =      -0.11976547 Ry
     cavitation energy         =       0.02741319 Ry
     PV energy                 =      -0.01754709 Ry
     correction to one-el term =      -4.22754310 Ry

     iteration #  4     ecut=    30.00 Ry     beta=0.70
     Davidson diagonalization with overlap
     ethr =  9.30E-04,  avg # of iterations =  4.0

     negative rho (up, down):  1.086E-04 0.000E+00

     add environment contribution to local potential
     polarization accuracy = 9.6E-05, # of iterations =  14

     total cpu time spent up to now is       83.7 secs

     total energy              =     -81.35761786 Ry
     Harris-Foulkes estimate   =     -77.41485500 Ry
     estimated scf accuracy    <       0.02355656 Ry
     electrostatic embedding   =      -0.10001537 Ry
     cavitation energy         =       0.02741319 Ry
     PV energy                 =      -0.01754709 Ry
     correction to one-el term =      -3.86466203 Ry

     iteration #  5     ecut=    30.00 Ry     beta=0.70
     Davidson diagonalization with overlap
     ethr =  9.82E-05,  avg # of iterations =  4.0

     negative rho (up, down):  2.771E-04 0.000E+00

     total cpu time spent up to now is       85.6 secs

     End of self-consistent calculation

          k = 0.0000 0.0000 0.0000 ( 11060 PWs)   bands (ev):

   -29.3749 -23.5844 -18.9681 -16.4229 -15.1349 -13.8728 -12.0286 -11.3060
    -9.8132  -9.8054  -9.6802  -7.7763

     highest occupied level (ev):    -7.7763

!    total energy              =     -81.35685958 Ry
     Harris-Foulkes estimate   =     -77.75801788 Ry
     estimated scf accuracy    <       0.00208365 Ry

     The total energy is the sum of the following terms:

     one-electron contribution =    -241.98836186 Ry
     hartree contribution      =     122.82883448 Ry
     xc contribution           =     -22.90475259 Ry
     ewald contribution        =      64.30784006 Ry
     electrostatic embedding   =      -0.09425818 Ry
     cavitation energy         =       0.02741319 Ry
     PV energy                 =      -0.01754709 Ry
     correction to one-el term =      -3.51602758 Ry

     convergence has been achieved in   5 iterations

     Forces acting on atoms (cartesian axes, Ry/au):

     atom    1 type  1   force =     0.22307381    0.00001360    0.10647794
     atom    2 type  1   force =    -0.03407401    0.00000440   -0.08352362
     atom    3 type  3   force =    -0.14169169   -0.00000098    0.04656147
     atom    4 type  2   force =     0.01828668   -0.02952618    0.00794676
     atom    5 type  2   force =    -0.03321633   -0.00000597    0.01120440
     atom    6 type  2   force =     0.01828881    0.02952553    0.00794933
     atom    7 type  4   force =    -0.09026918   -0.00001735   -0.01040970
     atom    8 type  2   force =     0.00748893    0.00000223   -0.05254138
     atom    9 type  2   force =     0.04106503    0.00000524    0.03891805
     atom   10 type  2   force =    -0.00895205   -0.00000051   -0.07258324

     Total force =     0.338927     Total SCF correction =     0.106287
     SCF correction compared to forces is large: reduce conv_thr to get better values

     Writing output data file pwscf.save
 
     init_run     :     66.81s CPU     68.34s WALL (       1 calls)
     electrons    :     16.28s CPU     18.55s WALL (       1 calls)
     forces       :     17.34s CPU     17.42s WALL (       1 calls)

     Called by init_run:
     wfcinit      :      0.13s CPU      0.13s WALL (       1 calls)
     potinit      :      0.94s CPU      0.97s WALL (       1 calls)

     Called by electrons:
     c_bands      :      1.16s CPU      1.17s WALL (       5 calls)
     sum_band     :      3.36s CPU      3.55s WALL (       5 calls)
     v_of_rho     :      3.75s CPU      3.84s WALL (       6 calls)
     newd         :      1.78s CPU      1.96s WALL (       6 calls)
     mix_rho      :      0.36s CPU      0.36s WALL (       5 calls)

     Called by c_bands:
     init_us_2    :      0.04s CPU      0.04s WALL (      11 calls)
     regterg      :      1.09s CPU      1.09s WALL (       5 calls)

     Called by sum_band:
     sum_band:bec :      0.00s CPU      0.00s WALL (       5 calls)
     addusdens    :      2.58s CPU      2.76s WALL (       5 calls)

     Called by *egterg:
     h_psi        :      1.06s CPU      1.07s WALL (      23 calls)
     s_psi        :      0.04s CPU      0.03s WALL (      23 calls)
     g_psi        :      0.01s CPU      0.01s WALL (      17 calls)
     rdiaghg      :      0.01s CPU      0.01s WALL (      22 calls)

     Called by h_psi:
     h_psi:pot    :      1.05s CPU      1.06s WALL (      23 calls)
     h_psi:calbec :      0.05s CPU      0.04s WALL (      23 calls)
     vloc_psi     :      0.98s CPU      0.99s WALL (      23 calls)
     add_vuspsi   :      0.02s CPU      0.03s WALL (      23 calls)

     General routines
     calbec       :      0.07s CPU      0.06s WALL (      32 calls)
     fft          :      6.50s CPU      6.72s WALL (     231 calls)
     ffts         :      0.07s CPU      0.06s WALL (      11 calls)
     fftw         :      0.87s CPU      0.87s WALL (     244 calls)
     interpolate  :      0.44s CPU      0.47s WALL (      11 calls)
     davcio       :      0.00s CPU      0.00s WALL (       1 calls)
 
     Parallel routines
     fft_scatter  :      1.42s CPU      1.53s WALL (     486 calls)
 
     Environ routines
     calc_eelect  :      0.00s CPU      0.02s WALL (      10 calls)
     calc_velect  :      6.20s CPU      6.69s WALL (       8 calls)
     dielectric   :      0.13s CPU      0.13s WALL (       2 calls)
     calc_felect  :      0.34s CPU      0.34s WALL (       1 calls)
 
     PWSCF        :  1m40.70s CPU     1m46.73s WALL

 
   This run was terminated on:  16:19: 4  13Oct2017            

=------------------------------------------------------------------------------=
   JOB DONE.
=------------------------------------------------------------------------------=

%%%% IONS %%%%%%%%%%%%%%%%%%%%%%%%%%%%%%%%%%%%%%%%%%%%%%%%%%%%%%%%%%%%%%%%%%%%%%
 number of ions             =         10
 ionic center of charge     =      0.0095530    -0.0000002     0.0063981
 total ionic charge         =    -25.0000000
 ionic dipole               =      0.0000000     0.0000000     0.0000000
 ionic quadrupole (pc)      =    -79.0828058    -5.4513517  -105.8059629
 ionic quadrupole (gauss)   =    -82.2078058    -8.5763517  -108.9309629
 ion   1 type =  1 coordinates =      0.0000000     0.0000000     0.0000000
 ion   2 type =  1 coordinates =      0.0000000     0.0000000     2.9101782
 ion   3 type =  3 coordinates =      2.3419379     0.0000000    -1.0900479
 ion   4 type =  2 coordinates =      0.9532347    -1.6509323     3.5841800
 ion   5 type =  2 coordinates =     -1.9063663    -0.0000596     3.5841809
 ion   6 type =  2 coordinates =      0.9531315     1.6509919     3.5841800
 ion   7 type =  4 coordinates =     -1.9680045    -0.0000375    -1.2826193
 ion   8 type =  2 coordinates =      2.5262613    -0.0000303    -2.9510950
 ion   9 type =  2 coordinates =      3.8892907     0.0002681    -0.0514326
 ion  10 type =  2 coordinates =     -1.5407317    -0.0000890    -3.0457220

%%%% SYSTEM %%%%%%%%%%%%%%%%%%%%%%%%%%%%%%%%%%%%%%%%%%%%%%%%%%%%%%%%%%%%%%%%%%%%
 system is built from all present ionic types
 system defined dimension   =  0 
 system defined axis        =  3 
 system center              =      0.0095530    -0.0000002     0.0063981 
 system width               =      0.5223840 

%%%% BOUNDARY %%%%%%%%%%%%%%%%%%%%%%%%%%%%%%%%%%%%%%%%%%%%%%%%%%%%%%%%%%%%%%%%%%
 boundary mode              = ionic                
 boundary is built from soft-spheres centered on ionic positions
 solvent-dependent scaling  =      1.1000000 
 softness parameter         =      0.5000000 

%%%% DIELECTRIC %%%%%%%%%%%%%%%%%%%%%%%%%%%%%%%%%%%%%%%%%%%%%%%%%%%%%%%%%%%%%%%%%
 dielectric build on homogeneous background
 environment bulk permitt.  =     78.3000000 
 dielectric flags
 need gradient              =  F 
 need factor depend. sqrt   =  T 
 need gradient of logarithm =  T 

%%%% ELECTRONS %%%%%%%%%%%%%%%%%%%%%%%%%%%%%%%%%%%%%%%%%%%%%%%%%%%%%%%%%%%%%%%%%
 number of electrons        =         24
 total electronic charge    =     24.0000000
 number of spin components  =  1

%%%% COMPUTE ELECTROSTATIC POTENTIAL %%%%%%%%%%%%%%%%%%%%%%%%%%%%%%%%%%%%%%%%%%%
 Iteration #          1
  pAp =    92.6750786372092       rzold =    89.1099297064754       alpha = 
  0.961530661930268     
 delta_qm =   0.227842E-01 delta_en =   0.897040E+03 tol =   0.100000E-03
 Iteration #          2
  pAp =    302.603427193753       rzold =    30.1947757327463       alpha = 
  9.978332371435118E-002
 delta_qm =   0.308557E-02 delta_en =   0.164519E+02 tol =   0.100000E-03
 Iteration #          3
  pAp =    1.04561353195014       rzold =   0.203269200511523       alpha = 
  0.194401845711018     
 delta_qm =   0.142848E-02 delta_en =   0.352609E+01 tol =   0.100000E-03
 Iteration #          4
  pAp =   0.111105209993245       rzold =   1.837111358802733E-002  alpha = 
  0.165348803977278     
 delta_qm =   0.111418E-02 delta_en =   0.214513E+01 tol =   0.100000E-03
 Iteration #          5
  pAp =   1.507759204125699E-002  rzold =   4.087200577908456E-003  alpha = 
  0.271077806504155     
 delta_qm =   0.761842E-03 delta_en =   0.100294E+01 tol =   0.100000E-03
 Iteration #          6
  pAp =   5.285497407974661E-003  rzold =   1.969256312813151E-003  alpha = 
  0.372577292317270     
 delta_qm =   0.397276E-03 delta_en =   0.272727E+00 tol =   0.100000E-03
 Iteration #          7
  pAp =   2.519138888173447E-003  rzold =   7.432166226114546E-004  alpha = 
  0.295028045535964     
 delta_qm =   0.261775E-03 delta_en =   0.118413E+00 tol =   0.100000E-03
 Iteration #          8
  pAp =   1.713888967425845E-003  rzold =   4.341349624656379E-004  alpha = 
  0.253304018356383     
 delta_qm =   0.196077E-03 delta_en =   0.664348E-01 tol =   0.100000E-03
 Iteration #          9
  pAp =   3.898647751046554E-004  rzold =   2.014079530115227E-004  alpha = 
  0.516609773112887     
 delta_qm =   0.105417E-03 delta_en =   0.192028E-01 tol =   0.100000E-03
 Iteration #         10
  pAp =   3.004356491097864E-004  rzold =   9.969615436039665E-005  alpha = 
  0.331838630521391     
 delta_qm =   0.502453E-04 delta_en =   0.436250E-02 tol =   0.100000E-03
 Iteration #         11
  pAp =   5.505631253952359E-005  rzold =   1.843312227071933E-005  alpha = 
  0.334804882864007     
 delta_qm =   0.353759E-04 delta_en =   0.216252E-02 tol =   0.100000E-03
 Iteration #         12
  pAp =   8.134446438930412E-006  rzold =   3.092275943069465E-006  alpha = 
  0.380145836140764     
 delta_qm =   0.230702E-04 delta_en =   0.919701E-03 tol =   0.100000E-03
 Iteration #         13
  pAp =   2.790825728126292E-006  rzold =   1.303332910609769E-006  alpha = 
  0.467006197296598     
 delta_qm =   0.136597E-04 delta_en =   0.322421E-03 tol =   0.100000E-03
 Iteration #         14
  pAp =   2.481436662762056E-006  rzold =   8.256059234193959E-007  alpha = 
  0.332712873880256     
 delta_qm =   0.855231E-05 delta_en =   0.126389E-03 tol =   0.100000E-03
 Iteration #         15
  pAp =   1.068420712584224E-006  rzold =   3.359711417350472E-007  alpha = 
  0.314455848504119     
 delta_qm =   0.547721E-05 delta_en =   0.518396E-04 tol =   0.100000E-03
 Charges are converged, exit!

%%%% ELECTRONS %%%%%%%%%%%%%%%%%%%%%%%%%%%%%%%%%%%%%%%%%%%%%%%%%%%%%%%%%%%%%%%%%
 number of electrons        =         24
 total electronic charge    =     24.0000000
 number of spin components  =  1

%%%% COMPUTE ELECTROSTATIC POTENTIAL %%%%%%%%%%%%%%%%%%%%%%%%%%%%%%%%%%%%%%%%%%%
 Warning: bad guess with residual norm =   0.989825E+03, reset to no guess
 Iteration #          1
  pAp =    96.0514217019473       rzold =    93.0499541105832       alpha = 
  0.968751450648197     
 delta_qm =   0.211208E-01 delta_en =   0.770842E+03 tol =   0.100000E-03
 Iteration #          2
  pAp =    259.491609116079       rzold =    25.8136388617829       alpha = 
  9.947774014625507E-002
 delta_qm =   0.273134E-02 delta_en =   0.128913E+02 tol =   0.100000E-03
 Iteration #          3
  pAp =   0.908508909426436       rzold =   0.156197686341601       alpha = 
  0.171927522912475     
 delta_qm =   0.138470E-02 delta_en =   0.331328E+01 tol =   0.100000E-03
 Iteration #          4
  pAp =   0.105228673400029       rzold =   1.666900629924684E-002  alpha = 
  0.158407454552613     
 delta_qm =   0.113722E-02 delta_en =   0.223478E+01 tol =   0.100000E-03
 Iteration #          5
  pAp =   9.588113354828691E-003  rzold =   3.319509266955020E-003  alpha = 
  0.346210890934375     
 delta_qm =   0.718365E-03 delta_en =   0.891731E+00 tol =   0.100000E-03
 Iteration #          6
  pAp =   5.696542171038303E-003  rzold =   1.982705524180829E-003  alpha = 
  0.348054216865289     
 delta_qm =   0.379925E-03 delta_en =   0.249425E+00 tol =   0.100000E-03
 Iteration #          7
  pAp =   2.936068646180420E-003  rzold =   7.603905742728488E-004  alpha = 
  0.258982559982735     
 delta_qm =   0.278565E-03 delta_en =   0.134090E+00 tol =   0.100000E-03
 Iteration #          8
  pAp =   1.449586948951016E-003  rzold =   4.676394099786538E-004  alpha = 
  0.322601835175916     
 delta_qm =   0.186094E-03 delta_en =   0.598422E-01 tol =   0.100000E-03
 Iteration #          9
  pAp =   4.289392198703273E-004  rzold =   2.072259649407845E-004  alpha = 
  0.483112654057214     
 delta_qm =   0.985247E-04 delta_en =   0.167739E-01 tol =   0.100000E-03
 Iteration #         10
  pAp =   2.718090406443153E-004  rzold =   8.771854018995515E-005  alpha = 
  0.322721201553933     
 delta_qm =   0.480270E-04 delta_en =   0.398579E-02 tol =   0.100000E-03
 Iteration #         11
  pAp =   3.658291414599025E-005  rzold =   1.281474691457114E-005  alpha = 
  0.350293223318179     
 delta_qm =   0.353639E-04 delta_en =   0.216105E-02 tol =   0.100000E-03
 Iteration #         12
  pAp =   6.821271725791757E-006  rzold =   2.840713089305681E-006  alpha = 
  0.416449190634750     
 delta_qm =   0.218898E-04 delta_en =   0.827998E-03 tol =   0.100000E-03
 Iteration #         13
  pAp =   2.125127692305743E-006  rzold =   1.182238299337045E-006  alpha = 
  0.556314005797142     
 delta_qm =   0.114560E-04 delta_en =   0.226783E-03 tol =   0.100000E-03
 Iteration #         14
  pAp =   1.965534235144362E-006  rzold =   6.364552856946725E-007  alpha = 
  0.323807784323801     
 delta_qm =   0.748427E-05 delta_en =   0.967926E-04 tol =   0.100000E-03
 Charges are converged, exit!

%%%% ELECTRONS %%%%%%%%%%%%%%%%%%%%%%%%%%%%%%%%%%%%%%%%%%%%%%%%%%%%%%%%%%%%%%%%%
 number of electrons        =         24
 total electronic charge    =     24.0000000
 number of spin components  =  1

%%%% COMPUTE ELECTROSTATIC POTENTIAL %%%%%%%%%%%%%%%%%%%%%%%%%%%%%%%%%%%%%%%%%%%
 Warning: bad guess with residual norm =   0.105467E+04, reset to no guess
 Iteration #          1
  pAp =    95.9084854624022       rzold =    93.6166433806528       alpha = 
  0.976103865359778     
 delta_qm =   0.184447E-01 delta_en =   0.587878E+03 tol =   0.100000E-03
 Iteration #          2
  pAp =    202.693913993869       rzold =    19.9964737279603       alpha = 
  9.865354777531760E-002
 delta_qm =   0.255282E-02 delta_en =   0.112612E+02 tol =   0.100000E-03
 Iteration #          3
  pAp =   0.689877626997660       rzold =   0.127162233923879       alpha = 
  0.184325783222291     
 delta_qm =   0.129332E-02 delta_en =   0.289040E+01 tol =   0.100000E-03
 Iteration #          4
  pAp =   9.233690807650617E-002  rzold =   1.448798720057482E-002  alpha = 
  0.156903534051311     
 delta_qm =   0.106123E-02 delta_en =   0.194607E+01 tol =   0.100000E-03
 Iteration #          5
  pAp =   9.224203264323449E-003  rzold =   3.002750785909318E-003  alpha = 
  0.325529555221651     
 delta_qm =   0.697252E-03 delta_en =   0.840085E+00 tol =   0.100000E-03
 Iteration #          6
  pAp =   4.276765013239445E-003  rzold =   1.670398059952387E-003  alpha = 
  0.390575132087311     
 delta_qm =   0.360505E-03 delta_en =   0.224577E+00 tol =   0.100000E-03
 Iteration #          7
  pAp =   1.355013855054007E-003  rzold =   5.721539172499967E-004  alpha = 
  0.422249495911754     
 delta_qm =   0.223790E-03 delta_en =   0.865417E-01 tol =   0.100000E-03
 Iteration #          8
  pAp =   8.000093454211977E-004  rzold =   2.778032620767026E-004  alpha = 
  0.347250021098743     
 delta_qm =   0.156354E-03 delta_en =   0.422436E-01 tol =   0.100000E-03
 Iteration #          9
  pAp =   9.068439636650790E-004  rzold =   2.455713273347218E-004  alpha = 
  0.270797774671429     
 delta_qm =   0.927127E-04 delta_en =   0.148533E-01 tol =   0.100000E-03
 Iteration #         10
  pAp =   2.579227626223699E-004  rzold =   7.966912365212859E-005  alpha = 
  0.308887524474813     
 delta_qm =   0.465350E-04 delta_en =   0.374200E-02 tol =   0.100000E-03
 Iteration #         11
  pAp =   3.929782403740558E-005  rzold =   1.288600991165429E-005  alpha = 
  0.327906448443272     
 delta_qm =   0.349818E-04 delta_en =   0.211460E-02 tol =   0.100000E-03
 Iteration #         12
  pAp =   7.344482486834205E-006  rzold =   2.865800887101799E-006  alpha = 
  0.390197797086325     
 delta_qm =   0.222042E-04 delta_en =   0.851947E-03 tol =   0.100000E-03
 Iteration #         13
  pAp =   2.489894684204380E-006  rzold =   1.232373937085703E-006  alpha = 
  0.494950226169705     
 delta_qm =   0.123593E-04 delta_en =   0.263955E-03 tol =   0.100000E-03
 Iteration #         14
  pAp =   2.171644055832203E-006  rzold =   7.564545591315379E-007  alpha = 
  0.348332663955675     
 delta_qm =   0.753507E-05 delta_en =   0.981111E-04 tol =   0.100000E-03
 Charges are converged, exit!

%%%% ELECTRONS %%%%%%%%%%%%%%%%%%%%%%%%%%%%%%%%%%%%%%%%%%%%%%%%%%%%%%%%%%%%%%%%%
 number of electrons        =         24
 total electronic charge    =     24.0000000
 number of spin components  =  1

%%%% COMPUTE ELECTROSTATIC POTENTIAL %%%%%%%%%%%%%%%%%%%%%%%%%%%%%%%%%%%%%%%%%%%
 Warning: bad guess with residual norm =   0.107136E+04, reset to no guess
 Iteration #          1
  pAp =    95.3604763968027       rzold =    93.4036556451053       alpha = 
  0.979479750672019     
 delta_qm =   0.170696E-01 delta_en =   0.503492E+03 tol =   0.100000E-03
 Iteration #          2
  pAp =    171.753851458459       rzold =    16.9881339883541       alpha = 
  9.890977025608598E-002
 delta_qm =   0.262393E-02 delta_en =   0.118973E+02 tol =   0.100000E-03
 Iteration #          3
  pAp =   0.777717703727672       rzold =   0.142390513853543       alpha = 
  0.183087659148110     
 delta_qm =   0.124710E-02 delta_en =   0.268750E+01 tol =   0.100000E-03
 Iteration #          4
  pAp =   0.100533479753088       rzold =   1.553543500720908E-002  alpha = 
  0.154529964001688     
 delta_qm =   0.102454E-02 delta_en =   0.181386E+01 tol =   0.100000E-03
 Iteration #          5
  pAp =   9.680863621774441E-003  rzold =   2.970593842701345E-003  alpha = 
  0.306852152737676     
 delta_qm =   0.695120E-03 delta_en =   0.834956E+00 tol =   0.100000E-03
 Iteration #          6
  pAp =   3.831334328208865E-003  rzold =   1.549240504808584E-003  alpha = 
  0.404360562690140     
 delta_qm =   0.367045E-03 delta_en =   0.232799E+00 tol =   0.100000E-03
 Iteration #          7
  pAp =   1.550423756142625E-003  rzold =   6.057962987324988E-004  alpha = 
  0.390729499810870     
 delta_qm =   0.230851E-03 delta_en =   0.920886E-01 tol =   0.100000E-03
 Iteration #          8
  pAp =   1.320740571537144E-003  rzold =   3.411567570587186E-004  alpha = 
  0.258307168274284     
 delta_qm =   0.170768E-03 delta_en =   0.503915E-01 tol =   0.100000E-03
 Iteration #          9
  pAp =   5.857824430652701E-004  rzold =   2.172280545277231E-004  alpha = 
  0.370834013718500     
 delta_qm =   0.944282E-04 delta_en =   0.154080E-01 tol =   0.100000E-03
 Iteration #         10
  pAp =   2.192144027452697E-004  rzold =   7.508725612802390E-005  alpha = 
  0.342528844764257     
 delta_qm =   0.454715E-04 delta_en =   0.357291E-02 tol =   0.100000E-03
 Iteration #         11
  pAp =   3.814397612099883E-005  rzold =   1.250401345201634E-005  alpha = 
  0.327810960565611     
 delta_qm =   0.342472E-04 delta_en =   0.202672E-02 tol =   0.100000E-03
 Iteration #         12
  pAp =   7.718372610183389E-006  rzold =   2.879852411820012E-006  alpha = 
  0.373116530811226     
 delta_qm =   0.220146E-04 delta_en =   0.837462E-03 tol =   0.100000E-03
 Iteration #         13
  pAp =   2.389234536066570E-006  rzold =   1.186766640427656E-006  alpha = 
  0.496714166195440     
 delta_qm =   0.122740E-04 delta_en =   0.260324E-03 tol =   0.100000E-03
 Iteration #         14
  pAp =   2.036423230991879E-006  rzold =   7.296479456305525E-007  alpha = 
  0.358298773322854     
 delta_qm =   0.746380E-05 delta_en =   0.962640E-04 tol =   0.100000E-03
 Charges are converged, exit!

%%%% ELECTRONS %%%%%%%%%%%%%%%%%%%%%%%%%%%%%%%%%%%%%%%%%%%%%%%%%%%%%%%%%%%%%%%%%
 number of electrons        =         24
 total electronic charge    =     24.0000000
 number of spin components  =  1
