
     Program PWSCF v.6.1 (svn rev. 13369) starts on  1Feb2018 at 12:44:32 

     This program is part of the open-source Quantum ESPRESSO suite
     for quantum simulation of materials; please cite
         "P. Giannozzi et al., J. Phys.:Condens. Matter 21 395502 (2009);
          URL http://www.quantum-espresso.org", 
     in publications or presentations arising from this work. More details at
     http://www.quantum-espresso.org/quote

     Parallel version (MPI), running on     1 processors
     Reading input from anion.in

     Current dimensions of program PWSCF are:
     Max number of different atomic species (ntypx) = 10
     Max number of k-points (npk) =  40000
     Max angular momentum in pseudopotentials (lmaxx) =  3
               file C.pbe-rrkjus.UPF: wavefunction(s)  2S 2P renormalized
               file H.pbe-rrkjus.UPF: wavefunction(s)  1S renormalized
               file O.pbe-rrkjus.UPF: wavefunction(s)  2S renormalized

     gamma-point specific algorithms are used

     Subspace diagonalization in iterative solution of the eigenvalue problem:
     a serial algorithm will be used

 
     G-vector sticks info
     --------------------
     sticks:   dense  smooth     PW     G-vecs:    dense   smooth      PW
     Sum        9549    3809    949               701475   177509   22119
 


     bravais-lattice index     =            1
     lattice parameter (alat)  =      20.0000  a.u.
     unit-cell volume          =    8000.0000 (a.u.)^3
     number of atoms/cell      =            7
     number of atomic types    =            3
     number of electrons       =        24.00
     number of Kohn-Sham states=           12
     kinetic-energy cutoff     =      30.0000  Ry
     charge density cutoff     =     300.0000  Ry
     convergence threshold     =      1.0E-03
     mixing beta               =       0.7000
     number of iterations used =            8  plain     mixing
     Exchange-correlation      =  SLA  PW   PBE  PBE ( 1  4  3  4 0 0)
 

     Environ Module
     ==============

     Plese cite
         O. Andreussi, I. Dabo and N. Marzari, J. Chem. Phys. 136, 064102 (2012)         
     in publications or presentations arising from this work.

     compensation onset threshold      =               0.1000E+03 
     static permittivity               =                    78.30 
     epsilon calculation mode          =                    ionic 
     surface tension in input (dyn/cm) =                    50.00 
     surface tension in internal units =               0.6423E-04 
     external pressure in input (GPa)  =                    -0.35 
     external pressure in inter. units =              -0.2379E-04 

     Electrostatic Setup
     -------------------
     electrostatic problem to solve    = generalized              
     numerical solver adopted          = cg                       
     type of auxiliary density adopted = none                     
     type of core tool for poisson     = fft                      
     type of core tool for s(r) deriv  = analytic                 



     celldm(1)=  20.000000  celldm(2)=   0.000000  celldm(3)=   0.000000
     celldm(4)=   0.000000  celldm(5)=   0.000000  celldm(6)=   0.000000

     crystal axes: (cart. coord. in units of alat)
               a(1) = (   1.000000   0.000000   0.000000 )  
               a(2) = (   0.000000   1.000000   0.000000 )  
               a(3) = (   0.000000   0.000000   1.000000 )  

     reciprocal axes: (cart. coord. in units 2 pi/alat)
               b(1) = (  1.000000  0.000000  0.000000 )  
               b(2) = (  0.000000  1.000000  0.000000 )  
               b(3) = (  0.000000  0.000000  1.000000 )  


     PseudoPot. # 1 for C  read from file:
     /home/fnattino/Programs/qe-6.1/Environ/tests/../..//pseudo/C.pbe-rrkjus.UPF
     MD5 check sum: 00fb224312de0c5b6853bd333518df6f
     Pseudo is Ultrasoft, Zval =  4.0
     Generated by new atomic code, or converted to UPF format
     Using radial grid of  627 points,  4 beta functions with: 
                l(1) =   0
                l(2) =   0
                l(3) =   1
                l(4) =   1
     Q(r) pseudized with 0 coefficients 


     PseudoPot. # 2 for H  read from file:
     /home/fnattino/Programs/qe-6.1/Environ/tests/../..//pseudo/H.pbe-rrkjus.UPF
     MD5 check sum: 7cc9d459525c9a0585f487a71c3c9563
     Pseudo is Ultrasoft, Zval =  1.0
     Generated by new atomic code, or converted to UPF format
     Using radial grid of 1061 points,  2 beta functions with: 
                l(1) =   0
                l(2) =   0
     Q(r) pseudized with 0 coefficients 


     PseudoPot. # 3 for O  read from file:
     /home/fnattino/Programs/qe-6.1/Environ/tests/../..//pseudo/O.pbe-rrkjus.UPF
     MD5 check sum: 390ba29e75625707450f3bd3f0eb6be9
     Pseudo is Ultrasoft, Zval =  6.0
     Generated by new atomic code, or converted to UPF format
     Using radial grid of 1269 points,  4 beta functions with: 
                l(1) =   0
                l(2) =   0
                l(3) =   1
                l(4) =   1
     Q(r) pseudized with 0 coefficients 


     atomic species   valence    mass     pseudopotential
        C              4.00    12.00000     C ( 1.00)
        H              1.00     1.00000     H ( 1.00)
        O              6.00    16.00000     O ( 1.00)

      2 Sym. Ops. (no inversion) found



   Cartesian axes

     site n.     atom                  positions (alat units)
         1           C   tau(   1) = (   0.0000000   0.0000000   0.0000000  )
         2           C   tau(   2) = (   0.0000000   0.0000000   0.1455089  )
         3           O   tau(   3) = (   0.1170969   0.0000000  -0.0545024  )
         4           H   tau(   4) = (   0.0476617  -0.0825466   0.1792090  )
         5           H   tau(   5) = (  -0.0953183  -0.0000030   0.1792090  )
         6           H   tau(   6) = (   0.0476566   0.0825496   0.1792090  )
         7           O   tau(   7) = (  -0.0984002  -0.0000019  -0.0641310  )

     number of k points=     1
                       cart. coord. in units 2pi/alat
        k(    1) = (   0.0000000   0.0000000   0.0000000), wk =   2.0000000

     Dense  grid:   350738 G-vectors     FFT dimensions: ( 120, 120, 120)

     Smooth grid:    88755 G-vectors     FFT dimensions: (  72,  72,  72)

     Estimated max dynamical RAM per process >     292.61MB

     Initial potential from superposition of free atoms
     Check: negative starting charge=   -0.000600

     starting charge   22.71128, renormalised to   24.00000

     negative rho (up, down):  6.345E-04 0.000E+00
     Starting wfc are   19 randomized atomic wfcs

     total cpu time spent up to now is       23.0 secs

     per-process dynamical memory:   564.0 Mb

     Self-consistent Calculation

     iteration #  1     ecut=    30.00 Ry     beta=0.70
     Davidson diagonalization with overlap
     ethr =  1.00E-02,  avg # of iterations =  2.0

     negative rho (up, down):  1.721E-04 0.000E+00

     add environment contribution to local potential
     polarization accuracy = 3.5E-06, # of iterations =  16

     total cpu time spent up to now is       26.2 secs

     total energy              =     -89.65208990 Ry
     Harris-Foulkes estimate   =     -91.05801329 Ry
     estimated scf accuracy    <       1.85536135 Ry
     electrostatic embedding   =       0.00000000 Ry
     cavitation energy         =       0.02156990 Ry
     PV energy                 =      -0.01206296 Ry
     correction to one-el term =       0.00000000 Ry

     iteration #  2     ecut=    30.00 Ry     beta=0.70
     Davidson diagonalization with overlap
     ethr =  7.73E-03,  avg # of iterations =  3.0

     negative rho (up, down):  1.274E-03 0.000E+00

     add environment contribution to local potential
     polarization accuracy = 6.3E-06, # of iterations =  15

     total cpu time spent up to now is       29.5 secs

     total energy              =     -90.19200217 Ry
     Harris-Foulkes estimate   =     -93.29520023 Ry
     estimated scf accuracy    <       0.83869812 Ry
     electrostatic embedding   =      -0.08416931 Ry
     cavitation energy         =       0.02156990 Ry
     PV energy                 =      -0.01206296 Ry
     correction to one-el term =       2.71103073 Ry

     iteration #  3     ecut=    30.00 Ry     beta=0.70
     Davidson diagonalization with overlap
     ethr =  3.49E-03,  avg # of iterations =  2.0

     negative rho (up, down):  3.147E-04 0.000E+00

     add environment contribution to local potential
     polarization accuracy = 5.3E-06, # of iterations =  15

     total cpu time spent up to now is       32.9 secs

     total energy              =     -90.40360033 Ry
     Harris-Foulkes estimate   =     -93.72476308 Ry
     estimated scf accuracy    <       0.01962277 Ry
     electrostatic embedding   =      -0.11703949 Ry
     cavitation energy         =       0.02156990 Ry
     PV energy                 =      -0.01206296 Ry
     correction to one-el term =       3.42083483 Ry

     iteration #  4     ecut=    30.00 Ry     beta=0.70
     Davidson diagonalization with overlap
     ethr =  8.18E-05,  avg # of iterations =  2.0

     negative rho (up, down):  1.727E-04 0.000E+00

     add environment contribution to local potential
     polarization accuracy = 4.6E-06, # of iterations =  15

     total cpu time spent up to now is       36.0 secs

     total energy              =     -90.41174380 Ry
     Harris-Foulkes estimate   =     -94.26514035 Ry
     estimated scf accuracy    <       0.00299386 Ry
     electrostatic embedding   =      -0.14827157 Ry
     cavitation energy         =       0.02156990 Ry
     PV energy                 =      -0.01206296 Ry
     correction to one-el term =       3.99046659 Ry

     iteration #  5     ecut=    30.00 Ry     beta=0.70
     Davidson diagonalization with overlap
     ethr =  1.25E-05,  avg # of iterations =  3.0

     negative rho (up, down):  1.425E-04 0.000E+00

     add environment contribution to local potential
     polarization accuracy = 4.6E-06, # of iterations =  15

     total cpu time spent up to now is       39.1 secs

     total energy              =     -90.41319385 Ry
     Harris-Foulkes estimate   =     -94.45586597 Ry
     estimated scf accuracy    <       0.00144880 Ry
     electrostatic embedding   =      -0.16412529 Ry
     cavitation energy         =       0.02156990 Ry
     PV energy                 =      -0.01206296 Ry
     correction to one-el term =       4.19658811 Ry

     iteration #  6     ecut=    30.00 Ry     beta=0.70
     Davidson diagonalization with overlap
     ethr =  6.04E-06,  avg # of iterations =  4.0

     negative rho (up, down):  1.772E-04 0.000E+00

     total cpu time spent up to now is       40.4 secs

     End of self-consistent calculation

          k = 0.0000 0.0000 0.0000 ( 11060 PWs)   bands (ev):

   -25.4130 -22.5491 -17.2427 -11.9952 -10.1458 -10.1072 -10.0387  -8.7103
    -8.3114  -5.9513  -5.6892  -5.1873

     highest occupied level (ev):    -5.1873

!    total energy              =     -90.41343818 Ry
     Harris-Foulkes estimate   =     -94.46956297 Ry
     estimated scf accuracy    <       0.00025617 Ry

     The total energy is the sum of the following terms:

     one-electron contribution =    -245.55503854 Ry
     hartree contribution      =     127.66498130 Ry
     xc contribution           =     -23.51823033 Ry
     ewald contribution        =      46.93894023 Ry
     electrostatic embedding   =      -0.16552830 Ry
     cavitation energy         =       0.02156990 Ry
     PV energy                 =      -0.01206296 Ry
     correction to one-el term =       4.21193051 Ry

     convergence has been achieved in   6 iterations

     Forces acting on atoms (cartesian axes, Ry/au):

     atom    1 type  1   force =     0.13472229    0.00000000   -0.02105275
     atom    2 type  1   force =    -0.01957726    0.00000000   -0.06493233
     atom    3 type  3   force =    -0.09359678    0.00000000    0.04696749
     atom    4 type  2   force =     0.01965141   -0.03029231    0.01190212
     atom    5 type  2   force =    -0.03691194    0.00000000    0.01501865
     atom    6 type  2   force =     0.01965141    0.03029231    0.01190212
     atom    7 type  3   force =    -0.02393912    0.00000000    0.00019470

     Total force =     0.198018     Total SCF correction =     0.021758
     SCF correction compared to forces is large: reduce conv_thr to get better values

     Writing output data file pwscf.save
 
     init_run     :     22.54s CPU     22.92s WALL (       1 calls)
     electrons    :     15.89s CPU     17.48s WALL (       1 calls)
     forces       :      7.98s CPU      8.05s WALL (       1 calls)

     Called by init_run:
     wfcinit      :      0.08s CPU      0.09s WALL (       1 calls)
     potinit      :      0.88s CPU      0.92s WALL (       1 calls)

     Called by electrons:
     c_bands      :      0.96s CPU      0.97s WALL (       6 calls)
     sum_band     :      2.34s CPU      2.62s WALL (       6 calls)
     v_of_rho     :      3.62s CPU      3.76s WALL (       7 calls)
     newd         :      1.26s CPU      1.49s WALL (       7 calls)
     mix_rho      :      0.32s CPU      0.33s WALL (       6 calls)

     Called by c_bands:
     init_us_2    :      0.05s CPU      0.05s WALL (      13 calls)
     regterg      :      0.88s CPU      0.90s WALL (       6 calls)

     Called by sum_band:
     sum_band:bec :      0.00s CPU      0.00s WALL (       6 calls)
     addusdens    :      1.62s CPU      1.87s WALL (       6 calls)

     Called by *egterg:
     h_psi        :      0.84s CPU      0.87s WALL (      23 calls)
     s_psi        :      0.02s CPU      0.02s WALL (      23 calls)
     g_psi        :      0.02s CPU      0.01s WALL (      16 calls)
     rdiaghg      :      0.00s CPU      0.01s WALL (      22 calls)

     Called by h_psi:
     h_psi:pot    :      0.84s CPU      0.86s WALL (      23 calls)
     h_psi:calbec :      0.02s CPU      0.02s WALL (      23 calls)
     vloc_psi     :      0.81s CPU      0.82s WALL (      23 calls)
     add_vuspsi   :      0.02s CPU      0.02s WALL (      23 calls)

     General routines
     calbec       :      0.04s CPU      0.03s WALL (      33 calls)
     fft          :      6.66s CPU      7.02s WALL (     305 calls)
     ffts         :      0.04s CPU      0.05s WALL (      13 calls)
     fftw         :      0.64s CPU      0.63s WALL (     268 calls)
     interpolate  :      0.42s CPU      0.45s WALL (      13 calls)
     davcio       :      0.00s CPU      0.00s WALL (       1 calls)
 
     Parallel routines
     fft_scatter  :      1.72s CPU      1.94s WALL (     586 calls)
 
     Environ routines
     calc_eelect  :      0.02s CPU      0.02s WALL (      12 calls)
     calc_velect  :      6.98s CPU      7.87s WALL (      10 calls)
     dielectric   :      0.10s CPU      0.11s WALL (       2 calls)
     calc_felect  :      0.06s CPU      0.07s WALL (       1 calls)
 
     PWSCF        :    46.57s CPU        48.62s WALL

 
   This run was terminated on:  12:45:21   1Feb2018            

=------------------------------------------------------------------------------=
   JOB DONE.
=------------------------------------------------------------------------------=

%%%% IONS %%%%%%%%%%%%%%%%%%%%%%%%%%%%%%%%%%%%%%%%%%%%%%%%%%%%%%%%%%%%%%%%%%%%%%
 number of ions             =          7
 ionic center of charge     =      0.0048774    -0.0000005     0.0177332
 total ionic charge         =    -23.0000000
 ionic dipole               =      0.0000000     0.0000000     0.0000000
 ionic quadrupole (pc)      =    -61.3787794    -5.4513517   -86.5224183
 ionic quadrupole (gauss)   =    -64.2537794    -8.3263517   -89.3974183
 ion   1 type =  1 coordinates =      0.0000000     0.0000000     0.0000000
 ion   2 type =  1 coordinates =      0.0000000     0.0000000     2.9101782
 ion   3 type =  3 coordinates =      2.3419379     0.0000000    -1.0900479
 ion   4 type =  2 coordinates =      0.9532347    -1.6509323     3.5841800
 ion   5 type =  2 coordinates =     -1.9063663    -0.0000596     3.5841809
 ion   6 type =  2 coordinates =      0.9531315     1.6509919     3.5841800
 ion   7 type =  3 coordinates =     -1.9680045    -0.0000375    -1.2826193

%%%% SYSTEM %%%%%%%%%%%%%%%%%%%%%%%%%%%%%%%%%%%%%%%%%%%%%%%%%%%%%%%%%%%%%%%%%%%%
 system is built from all present ionic types
 system defined dimension   =  0 
 system defined axis        =  3 
 system center              =      0.0048774    -0.0000005     0.0177332 
 system width               =      0.1900359 

%%%% BOUNDARY %%%%%%%%%%%%%%%%%%%%%%%%%%%%%%%%%%%%%%%%%%%%%%%%%%%%%%%%%%%%%%%%%%
 boundary mode              = ionic                
 boundary is built from soft-spheres centered on ionic positions
 solvent-dependent scaling  =      0.9800000 
 softness parameter         =      0.5000000 
 volume of the QM region    =    507.0065690 
 surface of the QM region   =    335.8202797 

%%%% DIELECTRIC %%%%%%%%%%%%%%%%%%%%%%%%%%%%%%%%%%%%%%%%%%%%%%%%%%%%%%%%%%%%%%%%%
 dielectric build on homogeneous background
 environment bulk permitt.  =     78.3000000 
 dielectric flags
 need gradient              =  F 
 need factor depend. sqrt   =  T 
 total dielectric charge    =      0.0000000

%%%% ELECTRONS %%%%%%%%%%%%%%%%%%%%%%%%%%%%%%%%%%%%%%%%%%%%%%%%%%%%%%%%%%%%%%%%%
 number of electrons        =         23
 total electronic charge    =     24.0000000
 number of spin components  =  1

%%%% ELECTRONS %%%%%%%%%%%%%%%%%%%%%%%%%%%%%%%%%%%%%%%%%%%%%%%%%%%%%%%%%%%%%%%%%
 number of electrons        =         24
 total electronic charge    =     24.0000000
 number of spin components  =  1

%%%% COMPUTE ELECTROSTATIC POTENTIAL %%%%%%%%%%%%%%%%%%%%%%%%%%%%%%%%%%%%%%%%%%%
 Iteration #          1
  pAp =    94.7539664997675       rzold =    94.5389130357592       alpha = 
  0.997730401460198     
 delta_qm =   0.545118E-02 delta_en =   0.513481E+02 tol =   0.100000E-04
 Iteration #          2
  pAp =    7.95988701139637       rzold =    1.08762645503705       alpha = 
  0.136638428847026     
 delta_qm =   0.242827E-02 delta_en =   0.101892E+02 tol =   0.100000E-04
 Iteration #          3
  pAp =   0.553983651638610       rzold =   0.103765520235747       alpha = 
  0.187307910493067     
 delta_qm =   0.832542E-03 delta_en =   0.119772E+01 tol =   0.100000E-04
 Iteration #          4
  pAp =   0.109192221907189       rzold =   1.515005801852391E-002  alpha = 
  0.138746677683701     
 delta_qm =   0.950635E-03 delta_en =   0.156160E+01 tol =   0.100000E-04
 Iteration #          5
  pAp =   7.380583096773899E-003  rzold =   2.449648624185053E-003  alpha = 
  0.331904483977128     
 delta_qm =   0.649010E-03 delta_en =   0.727857E+00 tol =   0.100000E-04
 Iteration #          6
  pAp =   2.607890281215231E-003  rzold =   1.197596529722647E-003  alpha = 
  0.459220442803517     
 delta_qm =   0.375786E-03 delta_en =   0.244019E+00 tol =   0.100000E-04
 Iteration #          7
  pAp =   3.869000192517090E-003  rzold =   1.059787756311796E-003  alpha = 
  0.273917731604536     
 delta_qm =   0.239564E-03 delta_en =   0.991712E-01 tol =   0.100000E-04
 Iteration #          8
  pAp =   6.628433207438744E-004  rzold =   2.879740587882409E-004  alpha = 
  0.434452682520905     
 delta_qm =   0.151907E-03 delta_en =   0.398749E-01 tol =   0.100000E-04
 Iteration #          9
  pAp =   4.430079108269536E-004  rzold =   1.678350180664026E-004  alpha = 
  0.378853320594453     
 delta_qm =   0.692870E-04 delta_en =   0.829559E-02 tol =   0.100000E-04
 Iteration #         10
  pAp =   1.103029648829786E-004  rzold =   3.867638730175889E-005  alpha = 
  0.350637785147398     
 delta_qm =   0.390878E-04 delta_en =   0.264013E-02 tol =   0.100000E-04
 Iteration #         11
  pAp =   1.441935979951806E-005  rzold =   6.030959202908863E-006  alpha = 
  0.418254297469603     
 delta_qm =   0.239110E-04 delta_en =   0.987960E-03 tol =   0.100000E-04
 Iteration #         12
  pAp =   1.748792092371843E-006  rzold =   1.113977984326300E-006  alpha = 
  0.636998525545389     
 delta_qm =   0.142992E-04 delta_en =   0.353317E-03 tol =   0.100000E-04
 Iteration #         13
  pAp =   2.143340958724582E-006  rzold =   7.839179482493268E-007  alpha = 
  0.365745797493557     
 delta_qm =   0.685194E-05 delta_en =   0.811279E-04 tol =   0.100000E-04
 Iteration #         14
  pAp =   8.506434881702103E-007  rzold =   2.840400464510384E-007  alpha = 
  0.333911974171491     
 delta_qm =   0.401486E-05 delta_en =   0.278539E-04 tol =   0.100000E-04
 Iteration #         15
  pAp =   3.628235418748210E-007  rzold =   9.596853571148355E-008  alpha = 
  0.264504709963374     
 delta_qm =   0.294845E-05 delta_en =   0.150221E-04 tol =   0.100000E-04
 Iteration #         16
  pAp =   3.677859244394026E-008  rzold =   2.015103874275919E-008  alpha = 
  0.547901303549732     
 delta_qm =   0.142727E-05 delta_en =   0.352010E-05 tol =   0.100000E-04
 Charges are converged, EXIT

%%%% ELECTRONS %%%%%%%%%%%%%%%%%%%%%%%%%%%%%%%%%%%%%%%%%%%%%%%%%%%%%%%%%%%%%%%%%
 number of electrons        =         23
 total electronic charge    =     24.0000000
 number of spin components  =  1

%%%% COMPUTE ELECTROSTATIC POTENTIAL %%%%%%%%%%%%%%%%%%%%%%%%%%%%%%%%%%%%%%%%%%%
 Warning: bad guess with residual norm =   0.174879E+03, reset to no guess
 Iteration #          1
  pAp =    94.0609660684099       rzold =    93.4116494059378       alpha = 
  0.993096853140974     
 delta_qm =   0.100000E-01 delta_en =   0.172801E+03 tol =   0.100000E-04
 Iteration #          2
  pAp =    36.0924467749508       rzold =    4.40643534185088       alpha = 
  0.122087465261820     
 delta_qm =   0.203879E-02 delta_en =   0.718268E+01 tol =   0.100000E-04
 Iteration #          3
  pAp =   0.313570729224936       rzold =   7.099985726016693E-002  alpha = 
  0.226423739982554     
 delta_qm =   0.941149E-03 delta_en =   0.153060E+01 tol =   0.100000E-04
 Iteration #          4
  pAp =   1.471100307502361E-002  rzold =   4.099279406076477E-003  alpha = 
  0.278653969764730     
 delta_qm =   0.842786E-03 delta_en =   0.122738E+01 tol =   0.100000E-04
 Iteration #          5
  pAp =   9.149456181449795E-003  rzold =   2.136386102183176E-003  alpha = 
  0.233498697607255     
 delta_qm =   0.523731E-03 delta_en =   0.473979E+00 tol =   0.100000E-04
 Iteration #          6
  pAp =   4.040218084556607E-003  rzold =   1.334131214802432E-003  alpha = 
  0.330212673395537     
 delta_qm =   0.388281E-03 delta_en =   0.260517E+00 tol =   0.100000E-04
 Iteration #          7
  pAp =   3.976715510433645E-003  rzold =   1.050766128571052E-003  alpha = 
  0.264229645247233     
 delta_qm =   0.234813E-03 delta_en =   0.952771E-01 tol =   0.100000E-04
 Iteration #          8
  pAp =   7.516699851723478E-004  rzold =   2.902505233000591E-004  alpha = 
  0.386140898300613     
 delta_qm =   0.151158E-03 delta_en =   0.394827E-01 tol =   0.100000E-04
 Iteration #          9
  pAp =   3.771225902721586E-004  rzold =   1.488892650079525E-004  alpha = 
  0.394803357975727     
 delta_qm =   0.661393E-04 delta_en =   0.755898E-02 tol =   0.100000E-04
 Iteration #         10
  pAp =   9.320724872872671E-005  rzold =   3.450734157060158E-005  alpha = 
  0.370221651655365     
 delta_qm =   0.378075E-04 delta_en =   0.247002E-02 tol =   0.100000E-04
 Iteration #         11
  pAp =   1.500730114074830E-005  rzold =   5.376571443058019E-006  alpha = 
  0.358263713950497     
 delta_qm =   0.255617E-04 delta_en =   0.112907E-02 tol =   0.100000E-04
 Iteration #         12
  pAp =   2.585684192938011E-006  rzold =   1.382856385315412E-006  alpha = 
  0.534812561059178     
 delta_qm =   0.159709E-04 delta_en =   0.440759E-03 tol =   0.100000E-04
 Iteration #         13
  pAp =   1.765318296051796E-006  rzold =   8.129700412251059E-007  alpha = 
  0.460523205952913     
 delta_qm =   0.669979E-05 delta_en =   0.775650E-04 tol =   0.100000E-04
 Iteration #         14
  pAp =   4.155786807223227E-007  rzold =   2.097425366639223E-007  alpha = 
  0.504699943460444     
 delta_qm =   0.332979E-05 delta_en =   0.191592E-04 tol =   0.100000E-04
 Iteration #         15
  pAp =   4.759487565695132E-008  rzold =   2.590054268957781E-008  alpha = 
  0.544187632220339     
 delta_qm =   0.190398E-05 delta_en =   0.626427E-05 tol =   0.100000E-04
 Charges are converged, EXIT

%%%% ELECTRONS %%%%%%%%%%%%%%%%%%%%%%%%%%%%%%%%%%%%%%%%%%%%%%%%%%%%%%%%%%%%%%%%%
 number of electrons        =         24
 total electronic charge    =     24.0000000
 number of spin components  =  1

%%%% COMPUTE ELECTROSTATIC POTENTIAL %%%%%%%%%%%%%%%%%%%%%%%%%%%%%%%%%%%%%%%%%%%
 Warning: bad guess with residual norm =   0.221746E+03, reset to no guess
 Iteration #          1
  pAp =    94.8782311294932       rzold =    94.0703643413137       alpha = 
  0.991485225024095     
 delta_qm =   0.112436E-01 delta_en =   0.218450E+03 tol =   0.100000E-04
 Iteration #          2
  pAp =    46.2007332295549       rzold =    5.58396216593478       alpha = 
  0.120863063756804     
 delta_qm =   0.190388E-02 delta_en =   0.626359E+01 tol =   0.100000E-04
 Iteration #          3
  pAp =   0.392994805676740       rzold =   7.942958662711139E-002  alpha = 
  0.202113578805025     
 delta_qm =   0.129250E-02 delta_en =   0.288674E+01 tol =   0.100000E-04
 Iteration #          4
  pAp =   0.101744996272586       rzold =   1.366557433476383E-002  alpha = 
  0.134312003886189     
 delta_qm =   0.796788E-03 delta_en =   0.109706E+01 tol =   0.100000E-04
 Iteration #          5
  pAp =   6.829862865241013E-003  rzold =   2.425572392167565E-003  alpha = 
  0.355142180747427     
 delta_qm =   0.634865E-03 delta_en =   0.696477E+00 tol =   0.100000E-04
 Iteration #          6
  pAp =   2.415857725128170E-003  rzold =   1.092395926133014E-003  alpha = 
  0.452177259766015     
 delta_qm =   0.377896E-03 delta_en =   0.246768E+00 tol =   0.100000E-04
 Iteration #          7
  pAp =   3.516214409278995E-003  rzold =   1.053632451329837E-003  alpha = 
  0.299649659744693     
 delta_qm =   0.238407E-03 delta_en =   0.982155E-01 tol =   0.100000E-04
 Iteration #          8
  pAp =   7.582500090664863E-004  rzold =   2.897496151342135E-004  alpha = 
  0.382129392244830     
 delta_qm =   0.151517E-03 delta_en =   0.396704E-01 tol =   0.100000E-04
 Iteration #          9
  pAp =   3.651742111097408E-004  rzold =   1.428973754701805E-004  alpha = 
  0.391312888815244     
 delta_qm =   0.671484E-04 delta_en =   0.779138E-02 tol =   0.100000E-04
 Iteration #         10
  pAp =   8.502477117581180E-005  rzold =   3.287507434599816E-005  alpha = 
  0.386652899988640     
 delta_qm =   0.375708E-04 delta_en =   0.243918E-02 tol =   0.100000E-04
 Iteration #         11
  pAp =   1.647927471044256E-005  rzold =   5.532967019100747E-006  alpha = 
  0.335753066583363     
 delta_qm =   0.260735E-04 delta_en =   0.117474E-02 tol =   0.100000E-04
 Iteration #         12
  pAp =   2.507942831620459E-006  rzold =   1.403806248107674E-006  alpha = 
  0.559744117931361     
 delta_qm =   0.157028E-04 delta_en =   0.426084E-03 tol =   0.100000E-04
 Iteration #         13
  pAp =   1.666425677308432E-006  rzold =   7.756283723807555E-007  alpha = 
  0.465444323705772     
 delta_qm =   0.673929E-05 delta_en =   0.784824E-04 tol =   0.100000E-04
 Iteration #         14
  pAp =   4.572184598374194E-007  rzold =   2.239288622044211E-007  alpha = 
  0.489763388564948     
 delta_qm =   0.327232E-05 delta_en =   0.185036E-04 tol =   0.100000E-04
 Iteration #         15
  pAp =   3.876688513885134E-008  rzold =   2.377249419572686E-008  alpha = 
  0.613216514831690     
 delta_qm =   0.175625E-05 delta_en =   0.532987E-05 tol =   0.100000E-04
 Charges are converged, EXIT

%%%% ELECTRONS %%%%%%%%%%%%%%%%%%%%%%%%%%%%%%%%%%%%%%%%%%%%%%%%%%%%%%%%%%%%%%%%%
 number of electrons        =         24
 total electronic charge    =     24.0000000
 number of spin components  =  1

%%%% COMPUTE ELECTROSTATIC POTENTIAL %%%%%%%%%%%%%%%%%%%%%%%%%%%%%%%%%%%%%%%%%%%
 Warning: bad guess with residual norm =   0.254164E+03, reset to no guess
 Iteration #          1
  pAp =    94.9537463778471       rzold =    94.0258455359278       alpha = 
  0.990227864857202     
 delta_qm =   0.120240E-01 delta_en =   0.249829E+03 tol =   0.100000E-04
 Iteration #          2
  pAp =    53.1870666593987       rzold =    6.41771639647483       alpha = 
  0.120663101004852     
 delta_qm =   0.197634E-02 delta_en =   0.674945E+01 tol =   0.100000E-04
 Iteration #          3
  pAp =   0.516219526956065       rzold =   9.685965530662051E-002  alpha = 
  0.187632683865646     
 delta_qm =   0.137737E-02 delta_en =   0.327827E+01 tol =   0.100000E-04
 Iteration #          4
  pAp =   0.141307549923500       rzold =   1.910833656567290E-002  alpha = 
  0.135225163666185     
 delta_qm =   0.810992E-03 delta_en =   0.113652E+01 tol =   0.100000E-04
 Iteration #          5
  pAp =   7.015038941298781E-003  rzold =   2.530331473345840E-003  alpha = 
  0.360700987481243     
 delta_qm =   0.638224E-03 delta_en =   0.703866E+00 tol =   0.100000E-04
 Iteration #          6
  pAp =   2.576648709837130E-003  rzold =   1.113153854434823E-003  alpha = 
  0.432016149576395     
 delta_qm =   0.399530E-03 delta_en =   0.275831E+00 tol =   0.100000E-04
 Iteration #          7
  pAp =   3.347651517933664E-003  rzold =   1.069448174861813E-003  alpha = 
  0.319462216760820     
 delta_qm =   0.245298E-03 delta_en =   0.103975E+00 tol =   0.100000E-04
 Iteration #          8
  pAp =   8.417779459529792E-004  rzold =   3.112556568541410E-004  alpha = 
  0.369759814153562     
 delta_qm =   0.158383E-03 delta_en =   0.433472E-01 tol =   0.100000E-04
 Iteration #          9
  pAp =   3.542475104939919E-004  rzold =   1.445329201460584E-004  alpha = 
  0.407999818952883     
 delta_qm =   0.696151E-04 delta_en =   0.837435E-02 tol =   0.100000E-04
 Iteration #         10
  pAp =   9.036452857297536E-005  rzold =   3.503869166684660E-005  alpha = 
  0.387748292611857     
 delta_qm =   0.381960E-04 delta_en =   0.252104E-02 tol =   0.100000E-04
 Iteration #         11
  pAp =   1.938836134044485E-005  rzold =   6.310116128971282E-006  alpha = 
  0.325458970883122     
 delta_qm =   0.266910E-04 delta_en =   0.123104E-02 tol =   0.100000E-04
 Iteration #         12
  pAp =   2.580911130442588E-006  rzold =   1.443069780447050E-006  alpha = 
  0.559131914084769     
 delta_qm =   0.162503E-04 delta_en =   0.456315E-03 tol =   0.100000E-04
 Iteration #         13
  pAp =   1.618900026773667E-006  rzold =   7.811221409136281E-007  alpha = 
  0.482501777747413     
 delta_qm =   0.696212E-05 delta_en =   0.837580E-04 tol =   0.100000E-04
 Iteration #         14
  pAp =   4.846172412127988E-007  rzold =   2.390839348725813E-007  alpha = 
  0.493345912073314     
 delta_qm =   0.330074E-05 delta_en =   0.188263E-04 tol =   0.100000E-04
 Iteration #         15
  pAp =   3.499014131961070E-008  rzold =   2.380141454292250E-008  alpha = 
  0.680232020943073     
 delta_qm =   0.162879E-05 delta_en =   0.458429E-05 tol =   0.100000E-04
 Charges are converged, EXIT

%%%% ELECTRONS %%%%%%%%%%%%%%%%%%%%%%%%%%%%%%%%%%%%%%%%%%%%%%%%%%%%%%%%%%%%%%%%%
 number of electrons        =         24
 total electronic charge    =     24.0000000
 number of spin components  =  1

%%%% COMPUTE ELECTROSTATIC POTENTIAL %%%%%%%%%%%%%%%%%%%%%%%%%%%%%%%%%%%%%%%%%%%
 Warning: bad guess with residual norm =   0.253787E+03, reset to no guess
 Iteration #          1
  pAp =    95.0605113803986       rzold =    94.1356987336624       alpha = 
  0.990271326828493     
 delta_qm =   0.120155E-01 delta_en =   0.249474E+03 tol =   0.100000E-04
 Iteration #          2
  pAp =    53.0829607323347       rzold =    6.40229528276605       alpha = 
  0.120609234949214     
 delta_qm =   0.197159E-02 delta_en =   0.671706E+01 tol =   0.100000E-04
 Iteration #          3
  pAp =   0.504184458453550       rzold =   9.518424706631737E-002  alpha = 
  0.188788538540576     
 delta_qm =   0.137431E-02 delta_en =   0.326370E+01 tol =   0.100000E-04
 Iteration #          4
  pAp =   0.139356600439907       rzold =   1.878694784325282E-002  alpha = 
  0.134812041797433     
 delta_qm =   0.812408E-03 delta_en =   0.114049E+01 tol =   0.100000E-04
 Iteration #          5
  pAp =   6.866151073701988E-003  rzold =   2.510582976952598E-003  alpha = 
  0.365646335188920     
 delta_qm =   0.636575E-03 delta_en =   0.700233E+00 tol =   0.100000E-04
 Iteration #          6
  pAp =   2.408652894702444E-003  rzold =   1.089293668958949E-003  alpha = 
  0.452241861562837     
 delta_qm =   0.390823E-03 delta_en =   0.263939E+00 tol =   0.100000E-04
 Iteration #          7
  pAp =   3.489795413641492E-003  rzold =   1.070206063612354E-003  alpha = 
  0.306667278955367     
 delta_qm =   0.243978E-03 delta_en =   0.102859E+00 tol =   0.100000E-04
 Iteration #          8
  pAp =   8.257524927992387E-004  rzold =   3.071207773900240E-004  alpha = 
  0.371928368449616     
 delta_qm =   0.156301E-03 delta_en =   0.422152E-01 tol =   0.100000E-04
 Iteration #          9
  pAp =   3.574941993479110E-004  rzold =   1.434975078842643E-004  alpha = 
  0.401398143371310     
 delta_qm =   0.693644E-04 delta_en =   0.831414E-02 tol =   0.100000E-04
 Iteration #         10
  pAp =   9.033866111895265E-005  rzold =   3.480839885017420E-005  alpha = 
  0.385310103327085     
 delta_qm =   0.381402E-04 delta_en =   0.251368E-02 tol =   0.100000E-04
 Iteration #         11
  pAp =   1.946990954243004E-005  rzold =   6.305023974581501E-006  alpha = 
  0.323834271589254     
 delta_qm =   0.267631E-04 delta_en =   0.123771E-02 tol =   0.100000E-04
 Iteration #         12
  pAp =   2.576179622547105E-006  rzold =   1.445521761537159E-006  alpha = 
  0.561110626326573     
 delta_qm =   0.162263E-04 delta_en =   0.454968E-03 tol =   0.100000E-04
 Iteration #         13
  pAp =   1.626515650338627E-006  rzold =   7.842649845590018E-007  alpha = 
  0.482174877564642     
 delta_qm =   0.695742E-05 delta_en =   0.836451E-04 tol =   0.100000E-04
 Iteration #         14
  pAp =   4.839030476323070E-007  rzold =   2.383689314604660E-007  alpha = 
  0.492596466640959     
 delta_qm =   0.330453E-05 delta_en =   0.188696E-04 tol =   0.100000E-04
 Iteration #         15
  pAp =   3.539882795901545E-008  rzold =   2.390485458643115E-008  alpha = 
  0.675300736343815     
 delta_qm =   0.163978E-05 delta_en =   0.464637E-05 tol =   0.100000E-04
 Charges are converged, EXIT

%%%% ELECTRONS %%%%%%%%%%%%%%%%%%%%%%%%%%%%%%%%%%%%%%%%%%%%%%%%%%%%%%%%%%%%%%%%%
 number of electrons        =         24
 total electronic charge    =     24.0000000
 number of spin components  =  1
