
     Program PWSCF v.6.1 (svn rev. 13369) starts on 13Oct2017 at 16:15:16 

     This program is part of the open-source Quantum ESPRESSO suite
     for quantum simulation of materials; please cite
         "P. Giannozzi et al., J. Phys.:Condens. Matter 21 395502 (2009);
          URL http://www.quantum-espresso.org", 
     in publications or presentations arising from this work. More details at
     http://www.quantum-espresso.org/quote

     Parallel version (MPI), running on     1 processors
     Reading input from neutral.in

     Current dimensions of program PWSCF are:
     Max number of different atomic species (ntypx) = 10
     Max number of k-points (npk) =  40000
     Max angular momentum in pseudopotentials (lmaxx) =  3
               file C.pbe-rrkjus.UPF: wavefunction(s)  2S 2P renormalized
               file H.pbe-rrkjus.UPF: wavefunction(s)  1S renormalized
               file N.pbe-rrkjus.UPF: wavefunction(s)  2S renormalized
               file O.pbe-rrkjus.UPF: wavefunction(s)  2S renormalized

     gamma-point specific algorithms are used

     Subspace diagonalization in iterative solution of the eigenvalue problem:
     a serial algorithm will be used

 
     G-vector sticks info
     --------------------
     sticks:   dense  smooth     PW     G-vecs:    dense   smooth      PW
     Sum        9549    3809    949               701475   177509   22119
 


     bravais-lattice index     =            1
     lattice parameter (alat)  =      20.0000  a.u.
     unit-cell volume          =    8000.0000 (a.u.)^3
     number of atoms/cell      =            9
     number of atomic types    =            4
     number of electrons       =        24.00
     number of Kohn-Sham states=           12
     kinetic-energy cutoff     =      30.0000  Ry
     charge density cutoff     =     300.0000  Ry
     convergence threshold     =      5.0E-03
     mixing beta               =       0.7000
     number of iterations used =            8  plain     mixing
     Exchange-correlation      =  SLA  PW   PBE  PBE ( 1  4  3  4 0 0)
 

     Environ Module
     ==============

     Plese cite
         O. Andreussi, I. Dabo and N. Marzari, J. Chem. Phys. 136, 064102 (2012)         
     in publications or presentations arising from this work.

     compensation onset threshold      =               0.1000E+03 
     static permittivity               =                    78.30 
     epsilon calculation mode          =                    ionic 
     surface tension in input (dyn/cm) =                    50.00 
     surface tension in internal units =               0.6423E-04 
     external pressure in input (GPa)  =                    -0.35 
     external pressure in inter. units =              -0.2379E-04 

     Electrostatic Setup
     -------------------
     electrostatic problem to solve    = generalized              
     numerical solver adopted          = cg                       
     type of auxiliary density adopted = none                     
     type of core tool for poisson     = fft                      
     type of core tool for s(r) deriv  = analytic                 



     celldm(1)=  20.000000  celldm(2)=   0.000000  celldm(3)=   0.000000
     celldm(4)=   0.000000  celldm(5)=   0.000000  celldm(6)=   0.000000

     crystal axes: (cart. coord. in units of alat)
               a(1) = (   1.000000   0.000000   0.000000 )  
               a(2) = (   0.000000   1.000000   0.000000 )  
               a(3) = (   0.000000   0.000000   1.000000 )  

     reciprocal axes: (cart. coord. in units 2 pi/alat)
               b(1) = (  1.000000  0.000000  0.000000 )  
               b(2) = (  0.000000  1.000000  0.000000 )  
               b(3) = (  0.000000  0.000000  1.000000 )  


     PseudoPot. # 1 for C  read from file:
     /home/andreo/PWSCF/espresso-6.1-Environ-1.0/Environ/tests/../..//pseudo/C.pbe-rrkjus.UPF
     MD5 check sum: 00fb224312de0c5b6853bd333518df6f
     Pseudo is Ultrasoft, Zval =  4.0
     Generated by new atomic code, or converted to UPF format
     Using radial grid of  627 points,  4 beta functions with: 
                l(1) =   0
                l(2) =   0
                l(3) =   1
                l(4) =   1
     Q(r) pseudized with 0 coefficients 


     PseudoPot. # 2 for H  read from file:
     /home/andreo/PWSCF/espresso-6.1-Environ-1.0/Environ/tests/../..//pseudo/H.pbe-rrkjus.UPF
     MD5 check sum: 7cc9d459525c9a0585f487a71c3c9563
     Pseudo is Ultrasoft, Zval =  1.0
     Generated by new atomic code, or converted to UPF format
     Using radial grid of 1061 points,  2 beta functions with: 
                l(1) =   0
                l(2) =   0
     Q(r) pseudized with 0 coefficients 


     PseudoPot. # 3 for N  read from file:
     /home/andreo/PWSCF/espresso-6.1-Environ-1.0/Environ/tests/../..//pseudo/N.pbe-rrkjus.UPF
     MD5 check sum: 0c3fbe5807a93f9ba59d5a7019aa238b
     Pseudo is Ultrasoft, Zval =  5.0
     Generated by new atomic code, or converted to UPF format
     Using radial grid of 1257 points,  4 beta functions with: 
                l(1) =   0
                l(2) =   0
                l(3) =   1
                l(4) =   1
     Q(r) pseudized with 0 coefficients 


     PseudoPot. # 4 for O  read from file:
     /home/andreo/PWSCF/espresso-6.1-Environ-1.0/Environ/tests/../..//pseudo/O.pbe-rrkjus.UPF
     MD5 check sum: 390ba29e75625707450f3bd3f0eb6be9
     Pseudo is Ultrasoft, Zval =  6.0
     Generated by new atomic code, or converted to UPF format
     Using radial grid of 1269 points,  4 beta functions with: 
                l(1) =   0
                l(2) =   0
                l(3) =   1
                l(4) =   1
     Q(r) pseudized with 0 coefficients 


     atomic species   valence    mass     pseudopotential
        C              4.00    12.00000     C ( 1.00)
        H              1.00     1.00000     H ( 1.00)
        N              5.00    14.00000     N ( 1.00)
        O              6.00    16.00000     O ( 1.00)

     No symmetry found



   Cartesian axes

     site n.     atom                  positions (alat units)
         1           C   tau(   1) = (   0.0000000   0.0000000   0.0000000  )
         2           C   tau(   2) = (   0.0000000   0.0000000   0.1455089  )
         3           N   tau(   3) = (   0.1170969   0.0000000  -0.0545024  )
         4           H   tau(   4) = (   0.0476617  -0.0825466   0.1792090  )
         5           H   tau(   5) = (  -0.0953183  -0.0000030   0.1792090  )
         6           H   tau(   6) = (   0.0476566   0.0825496   0.1792090  )
         7           O   tau(   7) = (  -0.0984002  -0.0000019  -0.0641310  )
         8           H   tau(   8) = (   0.1263131  -0.0000015  -0.1475548  )
         9           H   tau(   9) = (   0.1944645   0.0000134  -0.0025716  )

     number of k points=     1
                       cart. coord. in units 2pi/alat
        k(    1) = (   0.0000000   0.0000000   0.0000000), wk =   2.0000000

     Dense  grid:   350738 G-vectors     FFT dimensions: ( 120, 120, 120)

     Smooth grid:    88755 G-vectors     FFT dimensions: (  72,  72,  72)

     Estimated max dynamical RAM per process >     298.64MB

     Initial potential from superposition of free atoms
     Check: negative starting charge=   -0.000530

     starting charge   23.51886, renormalised to   24.00000

     negative rho (up, down):  5.411E-04 0.000E+00
     Starting wfc are   21 randomized atomic wfcs

     total cpu time spent up to now is       53.5 secs

     per-process dynamical memory:   543.1 Mb

     Self-consistent Calculation

     iteration #  1     ecut=    30.00 Ry     beta=0.70
     Davidson diagonalization with overlap
     ethr =  1.00E-02,  avg # of iterations =  2.0

     negative rho (up, down):  1.677E-04 0.000E+00

     add environment contribution to local potential
     polarization accuracy = 5.9E-05, # of iterations =  14

     total cpu time spent up to now is       57.1 secs

     total energy              =     -79.57109873 Ry
     Harris-Foulkes estimate   =     -81.75208041 Ry
     estimated scf accuracy    <       2.90357113 Ry
     electrostatic embedding   =       0.00000000 Ry
     cavitation energy         =       0.02859009 Ry
     PV energy                 =      -0.01896492 Ry
     correction to one-el term =       0.00000000 Ry

     iteration #  2     ecut=    30.00 Ry     beta=0.70
     Davidson diagonalization with overlap
     ethr =  1.00E-02,  avg # of iterations =  4.0

     negative rho (up, down):  1.539E-03 0.000E+00

     add environment contribution to local potential
     polarization accuracy = 5.7E-05, # of iterations =  14

     total cpu time spent up to now is       61.0 secs

     total energy              =     -79.97341009 Ry
     Harris-Foulkes estimate   =     -79.95155097 Ry
     estimated scf accuracy    <       1.90256100 Ry
     electrostatic embedding   =      -0.02523375 Ry
     cavitation energy         =       0.02859009 Ry
     PV energy                 =      -0.01896492 Ry
     correction to one-el term =      -1.01281065 Ry

     iteration #  3     ecut=    30.00 Ry     beta=0.70
     Davidson diagonalization with overlap
     ethr =  7.93E-03,  avg # of iterations =  3.0

     negative rho (up, down):  4.111E-04 0.000E+00

     add environment contribution to local potential
     polarization accuracy = 5.3E-05, # of iterations =  14

     total cpu time spent up to now is       64.7 secs

     total energy              =     -80.44072507 Ry
     Harris-Foulkes estimate   =     -79.98087694 Ry
     estimated scf accuracy    <       0.21022751 Ry
     electrostatic embedding   =      -0.03767285 Ry
     cavitation energy         =       0.02859009 Ry
     PV energy                 =      -0.01896492 Ry
     correction to one-el term =      -0.53763876 Ry

     iteration #  4     ecut=    30.00 Ry     beta=0.70
     Davidson diagonalization with overlap
     ethr =  8.76E-04,  avg # of iterations =  3.0

     negative rho (up, down):  2.056E-04 0.000E+00

     add environment contribution to local potential
     polarization accuracy = 5.4E-05, # of iterations =  14

     total cpu time spent up to now is       68.4 secs

     total energy              =     -80.48383398 Ry
     Harris-Foulkes estimate   =     -80.27144960 Ry
     estimated scf accuracy    <       0.03049908 Ry
     electrostatic embedding   =      -0.03652812 Ry
     cavitation energy         =       0.02859009 Ry
     PV energy                 =      -0.01896492 Ry
     correction to one-el term =      -0.20070913 Ry

     iteration #  5     ecut=    30.00 Ry     beta=0.70
     Davidson diagonalization with overlap
     ethr =  1.27E-04,  avg # of iterations =  2.0

     negative rho (up, down):  2.296E-04 0.000E+00

     total cpu time spent up to now is       70.2 secs

     End of self-consistent calculation

          k = 0.0000 0.0000 0.0000 ( 11060 PWs)   bands (ev):

   -25.5763 -22.1729 -17.9069 -14.2784 -12.8572 -11.1799 -10.6490  -9.5495
    -9.3297  -8.6862  -6.2036  -5.6963

     highest occupied level (ev):    -5.6963

!    total energy              =     -80.49382971 Ry
     Harris-Foulkes estimate   =     -80.55652344 Ry
     estimated scf accuracy    <       0.00371294 Ry

     The total energy is the sum of the following terms:

     one-electron contribution =    -236.10150929 Ry
     hartree contribution      =     121.45827695 Ry
     xc contribution           =     -22.65814778 Ry
     ewald contribution        =      56.74764018 Ry
     electrostatic embedding   =      -0.04032747 Ry
     cavitation energy         =       0.02859009 Ry
     PV energy                 =      -0.01896492 Ry
     correction to one-el term =       0.09061253 Ry

     convergence has been achieved in   5 iterations

     Forces acting on atoms (cartesian axes, Ry/au):

     atom    1 type  1   force =     0.03207017    0.00003297    0.01390162
     atom    2 type  1   force =    -0.00874444   -0.00000425   -0.06127501
     atom    3 type  3   force =    -0.06941969    0.00000931    0.03289936
     atom    4 type  2   force =     0.01639324   -0.02397129    0.01195228
     atom    5 type  2   force =    -0.02729347   -0.00000653    0.00744480
     atom    6 type  2   force =     0.01639995    0.02397098    0.01195245
     atom    7 type  4   force =    -0.00474209   -0.00003269   -0.00155189
     atom    8 type  2   force =    -0.00122583   -0.00000203   -0.05277948
     atom    9 type  2   force =     0.04656216    0.00000354    0.03745587

     Total force =     0.141811     Total SCF correction =     0.128175
     SCF correction compared to forces is large: reduce conv_thr to get better values

     Writing output data file pwscf.save
 
     init_run     :     51.30s CPU     53.35s WALL (       1 calls)
     electrons    :     16.12s CPU     18.17s WALL (       1 calls)
     forces       :     14.28s CPU     14.36s WALL (       1 calls)

     Called by init_run:
     wfcinit      :      0.12s CPU      0.13s WALL (       1 calls)
     potinit      :      0.93s CPU      0.96s WALL (       1 calls)

     Called by electrons:
     c_bands      :      1.11s CPU      1.11s WALL (       5 calls)
     sum_band     :      3.34s CPU      3.56s WALL (       5 calls)
     v_of_rho     :      3.78s CPU      3.85s WALL (       6 calls)
     newd         :      1.72s CPU      1.91s WALL (       6 calls)
     mix_rho      :      0.36s CPU      0.36s WALL (       5 calls)

     Called by c_bands:
     init_us_2    :      0.04s CPU      0.04s WALL (      11 calls)
     regterg      :      1.04s CPU      1.04s WALL (       5 calls)

     Called by sum_band:
     sum_band:bec :      0.00s CPU      0.00s WALL (       5 calls)
     addusdens    :      2.56s CPU      2.77s WALL (       5 calls)

     Called by *egterg:
     h_psi        :      1.02s CPU      1.02s WALL (      20 calls)
     s_psi        :      0.02s CPU      0.03s WALL (      20 calls)
     g_psi        :      0.02s CPU      0.01s WALL (      14 calls)
     rdiaghg      :      0.00s CPU      0.00s WALL (      19 calls)

     Called by h_psi:
     h_psi:pot    :      1.01s CPU      1.01s WALL (      20 calls)
     h_psi:calbec :      0.03s CPU      0.03s WALL (      20 calls)
     vloc_psi     :      0.95s CPU      0.95s WALL (      20 calls)
     add_vuspsi   :      0.03s CPU      0.03s WALL (      20 calls)

     General routines
     calbec       :      0.06s CPU      0.06s WALL (      29 calls)
     fft          :      6.54s CPU      6.66s WALL (     229 calls)
     ffts         :      0.06s CPU      0.06s WALL (      11 calls)
     fftw         :      0.87s CPU      0.83s WALL (     236 calls)
     interpolate  :      0.42s CPU      0.44s WALL (      11 calls)
     davcio       :      0.00s CPU      0.00s WALL (       1 calls)
 
     Parallel routines
     fft_scatter  :      1.40s CPU      1.51s WALL (     476 calls)
 
     Environ routines
     calc_eelect  :      0.02s CPU      0.01s WALL (      10 calls)
     calc_velect  :      6.16s CPU      6.40s WALL (       8 calls)
     dielectric   :      0.13s CPU      0.13s WALL (       2 calls)
     calc_felect  :      0.31s CPU      0.33s WALL (       1 calls)
 
     PWSCF        :  1m21.96s CPU     1m28.31s WALL

 
   This run was terminated on:  16:16:44  13Oct2017            

=------------------------------------------------------------------------------=
   JOB DONE.
=------------------------------------------------------------------------------=

%%%% IONS %%%%%%%%%%%%%%%%%%%%%%%%%%%%%%%%%%%%%%%%%%%%%%%%%%%%%%%%%%%%%%%%%%%%%%
 number of ions             =          9
 ionic center of charge     =      0.0131609     0.0000000     0.0130099
 total ionic charge         =    -24.0000000
 ionic dipole               =      0.0000000     0.0000000     0.0000000
 ionic quadrupole (pc)      =    -75.9587432    -5.4513517   -95.3140149
 ionic quadrupole (gauss)   =    -78.9587432    -8.4513517   -98.3140149
 ion   1 type =  1 coordinates =      0.0000000     0.0000000     0.0000000
 ion   2 type =  1 coordinates =      0.0000000     0.0000000     2.9101782
 ion   3 type =  3 coordinates =      2.3419379     0.0000000    -1.0900479
 ion   4 type =  2 coordinates =      0.9532347    -1.6509323     3.5841800
 ion   5 type =  2 coordinates =     -1.9063663    -0.0000596     3.5841809
 ion   6 type =  2 coordinates =      0.9531315     1.6509919     3.5841800
 ion   7 type =  4 coordinates =     -1.9680045    -0.0000375    -1.2826193
 ion   8 type =  2 coordinates =      2.5262613    -0.0000303    -2.9510950
 ion   9 type =  2 coordinates =      3.8892907     0.0002681    -0.0514326

%%%% SYSTEM %%%%%%%%%%%%%%%%%%%%%%%%%%%%%%%%%%%%%%%%%%%%%%%%%%%%%%%%%%%%%%%%%%%%
 system is built from all present ionic types
 system defined dimension   =  0 
 system defined axis        =  3 
 system center              =      0.0131609     0.0000000     0.0130099 
 system width               =      0.4839110 

%%%% BOUNDARY %%%%%%%%%%%%%%%%%%%%%%%%%%%%%%%%%%%%%%%%%%%%%%%%%%%%%%%%%%%%%%%%%%
 boundary mode              = ionic                
 boundary is built from soft-spheres centered on ionic positions
 solvent-dependent scaling  =      1.1600000 
 softness parameter         =      0.5000000 

%%%% DIELECTRIC %%%%%%%%%%%%%%%%%%%%%%%%%%%%%%%%%%%%%%%%%%%%%%%%%%%%%%%%%%%%%%%%%
 dielectric build on homogeneous background
 environment bulk permitt.  =     78.3000000 
 dielectric flags
 need gradient              =  F 
 need factor depend. sqrt   =  T 
 need gradient of logarithm =  T 

%%%% ELECTRONS %%%%%%%%%%%%%%%%%%%%%%%%%%%%%%%%%%%%%%%%%%%%%%%%%%%%%%%%%%%%%%%%%
 number of electrons        =         24
 total electronic charge    =     24.0000000
 number of spin components  =  1

%%%% COMPUTE ELECTROSTATIC POTENTIAL %%%%%%%%%%%%%%%%%%%%%%%%%%%%%%%%%%%%%%%%%%%
 Iteration #          1
  pAp =    89.6903454490000       rzold =    89.3115472387749       alpha = 
  0.995776599941401     
 delta_qm =   0.726787E-02 delta_en =   0.912763E+02 tol =   0.100000E-03
 Iteration #          2
  pAp =    28.9160084783053       rzold =    2.98569753727701       alpha = 
  0.103254138257605     
 delta_qm =   0.222815E-02 delta_en =   0.857894E+01 tol =   0.100000E-03
 Iteration #          3
  pAp =   0.486877041714609       rzold =   9.522442693256417E-002  alpha = 
  0.195582084949451     
 delta_qm =   0.993989E-03 delta_en =   0.170729E+01 tol =   0.100000E-03
 Iteration #          4
  pAp =   4.235075143491429E-002  rzold =   7.616612333993434E-003  alpha = 
  0.179845978546540     
 delta_qm =   0.841522E-03 delta_en =   0.122370E+01 tol =   0.100000E-03
 Iteration #          5
  pAp =   4.953426030199726E-003  rzold =   1.624936322093792E-003  alpha = 
  0.328042916596914     
 delta_qm =   0.603397E-03 delta_en =   0.629145E+00 tol =   0.100000E-03
 Iteration #          6
  pAp =   3.271252845780815E-003  rzold =   1.304079464905437E-003  alpha = 
  0.398648324169563     
 delta_qm =   0.326872E-03 delta_en =   0.184628E+00 tol =   0.100000E-03
 Iteration #          7
  pAp =   2.212622053124834E-003  rzold =   7.034754818686796E-004  alpha = 
  0.317937480951696     
 delta_qm =   0.208754E-03 delta_en =   0.753034E-01 tol =   0.100000E-03
 Iteration #          8
  pAp =   1.583790384360734E-003  rzold =   3.229611228096189E-004  alpha = 
  0.203916582648010     
 delta_qm =   0.168299E-03 delta_en =   0.489450E-01 tol =   0.100000E-03
 Iteration #          9
  pAp =   3.506348058274937E-004  rzold =   1.561058409039442E-004  alpha = 
  0.445209198600625     
 delta_qm =   0.778448E-04 delta_en =   0.104714E-01 tol =   0.100000E-03
 Iteration #         10
  pAp =   1.408558996336303E-004  rzold =   4.193226827853060E-005  alpha = 
  0.297696215689918     
 delta_qm =   0.396885E-04 delta_en =   0.272191E-02 tol =   0.100000E-03
 Iteration #         11
  pAp =   2.267423450935639E-005  rzold =   7.695191737157549E-006  alpha = 
  0.339380442324621     
 delta_qm =   0.290405E-04 delta_en =   0.145731E-02 tol =   0.100000E-03
 Iteration #         12
  pAp =   3.750635746644860E-006  rzold =   1.712248428205116E-006  alpha = 
  0.456522185535295     
 delta_qm =   0.183198E-04 delta_en =   0.579941E-03 tol =   0.100000E-03
 Iteration #         13
  pAp =   2.335376566551989E-006  rzold =   1.091950721995458E-006  alpha = 
  0.467569443675477     
 delta_qm =   0.864186E-05 delta_en =   0.129050E-03 tol =   0.100000E-03
 Iteration #         14
  pAp =   1.700361297556459E-006  rzold =   5.279115492534516E-007  alpha = 
  0.310470221835852     
 delta_qm =   0.582511E-05 delta_en =   0.586343E-04 tol =   0.100000E-03
 Charges are converged, EXIT

%%%% ELECTRONS %%%%%%%%%%%%%%%%%%%%%%%%%%%%%%%%%%%%%%%%%%%%%%%%%%%%%%%%%%%%%%%%%
 number of electrons        =         24
 total electronic charge    =     24.0000000
 number of spin components  =  1

%%%% COMPUTE ELECTROSTATIC POTENTIAL %%%%%%%%%%%%%%%%%%%%%%%%%%%%%%%%%%%%%%%%%%%
 Warning: bad guess with residual norm =   0.783375E+03, reset to no guess
 Iteration #          1
  pAp =    91.8913639927683       rzold =    91.1882557096256       alpha = 
  0.992348483550662     
 delta_qm =   0.104032E-01 delta_en =   0.187017E+03 tol =   0.100000E-03
 Iteration #          2
  pAp =    49.5174458163358       rzold =    5.43830162831024       alpha = 
  0.109825972213537     
 delta_qm =   0.220134E-02 delta_en =   0.837374E+01 tol =   0.100000E-03
 Iteration #          3
  pAp =   0.709922954914341       rzold =   0.100995743325253       alpha = 
  0.142262963362607     
 delta_qm =   0.100266E-02 delta_en =   0.173720E+01 tol =   0.100000E-03
 Iteration #          4
  pAp =   6.361277647507028E-002  rzold =   1.119114282702840E-002  alpha = 
  0.175926023782568     
 delta_qm =   0.926046E-03 delta_en =   0.148187E+01 tol =   0.100000E-03
 Iteration #          5
  pAp =   6.235838012038032E-003  rzold =   2.109475298759557E-003  alpha = 
  0.338282568387328     
 delta_qm =   0.641273E-03 delta_en =   0.710607E+00 tol =   0.100000E-03
 Iteration #          6
  pAp =   3.041924127205125E-003  rzold =   1.365042014722617E-003  alpha = 
  0.448742952697113     
 delta_qm =   0.370823E-03 delta_en =   0.237617E+00 tol =   0.100000E-03
 Iteration #          7
  pAp =   4.392704196681013E-003  rzold =   9.758606157339212E-004  alpha = 
  0.222154866806477     
 delta_qm =   0.260327E-03 delta_en =   0.117107E+00 tol =   0.100000E-03
 Iteration #          8
  pAp =   1.722893964440268E-003  rzold =   4.888016044186367E-004  alpha = 
  0.283709627236078     
 delta_qm =   0.183511E-03 delta_en =   0.581929E-01 tol =   0.100000E-03
 Iteration #          9
  pAp =   3.017362514664418E-004  rzold =   1.452209881866388E-004  alpha = 
  0.481284524086394     
 delta_qm =   0.764111E-04 delta_en =   0.100892E-01 tol =   0.100000E-03
 Iteration #         10
  pAp =   2.023434754784376E-004  rzold =   5.924668040963968E-005  alpha = 
  0.292802524368784     
 delta_qm =   0.459688E-04 delta_en =   0.365149E-02 tol =   0.100000E-03
 Iteration #         11
  pAp =   2.453190370024976E-005  rzold =   8.638553509514079E-006  alpha = 
  0.352135472854727     
 delta_qm =   0.317501E-04 delta_en =   0.174194E-02 tol =   0.100000E-03
 Iteration #         12
  pAp =   5.393785862030383E-006  rzold =   2.209305817313907E-006  alpha = 
  0.409602063156852     
 delta_qm =   0.208589E-04 delta_en =   0.751845E-03 tol =   0.100000E-03
 Iteration #         13
  pAp =   3.337714043018953E-006  rzold =   1.397642253271880E-006  alpha = 
  0.418742359368724     
 delta_qm =   0.110052E-04 delta_en =   0.209287E-03 tol =   0.100000E-03
 Iteration #         14
  pAp =   1.495204401857499E-006  rzold =   6.103396538686312E-007  alpha = 
  0.408198138736352     
 delta_qm =   0.573526E-05 delta_en =   0.568395E-04 tol =   0.100000E-03
 Charges are converged, EXIT

%%%% ELECTRONS %%%%%%%%%%%%%%%%%%%%%%%%%%%%%%%%%%%%%%%%%%%%%%%%%%%%%%%%%%%%%%%%%
 number of electrons        =         24
 total electronic charge    =     24.0000000
 number of spin components  =  1

%%%% COMPUTE ELECTROSTATIC POTENTIAL %%%%%%%%%%%%%%%%%%%%%%%%%%%%%%%%%%%%%%%%%%%
 Warning: bad guess with residual norm =   0.781985E+03, reset to no guess
 Iteration #          1
  pAp =    92.8026684599780       rzold =    92.3324784380155       alpha = 
  0.994933442865760     
 delta_qm =   0.847287E-02 delta_en =   0.124052E+03 tol =   0.100000E-03
 Iteration #          2
  pAp =    31.2548982071321       rzold =    3.52040515564480       alpha = 
  0.112635310226078     
 delta_qm =   0.200583E-02 delta_en =   0.695234E+01 tol =   0.100000E-03
 Iteration #          3
  pAp =   0.490903385434855       rzold =   7.450050477405679E-002  alpha = 
  0.151762051321081     
 delta_qm =   0.911467E-03 delta_en =   0.143557E+01 tol =   0.100000E-03
 Iteration #          4
  pAp =   6.034738307714903E-002  rzold =   1.023636587756186E-002  alpha = 
  0.169624022709908     
 delta_qm =   0.887499E-03 delta_en =   0.136107E+01 tol =   0.100000E-03
 Iteration #          5
  pAp =   5.749809667161916E-003  rzold =   1.893435824842980E-003  alpha = 
  0.329304087343394     
 delta_qm =   0.625962E-03 delta_en =   0.677079E+00 tol =   0.100000E-03
 Iteration #          6
  pAp =   2.492759086841211E-003  rzold =   1.252216435617662E-003  alpha = 
  0.502341538830555     
 delta_qm =   0.341436E-03 delta_en =   0.201448E+00 tol =   0.100000E-03
 Iteration #          7
  pAp =   3.219867166497696E-003  rzold =   8.202260032066762E-004  alpha = 
  0.254739081084158     
 delta_qm =   0.234803E-03 delta_en =   0.952690E-01 tol =   0.100000E-03
 Iteration #          8
  pAp =   2.098481182530937E-003  rzold =   4.733602489362834E-004  alpha = 
  0.225572787059912     
 delta_qm =   0.171713E-03 delta_en =   0.509507E-01 tol =   0.100000E-03
 Iteration #          9
  pAp =   2.959502342544132E-004  rzold =   1.301330747636417E-004  alpha = 
  0.439712693897627     
 delta_qm =   0.764657E-04 delta_en =   0.101036E-01 tol =   0.100000E-03
 Iteration #         10
  pAp =   1.639732866185285E-004  rzold =   5.100508056430972E-005  alpha = 
  0.311057255825879     
 delta_qm =   0.455352E-04 delta_en =   0.358292E-02 tol =   0.100000E-03
 Iteration #         11
  pAp =   2.447430566206483E-005  rzold =   8.299985671880321E-006  alpha = 
  0.339130588074059     
 delta_qm =   0.309088E-04 delta_en =   0.165085E-02 tol =   0.100000E-03
 Iteration #         12
  pAp =   4.765721224164190E-006  rzold =   2.089930993643030E-006  alpha = 
  0.438534042454311     
 delta_qm =   0.200808E-04 delta_en =   0.696795E-03 tol =   0.100000E-03
 Iteration #         13
  pAp =   3.332804387358611E-006  rzold =   1.345345918730257E-006  alpha = 
  0.403667831161402     
 delta_qm =   0.108382E-04 delta_en =   0.202984E-03 tol =   0.100000E-03
 Iteration #         14
  pAp =   1.564280233520965E-006  rzold =   6.155496908955729E-007  alpha = 
  0.393503464216294     
 delta_qm =   0.551461E-05 delta_en =   0.525500E-04 tol =   0.100000E-03
 Charges are converged, EXIT

%%%% ELECTRONS %%%%%%%%%%%%%%%%%%%%%%%%%%%%%%%%%%%%%%%%%%%%%%%%%%%%%%%%%%%%%%%%%
 number of electrons        =         24
 total electronic charge    =     24.0000000
 number of spin components  =  1

%%%% COMPUTE ELECTROSTATIC POTENTIAL %%%%%%%%%%%%%%%%%%%%%%%%%%%%%%%%%%%%%%%%%%%
 Warning: bad guess with residual norm =   0.798713E+03, reset to no guess
 Iteration #          1
  pAp =    92.6757595732714       rzold =    92.1418045607308       alpha = 
  0.994238460898522     
 delta_qm =   0.903567E-02 delta_en =   0.141080E+03 tol =   0.100000E-03
 Iteration #          2
  pAp =    33.4446672159336       rzold =    3.87683664844421       alpha = 
  0.115917931651514     
 delta_qm =   0.196926E-02 delta_en =   0.670118E+01 tol =   0.100000E-03
 Iteration #          3
  pAp =   0.445932948185444       rzold =   7.308867060918534E-002  alpha = 
  0.163900583947861     
 delta_qm =   0.843138E-03 delta_en =   0.122840E+01 tol =   0.100000E-03
 Iteration #          4
  pAp =   6.506827087155376E-002  rzold =   1.033370885175479E-002  alpha = 
  0.158813331188003     
 delta_qm =   0.871634E-03 delta_en =   0.131284E+01 tol =   0.100000E-03
 Iteration #          5
  pAp =   6.888367787693968E-003  rzold =   2.055820358348561E-003  alpha = 
  0.298448111615247     
 delta_qm =   0.613763E-03 delta_en =   0.650946E+00 tol =   0.100000E-03
 Iteration #          6
  pAp =   2.242955516030430E-003  rzold =   1.159061083472373E-003  alpha = 
  0.516756161764489     
 delta_qm =   0.358805E-03 delta_en =   0.222464E+00 tol =   0.100000E-03
 Iteration #          7
  pAp =   2.838191942953934E-003  rzold =   8.046165176669570E-004  alpha = 
  0.283496160174963     
 delta_qm =   0.237030E-03 delta_en =   0.970846E-01 tol =   0.100000E-03
 Iteration #          8
  pAp =   2.251714103089386E-003  rzold =   4.683084201888298E-004  alpha = 
  0.207978632609843     
 delta_qm =   0.177226E-03 delta_en =   0.542750E-01 tol =   0.100000E-03
 Iteration #          9
  pAp =   3.649518857082601E-004  rzold =   1.437211859436436E-004  alpha = 
  0.393808585657051     
 delta_qm =   0.858937E-04 delta_en =   0.127487E-01 tol =   0.100000E-03
 Iteration #         10
  pAp =   1.753884588906187E-004  rzold =   5.866627959604361E-005  alpha = 
  0.334493386663663     
 delta_qm =   0.460783E-04 delta_en =   0.366891E-02 tol =   0.100000E-03
 Iteration #         11
  pAp =   2.749485074312954E-005  rzold =   9.416281962972191E-006  alpha = 
  0.342474380055515     
 delta_qm =   0.307905E-04 delta_en =   0.163824E-02 tol =   0.100000E-03
 Iteration #         12
  pAp =   4.898855707221094E-006  rzold =   2.102289577235053E-006  alpha = 
  0.429138905670604     
 delta_qm =   0.206878E-04 delta_en =   0.739556E-03 tol =   0.100000E-03
 Iteration #         13
  pAp =   3.291102865785098E-006  rzold =   1.319795958221631E-006  alpha = 
  0.401019357961269     
 delta_qm =   0.113501E-04 delta_en =   0.222609E-03 tol =   0.100000E-03
 Iteration #         14
  pAp =   1.583047828227351E-006  rzold =   6.426245952001615E-007  alpha = 
  0.405941364336258     
 delta_qm =   0.559342E-05 delta_en =   0.540629E-04 tol =   0.100000E-03
 Charges are converged, EXIT

%%%% ELECTRONS %%%%%%%%%%%%%%%%%%%%%%%%%%%%%%%%%%%%%%%%%%%%%%%%%%%%%%%%%%%%%%%%%
 number of electrons        =         24
 total electronic charge    =     24.0000000
 number of spin components  =  1
