
     Program PWSCF v.6.3MaX starts on 21Apr2019 at 23:51:39 

     This program is part of the open-source Quantum ESPRESSO suite
     for quantum simulation of materials; please cite
         "P. Giannozzi et al., J. Phys.:Condens. Matter 21 395502 (2009);
         "P. Giannozzi et al., J. Phys.:Condens. Matter 29 465901 (2017);
          URL http://www.quantum-espresso.org", 
     in publications or presentations arising from this work. More details at
     http://www.quantum-espresso.org/quote

     Parallel version (MPI), running on     1 processors

     MPI processes distributed on     1 nodes
     Reading input from anion.in

     Current dimensions of program PWSCF are:
     Max number of different atomic species (ntypx) = 10
     Max number of k-points (npk) =  40000
     Max angular momentum in pseudopotentials (lmaxx) =  3
               file C.pbe-rrkjus.UPF: wavefunction(s)  2S 2P renormalized
               file H.pbe-rrkjus.UPF: wavefunction(s)  1S renormalized

     gamma-point specific algorithms are used

     Subspace diagonalization in iterative solution of the eigenvalue problem:
     a serial algorithm will be used

 
     G-vector sticks info
     --------------------
     sticks:   dense  smooth     PW     G-vecs:    dense   smooth      PW
     Sum        9549    3809    949               701475   177509   22119
 


     bravais-lattice index     =            1
     lattice parameter (alat)  =      20.0000  a.u.
     unit-cell volume          =    8000.0000 (a.u.)^3
     number of atoms/cell      =            4
     number of atomic types    =            2
     number of electrons       =         8.00
     number of Kohn-Sham states=            4
     kinetic-energy cutoff     =      30.0000  Ry
     charge density cutoff     =     300.0000  Ry
     convergence threshold     =      1.0E-03
     mixing beta               =       0.7000
     number of iterations used =            8  plain     mixing
     Exchange-correlation      = SLA PW PBE PBE ( 1  4  3  4 0 0)
 

     Environ Module
     ==============

     Plese cite
         O. Andreussi, I. Dabo and N. Marzari, J. Chem. Phys. 136, 064102 (2012)         
     in publications or presentations arising from this work.

     compensation onset threshold      =               0.1000E+03 
     static permittivity               =                    78.30 
     epsilon calculation mode          =                    ionic 
     surface tension in input (dyn/cm) =                    50.00 
     surface tension in internal units =               0.6423E-04 
     external pressure in input (GPa)  =                    -0.35 
     external pressure in inter. units =              -0.2379E-04 

     Electrostatic Setup
     -------------------
     electrostatic problem to solve    = generalized              
     numerical solver adopted          = cg                       
     type of auxiliary density adopted = none                     
     type of core tool for poisson     = fft                      
     type of core tool for s(r) deriv  = analytic                 



     celldm(1)=  20.000000  celldm(2)=   0.000000  celldm(3)=   0.000000
     celldm(4)=   0.000000  celldm(5)=   0.000000  celldm(6)=   0.000000

     crystal axes: (cart. coord. in units of alat)
               a(1) = (   1.000000   0.000000   0.000000 )  
               a(2) = (   0.000000   1.000000   0.000000 )  
               a(3) = (   0.000000   0.000000   1.000000 )  

     reciprocal axes: (cart. coord. in units 2 pi/alat)
               b(1) = (  1.000000  0.000000  0.000000 )  
               b(2) = (  0.000000  1.000000  0.000000 )  
               b(3) = (  0.000000  0.000000  1.000000 )  


     PseudoPot. # 1 for C  read from file:
     /home/fnattino/Programs/quantumespresso/q-e-qe-6.3-develop/Environ/tests/../..//pseudo/C.pbe-rrkjus.UPF
     MD5 check sum: c9ac5a99bc85b198593446162950cd17
     Pseudo is Ultrasoft, Zval =  4.0
     Generated by new atomic code, or converted to UPF format
     Using radial grid of  627 points,  4 beta functions with: 
                l(1) =   0
                l(2) =   0
                l(3) =   1
                l(4) =   1
     Q(r) pseudized with 0 coefficients 


     PseudoPot. # 2 for H  read from file:
     /home/fnattino/Programs/quantumespresso/q-e-qe-6.3-develop/Environ/tests/../..//pseudo/H.pbe-rrkjus.UPF
     MD5 check sum: 2d52a7f45632fd764c17cc6affed14c8
     Pseudo is Ultrasoft, Zval =  1.0
     Generated by new atomic code, or converted to UPF format
     Using radial grid of 1061 points,  2 beta functions with: 
                l(1) =   0
                l(2) =   0
     Q(r) pseudized with 0 coefficients 


     atomic species   valence    mass     pseudopotential
        C              4.00    12.00000     C ( 1.00)
        H              1.00     1.00000     H ( 1.00)

      2 Sym. Ops. (no inversion) found



   Cartesian axes

     site n.     atom                  positions (alat units)
         1           C   tau(   1) = (   0.0000000   0.0000000   0.0297065  )
         2           H   tau(   2) = (   0.0000000   0.0981713  -0.0066140  )
         3           H   tau(   3) = (   0.0850377  -0.0491140  -0.0066140  )
         4           H   tau(   4) = (  -0.0850377  -0.0491140  -0.0066140  )

     number of k points=     1
                       cart. coord. in units 2pi/alat
        k(    1) = (   0.0000000   0.0000000   0.0000000), wk =   2.0000000

     Dense  grid:   350738 G-vectors     FFT dimensions: ( 120, 120, 120)

     Smooth grid:    88755 G-vectors     FFT dimensions: (  72,  72,  72)

     Estimated max dynamical RAM per process >     565.10 MB

     Initial potential from superposition of free atoms
     Check: negative starting charge=   -0.000707

     starting charge    6.71133, renormalised to    8.00000

     negative rho (up, down):  8.422E-04 0.000E+00
     Starting wfcs are    7 randomized atomic wfcs

     total cpu time spent up to now is        9.3 secs

     Self-consistent Calculation

     iteration #  1     ecut=    30.00 Ry     beta= 0.70
     Davidson diagonalization with overlap
     ethr =  1.00E-02,  avg # of iterations =  2.0

     negative rho (up, down):  2.408E-04 0.000E+00

     add environment contribution to local potential
     polarization accuracy = 7.2E-06, # of iterations =  11

     total cpu time spent up to now is       11.8 secs

     total energy              =     -14.75140596 Ry
     Harris-Foulkes estimate   =     -15.25549897 Ry
     estimated scf accuracy    <       0.71470914 Ry
     electrostatic embedding   =       0.00000000 Ry
     cavitation energy         =       0.01309546 Ry
     PV energy                 =      -0.00631465 Ry
     correction to one-el term =       0.00000000 Ry

     iteration #  2     ecut=    30.00 Ry     beta= 0.70
     Davidson diagonalization with overlap
     ethr =  8.93E-03,  avg # of iterations =  2.0

     negative rho (up, down):  1.261E-04 0.000E+00

     add environment contribution to local potential
     polarization accuracy = 8.2E-06, # of iterations =  11

     total cpu time spent up to now is       14.2 secs

     total energy              =     -14.99404213 Ry
     Harris-Foulkes estimate   =     -16.55095404 Ry
     estimated scf accuracy    <       0.18019143 Ry
     electrostatic embedding   =      -0.09167808 Ry
     cavitation energy         =       0.01309546 Ry
     PV energy                 =      -0.00631465 Ry
     correction to one-el term =       1.54946547 Ry

     iteration #  3     ecut=    30.00 Ry     beta= 0.70
     Davidson diagonalization with overlap
     ethr =  2.25E-03,  avg # of iterations =  2.0

     negative rho (up, down):  4.307E-05 0.000E+00

     add environment contribution to local potential
     polarization accuracy = 7.6E-06, # of iterations =  11

     total cpu time spent up to now is       16.7 secs

     total energy              =     -15.04042016 Ry
     Harris-Foulkes estimate   =     -16.60257616 Ry
     estimated scf accuracy    <       0.02236272 Ry
     electrostatic embedding   =      -0.10548923 Ry
     cavitation energy         =       0.01309546 Ry
     PV energy                 =      -0.00631465 Ry
     correction to one-el term =       1.64851003 Ry

     iteration #  4     ecut=    30.00 Ry     beta= 0.70
     Davidson diagonalization with overlap
     ethr =  2.80E-04,  avg # of iterations =  2.0

     negative rho (up, down):  1.687E-05 0.000E+00

     the potential shift due to the Gaussian-smeared nuclei is    -0.0187 ev

     total cpu time spent up to now is       17.7 secs

     End of self-consistent calculation

          k = 0.0000 0.0000 0.0000 ( 11060 PWs)   bands (ev):

   -14.8581  -8.0855  -8.0837  -3.8134

     highest occupied level (ev):    -3.8134

!    total energy              =     -15.05031709 Ry
     Harris-Foulkes estimate   =     -16.84662774 Ry
     estimated scf accuracy    <       0.00097360 Ry

     The total energy is the sum of the following terms:

     one-electron contribution =     -37.08879474 Ry
     hartree contribution      =      19.87153925 Ry
     xc contribution           =      -5.94964848 Ry
     ewald contribution        =       6.32058449 Ry
     electrostatic embedding   =      -0.13648130 Ry
     cavitation energy         =       0.01309546 Ry
     PV energy                 =      -0.00631465 Ry
     correction to one-el term =       1.92570289 Ry

     convergence has been achieved in   4 iterations

     Forces acting on atoms (cartesian axes, Ry/au):

     atom    1 type  1   force =     0.00000000   -0.00033703    0.00727497
     atom    2 type  2   force =     0.00000000   -0.00350401   -0.00251311
     atom    3 type  2   force =    -0.00328317    0.00192052   -0.00238093
     atom    4 type  2   force =     0.00328317    0.00192052   -0.00238093

     Total force =     0.010579     Total SCF correction =     0.028668
     SCF correction compared to forces is large: reduce conv_thr to get better values

     Writing output data file pwscf.save/
 
     init_run     :      8.28s CPU      9.07s WALL (       1 calls)
     electrons    :      6.92s CPU      8.36s WALL (       1 calls)
     forces       :      3.19s CPU      3.40s WALL (       1 calls)

     Called by init_run:
     wfcinit      :      0.05s CPU      0.05s WALL (       1 calls)
     potinit      :      0.79s CPU      0.87s WALL (       1 calls)
     hinit0       :      7.21s CPU      7.74s WALL (       1 calls)

     Called by electrons:
     c_bands      :      0.29s CPU      0.29s WALL (       4 calls)
     sum_band     :      0.68s CPU      0.95s WALL (       4 calls)
     v_of_rho     :      2.28s CPU      2.48s WALL (       5 calls)
     newd         :      0.62s CPU      0.95s WALL (       5 calls)
     mix_rho      :      0.16s CPU      0.18s WALL (       4 calls)

     Called by c_bands:
     init_us_2    :      0.02s CPU      0.02s WALL (       9 calls)
     regterg      :      0.27s CPU      0.27s WALL (       4 calls)

     Called by sum_band:
     sum_band:bec :      0.00s CPU      0.00s WALL (       4 calls)
     addusdens    :      0.50s CPU      0.76s WALL (       4 calls)

     Called by *egterg:
     h_psi        :      0.30s CPU      0.29s WALL (      13 calls)
     s_psi        :      0.00s CPU      0.00s WALL (      13 calls)
     g_psi        :      0.01s CPU      0.00s WALL (       8 calls)
     rdiaghg      :      0.00s CPU      0.00s WALL (      12 calls)

     Called by h_psi:
     h_psi:pot    :      0.29s CPU      0.29s WALL (      13 calls)
     h_psi:calbec :      0.00s CPU      0.00s WALL (      13 calls)
     vloc_psi     :      0.29s CPU      0.28s WALL (      13 calls)
     add_vuspsi   :      0.00s CPU      0.00s WALL (      13 calls)

     General routines
     calbec       :      0.00s CPU      0.01s WALL (      21 calls)
     fft          :      2.65s CPU      2.67s WALL (     149 calls)
     ffts         :      0.02s CPU      0.03s WALL (       9 calls)
     fftw         :      0.26s CPU      0.25s WALL (      64 calls)
     interpolate  :      0.13s CPU      0.15s WALL (       5 calls)
 
     Parallel routines
 
     Environ routines
     calc_eelect  :      0.01s CPU      0.01s WALL (       8 calls)
     calc_velect  :      2.92s CPU      3.56s WALL (       6 calls)
     dielectric   :      0.12s CPU      0.13s WALL (       2 calls)
     calc_felect  :      0.05s CPU      0.06s WALL (       1 calls)
 
     PWSCF        :    18.64s CPU        21.10s WALL

 
   This run was terminated on:  23:52: 0  21Apr2019            

=------------------------------------------------------------------------------=
   JOB DONE.
=------------------------------------------------------------------------------=

%%%% IONS %%%%%%%%%%%%%%%%%%%%%%%%%%%%%%%%%%%%%%%%%%%%%%%%%%%%%%%%%%%%%%%%%%%%%%
 number of ions             =          4
 ionic center of charge     =      0.0000000    -0.0000081     0.0141406
 total ionic charge         =     -7.0000000
 ionic dipole               =      0.0000000     0.0000000     0.0000000
 ionic quadrupole (pc)      =     -5.7851251    -5.7847859    -0.9045815
 ionic quadrupole (gauss)   =     -6.6601251    -6.6597859    -1.7795815
 ion   1 type =  1 coordinates =      0.0000000     0.0000000     0.5941299
 ion   2 type =  2 coordinates =      0.0000000     1.9634255    -0.1322808
 ion   3 type =  2 coordinates =      1.7007535    -0.9822796    -0.1322808
 ion   4 type =  2 coordinates =     -1.7007535    -0.9822796    -0.1322808

%%%% SYSTEM %%%%%%%%%%%%%%%%%%%%%%%%%%%%%%%%%%%%%%%%%%%%%%%%%%%%%%%%%%%%%%%%%%%%
 system is built from all present ionic types
 system defined dimension   =  0 
 system defined axis        =  3 
 system center              =      0.0000000    -0.0000081     0.0141406 
 system width               =      0.1003671 

%%%% BOUNDARY %%%%%%%%%%%%%%%%%%%%%%%%%%%%%%%%%%%%%%%%%%%%%%%%%%%%%%%%%%%%%%%%%%
 boundary label             = solvent              
 boundary mode              = ionic                
 boundary is built from soft-spheres centered on ionic positions
 solvent-dependent scaling  =      0.9800000 
 softness parameter         =      0.5000000 
 volume of the QM region    =    265.4048361 
 surface of the QM region   =    203.8822470 

%%%% DIELECTRIC %%%%%%%%%%%%%%%%%%%%%%%%%%%%%%%%%%%%%%%%%%%%%%%%%%%%%%%%%%%%%%%%%
 dielectric build on homogeneous background
 environment bulk permitt.  =     78.3000000 
 dielectric flags
 need gradient              =  F 
 need factor depend. sqrt   =  T 
 total dielectric charge    =      0.0000000

%%%% ELECTRONS %%%%%%%%%%%%%%%%%%%%%%%%%%%%%%%%%%%%%%%%%%%%%%%%%%%%%%%%%%%%%%%%%
 number of electrons        =          8
 total electronic charge    =      8.0000000
 number of spin components  =  1

%%%% DENSITY %%%%%%%%%%%%%%%%%%%%%%%%%%%%%%%%%%%%%%%%%%%%%%%%%%%%%%%%%%%%%%%%%%%
 density label              = vreference                                                                      
 integral of density        =      0.000000000    

%%%% DENSITY %%%%%%%%%%%%%%%%%%%%%%%%%%%%%%%%%%%%%%%%%%%%%%%%%%%%%%%%%%%%%%%%%%%
 density label              = velectrostatic                                                                  
 integral of density        =      0.000000000    

%%%% CHARGES %%%%%%%%%%%%%%%%%%%%%%%%%%%%%%%%%%%%%%%%%%%%%%%%%%%%%%%%%%%%%%%%%%%
 total number of charges    =         12
 total charge               =      1.0000000

%%%% ELECTRONS %%%%%%%%%%%%%%%%%%%%%%%%%%%%%%%%%%%%%%%%%%%%%%%%%%%%%%%%%%%%%%%%%
 number of electrons        =          8
 total electronic charge    =      8.0000000
 number of spin components  =  1

%%%% DENSITY %%%%%%%%%%%%%%%%%%%%%%%%%%%%%%%%%%%%%%%%%%%%%%%%%%%%%%%%%%%%%%%%%%%
 density label              = vreference                                                                      
 integral of density        =    -0.5240252676E-12

%%%% COMPUTE ELECTROSTATIC POTENTIAL %%%%%%%%%%%%%%%%%%%%%%%%%%%%%%%%%%%%%%%%%%%
 Iteration #          1
  pAp =    20.6370060663370       rzold =    20.2918066558246       alpha = 
  0.983272795995563     
 delta_qm =   0.721079E-02 delta_en =   0.898481E+02 tol =   0.100000E-04
 Iteration #          2
  pAp =    18.8007652532523       rzold =    2.14621183194125       alpha = 
  0.114155557129249     
 delta_qm =   0.234342E-02 delta_en =   0.948948E+01 tol =   0.100000E-04
 Iteration #          3
  pAp =    1.05668212573828       rzold =   0.191662081184925       alpha = 
  0.181381019434785     
 delta_qm =   0.770890E-03 delta_en =   0.102690E+01 tol =   0.100000E-04
 Iteration #          4
  pAp =   4.095190624198977E-002  rzold =   8.696210349575443E-003  alpha = 
  0.212351784021688     
 delta_qm =   0.430767E-03 delta_en =   0.320648E+00 tol =   0.100000E-04
 Iteration #          5
  pAp =   7.650869692867005E-004  rzold =   4.837796007281905E-004  alpha = 
  0.632319749451783     
 delta_qm =   0.243164E-03 delta_en =   0.102175E+00 tol =   0.100000E-04
 Iteration #          6
  pAp =   3.666296124372052E-004  rzold =   2.033786630371208E-004  alpha = 
  0.554725139862931     
 delta_qm =   0.142363E-03 delta_en =   0.350220E-01 tol =   0.100000E-04
 Iteration #          7
  pAp =   5.012730498529978E-005  rzold =   4.645469051875638E-005  alpha = 
  0.926734252567130     
 delta_qm =   0.496539E-04 delta_en =   0.426040E-02 tol =   0.100000E-04
 Iteration #          8
  pAp =   3.138012593229791E-005  rzold =   1.479489149321599E-005  alpha = 
  0.471473298900575     
 delta_qm =   0.183998E-04 delta_en =   0.585018E-03 tol =   0.100000E-04
 Iteration #          9
  pAp =   2.502721175830783E-005  rzold =   4.819677571306689E-006  alpha = 
  0.192577487969941     
 delta_qm =   0.104956E-04 delta_en =   0.190353E-03 tol =   0.100000E-04
 Iteration #         10
  pAp =   6.794796451546191E-007  rzold =   3.147603425913508E-007  alpha = 
  0.463237338801702     
 delta_qm =   0.549895E-05 delta_en =   0.522521E-04 tol =   0.100000E-04
 Iteration #         11
  pAp =   7.905515031556444E-008  rzold =   5.567454796628334E-008  alpha = 
  0.704249473235422     
 delta_qm =   0.204003E-05 delta_en =   0.719147E-05 tol =   0.100000E-04
 Charges are converged, EXIT

%%%% DENSITY %%%%%%%%%%%%%%%%%%%%%%%%%%%%%%%%%%%%%%%%%%%%%%%%%%%%%%%%%%%%%%%%%%%
 density label              = velectrostatic                                                                  
 integral of density        =     0.4895178912E-12

%%%% CHARGES %%%%%%%%%%%%%%%%%%%%%%%%%%%%%%%%%%%%%%%%%%%%%%%%%%%%%%%%%%%%%%%%%%%
 total number of charges    =         12
 total charge               =      1.0000000

%%%% ELECTRONS %%%%%%%%%%%%%%%%%%%%%%%%%%%%%%%%%%%%%%%%%%%%%%%%%%%%%%%%%%%%%%%%%
 number of electrons        =          8
 total electronic charge    =      8.0000000
 number of spin components  =  1

%%%% DENSITY %%%%%%%%%%%%%%%%%%%%%%%%%%%%%%%%%%%%%%%%%%%%%%%%%%%%%%%%%%%%%%%%%%%
 density label              = vreference                                                                      
 integral of density        =    -0.7690967205E-13

%%%% COMPUTE ELECTROSTATIC POTENTIAL %%%%%%%%%%%%%%%%%%%%%%%%%%%%%%%%%%%%%%%%%%%
 Warning: bad guess with residual norm =   0.585368E+02, reset to no guess
 Iteration #          1
  pAp =    21.8221923409602       rzold =    21.6118781514592       alpha = 
  0.990362371194655     
 delta_qm =   0.576783E-02 delta_en =   0.574869E+02 tol =   0.100000E-04
 Iteration #          2
  pAp =    10.0684467057142       rzold =    1.22013479395240       alpha = 
  0.121184014735851     
 delta_qm =   0.186630E-02 delta_en =   0.601874E+01 tol =   0.100000E-04
 Iteration #          3
  pAp =   0.813616690496291       rzold =   0.134206953016174       alpha = 
  0.164951081490610     
 delta_qm =   0.767783E-03 delta_en =   0.101864E+01 tol =   0.100000E-04
 Iteration #          4
  pAp =   2.791829697727049E-002  rzold =   6.097941935423749E-003  alpha = 
  0.218420985362694     
 delta_qm =   0.489799E-03 delta_en =   0.414552E+00 tol =   0.100000E-04
 Iteration #          5
  pAp =   5.093513121037351E-004  rzold =   4.323096759520068E-004  alpha = 
  0.848745582231782     
 delta_qm =   0.225914E-03 delta_en =   0.881921E-01 tol =   0.100000E-04
 Iteration #          6
  pAp =   3.564767347141550E-004  rzold =   1.962203412444842E-004  alpha = 
  0.550443611423410     
 delta_qm =   0.130747E-03 delta_en =   0.295397E-01 tol =   0.100000E-04
 Iteration #          7
  pAp =   7.161609785344319E-005  rzold =   5.696680275761136E-005  alpha = 
  0.795446896229805     
 delta_qm =   0.372110E-04 delta_en =   0.239269E-02 tol =   0.100000E-04
 Iteration #          8
  pAp =   3.480538635672385E-005  rzold =   1.224737947128652E-005  alpha = 
  0.351881727321223     
 delta_qm =   0.184309E-04 delta_en =   0.587001E-03 tol =   0.100000E-04
 Iteration #          9
  pAp =   1.860210485672659E-005  rzold =   3.921447397161522E-006  alpha = 
  0.210806649428358     
 delta_qm =   0.116719E-04 delta_en =   0.235413E-03 tol =   0.100000E-04
 Iteration #         10
  pAp =   3.558344521913629E-007  rzold =   2.349650411554497E-007  alpha = 
  0.660321224402096     
 delta_qm =   0.521613E-05 delta_en =   0.470155E-04 tol =   0.100000E-04
 Iteration #         11
  pAp =   8.082346351743822E-008  rzold =   5.727399265428247E-008  alpha = 
  0.708630763415938     
 delta_qm =   0.218134E-05 delta_en =   0.822223E-05 tol =   0.100000E-04
 Charges are converged, EXIT

%%%% DENSITY %%%%%%%%%%%%%%%%%%%%%%%%%%%%%%%%%%%%%%%%%%%%%%%%%%%%%%%%%%%%%%%%%%%
 density label              = velectrostatic                                                                  
 integral of density        =     0.1491152880E-12

%%%% CHARGES %%%%%%%%%%%%%%%%%%%%%%%%%%%%%%%%%%%%%%%%%%%%%%%%%%%%%%%%%%%%%%%%%%%
 total number of charges    =         12
 total charge               =      1.0000000

%%%% ELECTRONS %%%%%%%%%%%%%%%%%%%%%%%%%%%%%%%%%%%%%%%%%%%%%%%%%%%%%%%%%%%%%%%%%
 number of electrons        =          8
 total electronic charge    =      8.0000000
 number of spin components  =  1

%%%% DENSITY %%%%%%%%%%%%%%%%%%%%%%%%%%%%%%%%%%%%%%%%%%%%%%%%%%%%%%%%%%%%%%%%%%%
 density label              = vreference                                                                      
 integral of density        =     0.1070748428E-12

%%%% COMPUTE ELECTROSTATIC POTENTIAL %%%%%%%%%%%%%%%%%%%%%%%%%%%%%%%%%%%%%%%%%%%
 Warning: bad guess with residual norm =   0.107667E+03, reset to no guess
 Iteration #          1
  pAp =    21.7386944230465       rzold =    21.3545186522275       alpha = 
  0.982327560094330     
 delta_qm =   0.776448E-02 delta_en =   0.104176E+03 tol =   0.100000E-04
 Iteration #          2
  pAp =    22.1237933437152       rzold =    2.49921390560169       alpha = 
  0.112964981491822     
 delta_qm =   0.236798E-02 delta_en =   0.968948E+01 tol =   0.100000E-04
 Iteration #          3
  pAp =    1.13351054574619       rzold =   0.196009878216334       alpha = 
  0.172922853653119     
 delta_qm =   0.804770E-03 delta_en =   0.111915E+01 tol =   0.100000E-04
 Iteration #          4
  pAp =   3.738472566319713E-002  rzold =   8.231233060392097E-003  alpha = 
  0.220176366533972     
 delta_qm =   0.481122E-03 delta_en =   0.399995E+00 tol =   0.100000E-04
 Iteration #          5
  pAp =   5.268398672762225E-004  rzold =   4.487887201750344E-004  alpha = 
  0.851850340209227     
 delta_qm =   0.239489E-03 delta_en =   0.991095E-01 tol =   0.100000E-04
 Iteration #          6
  pAp =   3.761489001847253E-004  rzold =   2.088386300861674E-004  alpha = 
  0.555202022347021     
 delta_qm =   0.139940E-03 delta_en =   0.338399E-01 tol =   0.100000E-04
 Iteration #          7
  pAp =   7.656905811140179E-005  rzold =   5.896078848247936E-005  alpha = 
  0.770034135677837     
 delta_qm =   0.421851E-04 delta_en =   0.307512E-02 tol =   0.100000E-04
 Iteration #          8
  pAp =   6.057846617438241E-005  rzold =   1.753064193267082E-005  alpha = 
  0.289387352301175     
 delta_qm =   0.225179E-04 delta_en =   0.876189E-03 tol =   0.100000E-04
 Iteration #          9
  pAp =   2.322710483889720E-005  rzold =   6.002589290878061E-006  alpha = 
  0.258430369712968     
 delta_qm =   0.125633E-04 delta_en =   0.272743E-03 tol =   0.100000E-04
 Iteration #         10
  pAp =   3.598631773704569E-007  rzold =   2.506795504790032E-007  alpha = 
  0.696596835249260     
 delta_qm =   0.558008E-05 delta_en =   0.538052E-04 tol =   0.100000E-04
 Iteration #         11
  pAp =   7.900734156727453E-008  rzold =   6.099292678589423E-008  alpha = 
  0.771990622339304     
 delta_qm =   0.209037E-05 delta_en =   0.755076E-05 tol =   0.100000E-04
 Charges are converged, EXIT

%%%% DENSITY %%%%%%%%%%%%%%%%%%%%%%%%%%%%%%%%%%%%%%%%%%%%%%%%%%%%%%%%%%%%%%%%%%%
 density label              = velectrostatic                                                                  
 integral of density        =    -0.1736882243E-13

%%%% CHARGES %%%%%%%%%%%%%%%%%%%%%%%%%%%%%%%%%%%%%%%%%%%%%%%%%%%%%%%%%%%%%%%%%%%
 total number of charges    =         12
 total charge               =      1.0000000

%%%% ELECTRONS %%%%%%%%%%%%%%%%%%%%%%%%%%%%%%%%%%%%%%%%%%%%%%%%%%%%%%%%%%%%%%%%%
 number of electrons        =          8
 total electronic charge    =      8.0000000
 number of spin components  =  1

%%%% DENSITY %%%%%%%%%%%%%%%%%%%%%%%%%%%%%%%%%%%%%%%%%%%%%%%%%%%%%%%%%%%%%%%%%%%
 density label              = vreference                                                                      
 integral of density        =     0.1070748428E-12

%%%% DENSITY %%%%%%%%%%%%%%%%%%%%%%%%%%%%%%%%%%%%%%%%%%%%%%%%%%%%%%%%%%%%%%%%%%%
 density label              = velectrostatic                                                                  
 integral of density        =    -0.1736882243E-13

%%%% CHARGES %%%%%%%%%%%%%%%%%%%%%%%%%%%%%%%%%%%%%%%%%%%%%%%%%%%%%%%%%%%%%%%%%%%
 total number of charges    =         12
 total charge               =      1.0000000
