
     Program PWSCF v.6.1 (svn rev. 13369) starts on 13Oct2017 at 16:21:21 

     This program is part of the open-source Quantum ESPRESSO suite
     for quantum simulation of materials; please cite
         "P. Giannozzi et al., J. Phys.:Condens. Matter 21 395502 (2009);
          URL http://www.quantum-espresso.org", 
     in publications or presentations arising from this work. More details at
     http://www.quantum-espresso.org/quote

     Parallel version (MPI), running on     1 processors
     Reading input from anion.in

     Current dimensions of program PWSCF are:
     Max number of different atomic species (ntypx) = 10
     Max number of k-points (npk) =  40000
     Max angular momentum in pseudopotentials (lmaxx) =  3
               file C.pbe-rrkjus.UPF: wavefunction(s)  2S 2P renormalized
               file H.pbe-rrkjus.UPF: wavefunction(s)  1S renormalized
               file N.pbe-rrkjus.UPF: wavefunction(s)  2S renormalized
               file O.pbe-rrkjus.UPF: wavefunction(s)  2S renormalized

     gamma-point specific algorithms are used

     Subspace diagonalization in iterative solution of the eigenvalue problem:
     a serial algorithm will be used

 
     G-vector sticks info
     --------------------
     sticks:   dense  smooth     PW     G-vecs:    dense   smooth      PW
     Sum        9549    3809    949               701475   177509   22119
 


     bravais-lattice index     =            1
     lattice parameter (alat)  =      20.0000  a.u.
     unit-cell volume          =    8000.0000 (a.u.)^3
     number of atoms/cell      =            8
     number of atomic types    =            4
     number of electrons       =        24.00
     number of Kohn-Sham states=           12
     kinetic-energy cutoff     =      30.0000  Ry
     charge density cutoff     =     300.0000  Ry
     convergence threshold     =      5.0E-03
     mixing beta               =       0.7000
     number of iterations used =            8  plain     mixing
     Exchange-correlation      =  SLA  PW   PBE  PBE ( 1  4  3  4 0 0)
 

     Environ Module
     ==============

     Plese cite
         O. Andreussi, I. Dabo and N. Marzari, J. Chem. Phys. 136, 064102 (2012)         
     in publications or presentations arising from this work.

     compensation onset threshold      =               0.1000E+03 
     static permittivity               =                    78.30 
     epsilon calculation mode          =                    ionic 
     surface tension in input (dyn/cm) =                    50.00 
     surface tension in internal units =               0.6423E-04 
     external pressure in input (GPa)  =                    -0.35 
     external pressure in inter. units =              -0.2379E-04 

     Electrostatic Setup
     -------------------
     electrostatic problem to solve    = generalized              
     numerical solver adopted          = cg                       
     type of auxiliary density adopted = none                     
     type of core tool for poisson     = fft                      
     type of core tool for s(r) deriv  = analytic                 



     celldm(1)=  20.000000  celldm(2)=   0.000000  celldm(3)=   0.000000
     celldm(4)=   0.000000  celldm(5)=   0.000000  celldm(6)=   0.000000

     crystal axes: (cart. coord. in units of alat)
               a(1) = (   1.000000   0.000000   0.000000 )  
               a(2) = (   0.000000   1.000000   0.000000 )  
               a(3) = (   0.000000   0.000000   1.000000 )  

     reciprocal axes: (cart. coord. in units 2 pi/alat)
               b(1) = (  1.000000  0.000000  0.000000 )  
               b(2) = (  0.000000  1.000000  0.000000 )  
               b(3) = (  0.000000  0.000000  1.000000 )  


     PseudoPot. # 1 for C  read from file:
     /home/andreo/PWSCF/espresso-6.1-Environ-1.0/Environ/tests/../..//pseudo/C.pbe-rrkjus.UPF
     MD5 check sum: 00fb224312de0c5b6853bd333518df6f
     Pseudo is Ultrasoft, Zval =  4.0
     Generated by new atomic code, or converted to UPF format
     Using radial grid of  627 points,  4 beta functions with: 
                l(1) =   0
                l(2) =   0
                l(3) =   1
                l(4) =   1
     Q(r) pseudized with 0 coefficients 


     PseudoPot. # 2 for H  read from file:
     /home/andreo/PWSCF/espresso-6.1-Environ-1.0/Environ/tests/../..//pseudo/H.pbe-rrkjus.UPF
     MD5 check sum: 7cc9d459525c9a0585f487a71c3c9563
     Pseudo is Ultrasoft, Zval =  1.0
     Generated by new atomic code, or converted to UPF format
     Using radial grid of 1061 points,  2 beta functions with: 
                l(1) =   0
                l(2) =   0
     Q(r) pseudized with 0 coefficients 


     PseudoPot. # 3 for N  read from file:
     /home/andreo/PWSCF/espresso-6.1-Environ-1.0/Environ/tests/../..//pseudo/N.pbe-rrkjus.UPF
     MD5 check sum: 0c3fbe5807a93f9ba59d5a7019aa238b
     Pseudo is Ultrasoft, Zval =  5.0
     Generated by new atomic code, or converted to UPF format
     Using radial grid of 1257 points,  4 beta functions with: 
                l(1) =   0
                l(2) =   0
                l(3) =   1
                l(4) =   1
     Q(r) pseudized with 0 coefficients 


     PseudoPot. # 4 for O  read from file:
     /home/andreo/PWSCF/espresso-6.1-Environ-1.0/Environ/tests/../..//pseudo/O.pbe-rrkjus.UPF
     MD5 check sum: 390ba29e75625707450f3bd3f0eb6be9
     Pseudo is Ultrasoft, Zval =  6.0
     Generated by new atomic code, or converted to UPF format
     Using radial grid of 1269 points,  4 beta functions with: 
                l(1) =   0
                l(2) =   0
                l(3) =   1
                l(4) =   1
     Q(r) pseudized with 0 coefficients 


     atomic species   valence    mass     pseudopotential
        C              4.00    12.00000     C ( 1.00)
        H              1.00     1.00000     H ( 1.00)
        N              5.00    14.00000     N ( 1.00)
        O              6.00    16.00000     O ( 1.00)

     No symmetry found



   Cartesian axes

     site n.     atom                  positions (alat units)
         1           C   tau(   1) = (   0.0000000   0.0000000   0.0000000  )
         2           C   tau(   2) = (   0.0000000   0.0000000   0.1455089  )
         3           N   tau(   3) = (   0.1170969   0.0000000  -0.0545024  )
         4           H   tau(   4) = (   0.0476617  -0.0825466   0.1792090  )
         5           H   tau(   5) = (  -0.0953183  -0.0000030   0.1792090  )
         6           H   tau(   6) = (   0.0476566   0.0825496   0.1792090  )
         7           O   tau(   7) = (  -0.0984002  -0.0000019  -0.0641310  )
         8           H   tau(   8) = (   0.1944645   0.0000134  -0.0025716  )

     number of k points=     1
                       cart. coord. in units 2pi/alat
        k(    1) = (   0.0000000   0.0000000   0.0000000), wk =   2.0000000

     Dense  grid:   350738 G-vectors     FFT dimensions: ( 120, 120, 120)

     Smooth grid:    88755 G-vectors     FFT dimensions: (  72,  72,  72)

     Estimated max dynamical RAM per process >     298.30MB

     Initial potential from superposition of free atoms
     Check: negative starting charge=   -0.000561

     starting charge   22.61507, renormalised to   24.00000

     negative rho (up, down):  5.954E-04 0.000E+00
     Starting wfc are   20 randomized atomic wfcs

     total cpu time spent up to now is       41.9 secs

     per-process dynamical memory:   553.7 Mb

     Self-consistent Calculation

     iteration #  1     ecut=    30.00 Ry     beta=0.70
     Davidson diagonalization with overlap
     ethr =  1.00E-02,  avg # of iterations =  2.0

     negative rho (up, down):  1.758E-04 0.000E+00

     add environment contribution to local potential
     polarization accuracy = 6.5E-05, # of iterations =  14

     total cpu time spent up to now is       45.8 secs

     total energy              =     -78.45602745 Ry
     Harris-Foulkes estimate   =     -80.30749154 Ry
     estimated scf accuracy    <       2.43325747 Ry
     electrostatic embedding   =      -0.00222918 Ry
     cavitation energy         =       0.02262354 Ry
     PV energy                 =      -0.01287875 Ry
     correction to one-el term =       0.00000000 Ry

     iteration #  2     ecut=    30.00 Ry     beta=0.70
     Davidson diagonalization with overlap
     ethr =  1.00E-02,  avg # of iterations =  4.0

     negative rho (up, down):  3.206E-03 0.000E+00

     add environment contribution to local potential
     polarization accuracy = 4.1E-05, # of iterations =  14

     total cpu time spent up to now is       49.9 secs

     total energy              =     -78.92130881 Ry
     Harris-Foulkes estimate   =     -82.23215565 Ry
     estimated scf accuracy    <       2.24385698 Ry
     electrostatic embedding   =      -0.07658890 Ry
     cavitation energy         =       0.02262354 Ry
     PV energy                 =      -0.01287875 Ry
     correction to one-el term =       2.23850040 Ry

     iteration #  3     ecut=    30.00 Ry     beta=0.70
     Davidson diagonalization with overlap
     ethr =  9.35E-03,  avg # of iterations =  3.0

     negative rho (up, down):  3.521E-04 0.000E+00

     add environment contribution to local potential
     polarization accuracy = 3.9E-05, # of iterations =  14

     total cpu time spent up to now is       53.6 secs

     total energy              =     -79.43873915 Ry
     Harris-Foulkes estimate   =     -82.29906562 Ry
     estimated scf accuracy    <       0.12404459 Ry
     electrostatic embedding   =      -0.11332507 Ry
     cavitation energy         =       0.02262354 Ry
     PV energy                 =      -0.01287875 Ry
     correction to one-el term =       2.89827251 Ry

     iteration #  4     ecut=    30.00 Ry     beta=0.70
     Davidson diagonalization with overlap
     ethr =  5.17E-04,  avg # of iterations =  4.0

     negative rho (up, down):  2.184E-04 0.000E+00

     add environment contribution to local potential
     polarization accuracy = 4.0E-05, # of iterations =  14

     total cpu time spent up to now is       57.3 secs

     total energy              =     -79.49188993 Ry
     Harris-Foulkes estimate   =     -82.79533349 Ry
     estimated scf accuracy    <       0.02038833 Ry
     electrostatic embedding   =      -0.14620367 Ry
     cavitation energy         =       0.02262354 Ry
     PV energy                 =      -0.01287875 Ry
     correction to one-el term =       3.43053226 Ry

     iteration #  5     ecut=    30.00 Ry     beta=0.70
     Davidson diagonalization with overlap
     ethr =  8.50E-05,  avg # of iterations =  3.0

     negative rho (up, down):  1.634E-04 0.000E+00

     total cpu time spent up to now is       59.2 secs

     End of self-consistent calculation

          k = 0.0000 0.0000 0.0000 ( 11060 PWs)   bands (ev):

   -24.8791 -19.9410 -16.8052 -12.4639 -10.6591  -9.8803  -9.6739  -8.7867
    -8.0076  -5.5229  -5.0511  -4.9232

     highest occupied level (ev):    -4.9232

!    total energy              =     -79.51003798 Ry
     Harris-Foulkes estimate   =     -83.09864196 Ry
     estimated scf accuracy    <       0.00135939 Ry

     The total energy is the sum of the following terms:

     one-electron contribution =    -231.64078797 Ry
     hartree contribution      =     120.45691385 Ry
     xc contribution           =     -22.41396978 Ry
     ewald contribution        =      50.49985456 Ry
     electrostatic embedding   =      -0.15952609 Ry
     cavitation energy         =       0.02262354 Ry
     PV energy                 =      -0.01287875 Ry
     correction to one-el term =       3.73773266 Ry

     convergence has been achieved in   5 iterations

     Forces acting on atoms (cartesian axes, Ry/au):

     atom    1 type  1   force =     0.16853219    0.00000781    0.03834981
     atom    2 type  1   force =    -0.02438563    0.00000016   -0.05126663
     atom    3 type  3   force =    -0.11045097    0.00000107   -0.06976496
     atom    4 type  2   force =     0.02249232   -0.03267742    0.01473851
     atom    5 type  2   force =    -0.03753804   -0.00000835    0.01996975
     atom    6 type  2   force =     0.02249310    0.03267044    0.01473943
     atom    7 type  4   force =    -0.07361412    0.00000792   -0.02910452
     atom    8 type  2   force =     0.03247116   -0.00000163    0.06233861

     Total force =     0.258378     Total SCF correction =     0.058766
     SCF correction compared to forces is large: reduce conv_thr to get better values

     Writing output data file pwscf.save
 
     init_run     :     40.74s CPU     41.80s WALL (       1 calls)
     electrons    :     16.50s CPU     18.78s WALL (       1 calls)
     forces       :     11.56s CPU     11.65s WALL (       1 calls)

     Called by init_run:
     wfcinit      :      0.12s CPU      0.12s WALL (       1 calls)
     potinit      :      0.95s CPU      0.97s WALL (       1 calls)

     Called by electrons:
     c_bands      :      1.16s CPU      1.16s WALL (       5 calls)
     sum_band     :      3.39s CPU      3.61s WALL (       5 calls)
     v_of_rho     :      3.82s CPU      3.91s WALL (       6 calls)
     newd         :      1.76s CPU      1.95s WALL (       6 calls)
     mix_rho      :      0.38s CPU      0.37s WALL (       5 calls)

     Called by c_bands:
     init_us_2    :      0.04s CPU      0.04s WALL (      11 calls)
     regterg      :      1.08s CPU      1.09s WALL (       5 calls)

     Called by sum_band:
     sum_band:bec :      0.00s CPU      0.00s WALL (       5 calls)
     addusdens    :      2.60s CPU      2.81s WALL (       5 calls)

     Called by *egterg:
     h_psi        :      1.05s CPU      1.05s WALL (      22 calls)
     s_psi        :      0.02s CPU      0.03s WALL (      22 calls)
     g_psi        :      0.01s CPU      0.01s WALL (      16 calls)
     rdiaghg      :      0.00s CPU      0.01s WALL (      21 calls)

     Called by h_psi:
     h_psi:pot    :      1.04s CPU      1.05s WALL (      22 calls)
     h_psi:calbec :      0.03s CPU      0.03s WALL (      22 calls)
     vloc_psi     :      0.99s CPU      0.98s WALL (      22 calls)
     add_vuspsi   :      0.02s CPU      0.03s WALL (      22 calls)

     General routines
     calbec       :      0.06s CPU      0.06s WALL (      31 calls)
     fft          :      6.55s CPU      6.78s WALL (     229 calls)
     ffts         :      0.06s CPU      0.06s WALL (      11 calls)
     fftw         :      0.87s CPU      0.86s WALL (     238 calls)
     interpolate  :      0.44s CPU      0.45s WALL (      11 calls)
     davcio       :      0.00s CPU      0.00s WALL (       1 calls)
 
     Parallel routines
     fft_scatter  :      1.43s CPU      1.55s WALL (     478 calls)
 
     Environ routines
     calc_eelect  :      0.01s CPU      0.02s WALL (      10 calls)
     calc_velect  :      6.35s CPU      6.76s WALL (       8 calls)
     dielectric   :      0.13s CPU      0.13s WALL (       2 calls)
     calc_felect  :      0.31s CPU      0.32s WALL (       1 calls)
 
     PWSCF        :  1m 9.06s CPU     1m14.70s WALL

 
   This run was terminated on:  16:22:36  13Oct2017            

=------------------------------------------------------------------------------=
   JOB DONE.
=------------------------------------------------------------------------------=

%%%% IONS %%%%%%%%%%%%%%%%%%%%%%%%%%%%%%%%%%%%%%%%%%%%%%%%%%%%%%%%%%%%%%%%%%%%%%
 number of ions             =          8
 ionic center of charge     =      0.0082412     0.0000001     0.0199910
 total ionic charge         =    -23.0000000
 ionic dipole               =      0.0000000     0.0000000     0.0000000
 ionic quadrupole (pc)      =    -70.6147067    -5.4513517   -84.5532413
 ionic quadrupole (gauss)   =    -73.4897067    -8.3263517   -87.4282413
 ion   1 type =  1 coordinates =      0.0000000     0.0000000     0.0000000
 ion   2 type =  1 coordinates =      0.0000000     0.0000000     2.9101782
 ion   3 type =  3 coordinates =      2.3419379     0.0000000    -1.0900479
 ion   4 type =  2 coordinates =      0.9532347    -1.6509323     3.5841800
 ion   5 type =  2 coordinates =     -1.9063663    -0.0000596     3.5841809
 ion   6 type =  2 coordinates =      0.9531315     1.6509919     3.5841800
 ion   7 type =  4 coordinates =     -1.9680045    -0.0000375    -1.2826193
 ion   8 type =  2 coordinates =      3.8892907     0.0002681    -0.0514326

%%%% SYSTEM %%%%%%%%%%%%%%%%%%%%%%%%%%%%%%%%%%%%%%%%%%%%%%%%%%%%%%%%%%%%%%%%%%%%
 system is built from all present ionic types
 system defined dimension   =  0 
 system defined axis        =  3 
 system center              =      0.0082412     0.0000001     0.0199910 
 system width               =      0.4368498 

%%%% BOUNDARY %%%%%%%%%%%%%%%%%%%%%%%%%%%%%%%%%%%%%%%%%%%%%%%%%%%%%%%%%%%%%%%%%%
 boundary mode              = ionic                
 boundary is built from soft-spheres centered on ionic positions
 solvent-dependent scaling  =      0.9800000 
 softness parameter         =      0.5000000 

%%%% DIELECTRIC %%%%%%%%%%%%%%%%%%%%%%%%%%%%%%%%%%%%%%%%%%%%%%%%%%%%%%%%%%%%%%%%%
 dielectric build on homogeneous background
 environment bulk permitt.  =     78.3000000 
 dielectric flags
 need gradient              =  F 
 need factor depend. sqrt   =  T 
 need gradient of logarithm =  T 

%%%% ELECTRONS %%%%%%%%%%%%%%%%%%%%%%%%%%%%%%%%%%%%%%%%%%%%%%%%%%%%%%%%%%%%%%%%%
 number of electrons        =         24
 total electronic charge    =     24.0000000
 number of spin components  =  1

%%%% COMPUTE ELECTROSTATIC POTENTIAL %%%%%%%%%%%%%%%%%%%%%%%%%%%%%%%%%%%%%%%%%%%
 Iteration #          1
  pAp =    91.7205714601530       rzold =    91.2171098987245       alpha = 
  0.994510919923266     
 delta_qm =   0.846493E-02 delta_en =   0.123820E+03 tol =   0.100000E-03
 Iteration #          2
  pAp =    22.7662872513471       rzold =    2.93763050410640       alpha = 
  0.129034236969516     
 delta_qm =   0.271896E-02 delta_en =   0.127747E+02 tol =   0.100000E-03
 Iteration #          3
  pAp =   0.731698328579643       rzold =   0.149031803196036       alpha = 
  0.203679299753675     
 delta_qm =   0.983887E-03 delta_en =   0.167276E+01 tol =   0.100000E-03
 Iteration #          4
  pAp =   0.124253232581999       rzold =   1.828592594937975E-002  alpha = 
  0.147166601378457     
 delta_qm =   0.104734E-02 delta_en =   0.189549E+01 tol =   0.100000E-03
 Iteration #          5
  pAp =   1.784822017990193E-002  rzold =   4.121335899010654E-003  alpha = 
  0.230910189221640     
 delta_qm =   0.703090E-03 delta_en =   0.854211E+00 tol =   0.100000E-03
 Iteration #          6
  pAp =   3.101372462217451E-003  rzold =   1.426325513383893E-003  alpha = 
  0.459901392290072     
 delta_qm =   0.456578E-03 delta_en =   0.360224E+00 tol =   0.100000E-03
 Iteration #          7
  pAp =   5.257493797232263E-003  rzold =   1.293117319550881E-003  alpha = 
  0.245956984339501     
 delta_qm =   0.294827E-03 delta_en =   0.150203E+00 tol =   0.100000E-03
 Iteration #          8
  pAp =   9.560163033637663E-004  rzold =   4.114438220675585E-004  alpha = 
  0.430373227548404     
 delta_qm =   0.192033E-03 delta_en =   0.637229E-01 tol =   0.100000E-03
 Iteration #          9
  pAp =   3.952251099766248E-004  rzold =   1.948181243246373E-004  alpha = 
  0.492929521447055     
 delta_qm =   0.903465E-04 delta_en =   0.141048E-01 tol =   0.100000E-03
 Iteration #         10
  pAp =   2.343059072656820E-004  rzold =   6.905587112741190E-005  alpha = 
  0.294725267208516     
 delta_qm =   0.482920E-04 delta_en =   0.402990E-02 tol =   0.100000E-03
 Iteration #         11
  pAp =   3.441100119169750E-005  rzold =   1.314913926371674E-005  alpha = 
  0.382120217614863     
 delta_qm =   0.295584E-04 delta_en =   0.150975E-02 tol =   0.100000E-03
 Iteration #         12
  pAp =   4.162910349012343E-006  rzold =   2.071254497753498E-006  alpha = 
  0.497549628529691     
 delta_qm =   0.197025E-04 delta_en =   0.670792E-03 tol =   0.100000E-03
 Iteration #         13
  pAp =   1.598428577616322E-006  rzold =   9.643396220938237E-007  alpha = 
  0.603304792968547     
 delta_qm =   0.892646E-05 delta_en =   0.137690E-03 tol =   0.100000E-03
 Iteration #         14
  pAp =   1.896917815082700E-006  rzold =   5.192337482559385E-007  alpha = 
  0.273724957469125     
 delta_qm =   0.615463E-05 delta_en =   0.654558E-04 tol =   0.100000E-03
 Charges are converged, exit!

%%%% ELECTRONS %%%%%%%%%%%%%%%%%%%%%%%%%%%%%%%%%%%%%%%%%%%%%%%%%%%%%%%%%%%%%%%%%
 number of electrons        =         24
 total electronic charge    =     24.0000000
 number of spin components  =  1

%%%% COMPUTE ELECTROSTATIC POTENTIAL %%%%%%%%%%%%%%%%%%%%%%%%%%%%%%%%%%%%%%%%%%%
 Warning: bad guess with residual norm =   0.578397E+03, reset to no guess
 Iteration #          1
  pAp =    91.1652352363326       rzold =    90.6604778118636       alpha = 
  0.994463268556698     
 delta_qm =   0.889203E-02 delta_en =   0.136630E+03 tol =   0.100000E-03
 Iteration #          2
  pAp =    27.3613185746454       rzold =    3.36808708408436       alpha = 
  0.123096665641159     
 delta_qm =   0.207438E-02 delta_en =   0.743567E+01 tol =   0.100000E-03
 Iteration #          3
  pAp =   0.330972699864035       rzold =   6.644624786009837E-002  alpha = 
  0.200760509514515     
 delta_qm =   0.895413E-03 delta_en =   0.138545E+01 tol =   0.100000E-03
 Iteration #          4
  pAp =   7.995298831703292E-002  rzold =   1.188510927296476E-002  alpha = 
  0.148651220212526     
 delta_qm =   0.978139E-03 delta_en =   0.165327E+01 tol =   0.100000E-03
 Iteration #          5
  pAp =   8.740129411198233E-003  rzold =   2.511232211938862E-003  alpha = 
  0.287322085725797     
 delta_qm =   0.655645E-03 delta_en =   0.742816E+00 tol =   0.100000E-03
 Iteration #          6
  pAp =   4.391140554558115E-003  rzold =   1.559079476256914E-003  alpha = 
  0.355051143748644     
 delta_qm =   0.448358E-03 delta_en =   0.347371E+00 tol =   0.100000E-03
 Iteration #          7
  pAp =   4.297546994330824E-003  rzold =   1.279210893912173E-003  alpha = 
  0.297660711005526     
 delta_qm =   0.253327E-03 delta_en =   0.110894E+00 tol =   0.100000E-03
 Iteration #          8
  pAp =   7.330197230249918E-004  rzold =   3.295782291566779E-004  alpha = 
  0.449617136898568     
 delta_qm =   0.168128E-03 delta_en =   0.488452E-01 tol =   0.100000E-03
 Iteration #          9
  pAp =   3.202367135256617E-004  rzold =   1.500257566475981E-004  alpha = 
  0.468483938009113     
 delta_qm =   0.638082E-04 delta_en =   0.703552E-02 tol =   0.100000E-03
 Iteration #         10
  pAp =   1.481816560325493E-004  rzold =   4.183994963526474E-005  alpha = 
  0.282355797306478     
 delta_qm =   0.421718E-04 delta_en =   0.307319E-02 tol =   0.100000E-03
 Iteration #         11
  pAp =   1.714545854103886E-005  rzold =   6.456619449548631E-006  alpha = 
  0.376578989362942     
 delta_qm =   0.291985E-04 delta_en =   0.147321E-02 tol =   0.100000E-03
 Iteration #         12
  pAp =   2.875101623645859E-006  rzold =   1.653903593716900E-006  alpha = 
  0.575250481622844     
 delta_qm =   0.156124E-04 delta_en =   0.421197E-03 tol =   0.100000E-03
 Iteration #         13
  pAp =   2.101594472131507E-006  rzold =   9.926558268323618E-007  alpha = 
  0.472334620211281     
 delta_qm =   0.830988E-05 delta_en =   0.119326E-03 tol =   0.100000E-03
 Iteration #         14
  pAp =   9.030187733220316E-007  rzold =   3.281841558292937E-007  alpha = 
  0.363430047663314     
 delta_qm =   0.486087E-05 delta_en =   0.408293E-04 tol =   0.100000E-03
 Charges are converged, exit!

%%%% ELECTRONS %%%%%%%%%%%%%%%%%%%%%%%%%%%%%%%%%%%%%%%%%%%%%%%%%%%%%%%%%%%%%%%%%
 number of electrons        =         24
 total electronic charge    =     24.0000000
 number of spin components  =  1

%%%% COMPUTE ELECTROSTATIC POTENTIAL %%%%%%%%%%%%%%%%%%%%%%%%%%%%%%%%%%%%%%%%%%%
 Warning: bad guess with residual norm =   0.400380E+03, reset to no guess
 Iteration #          1
  pAp =    91.8768559735747       rzold =    91.1046061388100       alpha = 
  0.991594729417092     
 delta_qm =   0.110612E-01 delta_en =   0.211421E+03 tol =   0.100000E-03
 Iteration #          2
  pAp =    42.4442509622400       rzold =    5.20926269312345       alpha = 
  0.122731879466027     
 delta_qm =   0.210000E-02 delta_en =   0.762051E+01 tol =   0.100000E-03
 Iteration #          3
  pAp =   0.436317478831805       rzold =   8.962718346078802E-002  alpha = 
  0.205417357335204     
 delta_qm =   0.116928E-02 delta_en =   0.236255E+01 tol =   0.100000E-03
 Iteration #          4
  pAp =   4.472654807169444E-002  rzold =   8.397583849949718E-003  alpha = 
  0.187753900356647     
 delta_qm =   0.784315E-03 delta_en =   0.106298E+01 tol =   0.100000E-03
 Iteration #          5
  pAp =   1.069650394838406E-002  rzold =   2.700265593778991E-003  alpha = 
  0.252443752352087     
 delta_qm =   0.739559E-03 delta_en =   0.945127E+00 tol =   0.100000E-03
 Iteration #          6
  pAp =   5.050682315429634E-003  rzold =   1.593849871691633E-003  alpha = 
  0.315571198533411     
 delta_qm =   0.422047E-03 delta_en =   0.307798E+00 tol =   0.100000E-03
 Iteration #          7
  pAp =   5.086638623910378E-003  rzold =   1.440556432510940E-003  alpha = 
  0.283204005438764     
 delta_qm =   0.270223E-03 delta_en =   0.126179E+00 tol =   0.100000E-03
 Iteration #          8
  pAp =   7.757671421522764E-004  rzold =   3.569924301791539E-004  alpha = 
  0.460179879736488     
 delta_qm =   0.171288E-03 delta_en =   0.506988E-01 tol =   0.100000E-03
 Iteration #          9
  pAp =   2.903381893286865E-004  rzold =   1.408739691134713E-004  alpha = 
  0.485206474006044     
 delta_qm =   0.662339E-04 delta_en =   0.758062E-02 tol =   0.100000E-03
 Iteration #         10
  pAp =   1.424962481706221E-004  rzold =   4.292939234744409E-005  alpha = 
  0.301266825608218     
 delta_qm =   0.423619E-04 delta_en =   0.310095E-02 tol =   0.100000E-03
 Iteration #         11
  pAp =   2.295443809970324E-005  rzold =   7.545368503474187E-006  alpha = 
  0.328710660252308     
 delta_qm =   0.300503E-04 delta_en =   0.156042E-02 tol =   0.100000E-03
 Iteration #         12
  pAp =   2.948520591861221E-006  rzold =   1.682278843723624E-006  alpha = 
  0.570550142456934     
 delta_qm =   0.164599E-04 delta_en =   0.468163E-03 tol =   0.100000E-03
 Iteration #         13
  pAp =   2.171769223248625E-006  rzold =   1.034767522331068E-006  alpha = 
  0.476462927669275     
 delta_qm =   0.870454E-05 delta_en =   0.130929E-03 tol =   0.100000E-03
 Iteration #         14
  pAp =   8.927244596472500E-007  rzold =   3.546853162700056E-007  alpha = 
  0.397306596046618     
 delta_qm =   0.472500E-05 delta_en =   0.385787E-04 tol =   0.100000E-03
 Charges are converged, exit!

%%%% ELECTRONS %%%%%%%%%%%%%%%%%%%%%%%%%%%%%%%%%%%%%%%%%%%%%%%%%%%%%%%%%%%%%%%%%
 number of electrons        =         24
 total electronic charge    =     24.0000000
 number of spin components  =  1

%%%% COMPUTE ELECTROSTATIC POTENTIAL %%%%%%%%%%%%%%%%%%%%%%%%%%%%%%%%%%%%%%%%%%%
 Warning: bad guess with residual norm =   0.431155E+03, reset to no guess
 Iteration #          1
  pAp =    92.4191346541399       rzold =    91.5335758004776       alpha = 
  0.990418014007853     
 delta_qm =   0.118567E-01 delta_en =   0.242923E+03 tol =   0.100000E-03
 Iteration #          2
  pAp =    48.3939170259472       rzold =    5.95404234501139       alpha = 
  0.123032866750981     
 delta_qm =   0.214414E-02 delta_en =   0.794416E+01 tol =   0.100000E-03
 Iteration #          3
  pAp =   0.540639484152641       rzold =   0.105323185457155       alpha = 
  0.194812233557508     
 delta_qm =   0.132211E-02 delta_en =   0.302051E+01 tol =   0.100000E-03
 Iteration #          4
  pAp =   9.195677097271714E-002  rzold =   1.392896796041447E-002  alpha = 
  0.151472999900650     
 delta_qm =   0.814104E-03 delta_en =   0.114526E+01 tol =   0.100000E-03
 Iteration #          5
  pAp =   1.264589388157028E-002  rzold =   3.258973917077810E-003  alpha = 
  0.257710047830414     
 delta_qm =   0.749947E-03 delta_en =   0.971862E+00 tol =   0.100000E-03
 Iteration #          6
  pAp =   4.738034091251054E-003  rzold =   1.591883135679916E-003  alpha = 
  0.335979671108611     
 delta_qm =   0.480299E-03 delta_en =   0.398627E+00 tol =   0.100000E-03
 Iteration #          7
  pAp =   4.179758278428127E-003  rzold =   1.400810699856009E-003  alpha = 
  0.335141557607683     
 delta_qm =   0.278776E-03 delta_en =   0.134294E+00 tol =   0.100000E-03
 Iteration #          8
  pAp =   8.627660979093274E-004  rzold =   3.884127961751146E-004  alpha = 
  0.450194782938649     
 delta_qm =   0.177752E-03 delta_en =   0.545973E-01 tol =   0.100000E-03
 Iteration #          9
  pAp =   3.009544551077882E-004  rzold =   1.449481670152598E-004  alpha = 
  0.481628248245556     
 delta_qm =   0.708445E-04 delta_en =   0.867274E-02 tol =   0.100000E-03
 Iteration #         10
  pAp =   1.560543915689578E-004  rzold =   4.841119723991718E-005  alpha = 
  0.310220024910514     
 delta_qm =   0.430806E-04 delta_en =   0.320706E-02 tol =   0.100000E-03
 Iteration #         11
  pAp =   2.661803195082444E-005  rzold =   8.609178006142788E-006  alpha = 
  0.323434054856040     
 delta_qm =   0.305089E-04 delta_en =   0.160841E-02 tol =   0.100000E-03
 Iteration #         12
  pAp =   3.193459815237319E-006  rzold =   1.744492999149663E-006  alpha = 
  0.546270534179251     
 delta_qm =   0.173600E-04 delta_en =   0.520765E-03 tol =   0.100000E-03
 Iteration #         13
  pAp =   2.219638271258960E-006  rzold =   1.075415719928856E-006  alpha = 
  0.484500440388825     
 delta_qm =   0.910235E-05 delta_en =   0.143170E-03 tol =   0.100000E-03
 Iteration #         14
  pAp =   9.326054557863306E-007  rzold =   3.864279828463020E-007  alpha = 
  0.414353122693758     
 delta_qm =   0.479862E-05 delta_en =   0.397902E-04 tol =   0.100000E-03
 Charges are converged, exit!

%%%% ELECTRONS %%%%%%%%%%%%%%%%%%%%%%%%%%%%%%%%%%%%%%%%%%%%%%%%%%%%%%%%%%%%%%%%%
 number of electrons        =         24
 total electronic charge    =     24.0000000
 number of spin components  =  1
