
     Program PWSCF v.6.7MaX starts on 22Jan2021 at 12:57:43 

     This program is part of the open-source Quantum ESPRESSO suite
     for quantum simulation of materials; please cite
         "P. Giannozzi et al., J. Phys.:Condens. Matter 21 395502 (2009);
         "P. Giannozzi et al., J. Phys.:Condens. Matter 29 465901 (2017);
          URL http://www.quantum-espresso.org", 
     in publications or presentations arising from this work. More details at
     http://www.quantum-espresso.org/quote

     Parallel version (MPI), running on     1 processors

     MPI processes distributed on     1 nodes
     Reading input from anion.in

     Current dimensions of program PWSCF are:
     Max number of different atomic species (ntypx) = 10
     Max number of k-points (npk) =  40000
     Max angular momentum in pseudopotentials (lmaxx) =  3
     file C.pbe-rrkjus.UPF: wavefunction(s)  2S 2P renormalized
     file H.pbe-rrkjus.UPF: wavefunction(s)  1S renormalized

     gamma-point specific algorithms are used

     Subspace diagonalization in iterative solution of the eigenvalue problem:
     a serial algorithm will be used


     G-vector sticks info
     --------------------
     sticks:   dense  smooth     PW     G-vecs:    dense   smooth      PW
     Sum        9549    3809    949               701475   177509   22119



     bravais-lattice index     =            1
     lattice parameter (alat)  =      20.0000  a.u.
     unit-cell volume          =    8000.0000 (a.u.)^3
     number of atoms/cell      =            4
     number of atomic types    =            2
     number of electrons       =         8.00
     number of Kohn-Sham states=            4
     kinetic-energy cutoff     =      30.0000  Ry
     charge density cutoff     =     300.0000  Ry
     scf convergence threshold =      1.0E-03
     mixing beta               =       0.7000
     number of iterations used =            8  plain     mixing
     Exchange-correlation= SLA  PW   PBE  PBE
                           (   1   4   3   4   0   0   0)


     Environ Module
     ==============

     Plese cite
         O. Andreussi, I. Dabo and N. Marzari, J. Chem. Phys. 136, 064102 (2012)         
     in publications or presentations arising from this work.

     compensation onset threshold      =               0.1000E+03 
     static permittivity               =                    78.30 
     epsilon calculation mode          =                    ionic 
     surface tension in input (dyn/cm) =                    50.00 
     surface tension in internal units =               0.6423E-04 
     external pressure in input (GPa)  =                    -0.35 
     external pressure in inter. units =              -0.2379E-04 

     Electrostatic Setup
     -------------------
     electrostatic problem to solve    = generalized              
     numerical solver adopted          = cg                       
     type of auxiliary density adopted = none                     
     type of core tool for poisson     = fft                      



     celldm(1)=  20.000000  celldm(2)=   0.000000  celldm(3)=   0.000000
     celldm(4)=   0.000000  celldm(5)=   0.000000  celldm(6)=   0.000000

     crystal axes: (cart. coord. in units of alat)
               a(1) = (   1.000000   0.000000   0.000000 )  
               a(2) = (   0.000000   1.000000   0.000000 )  
               a(3) = (   0.000000   0.000000   1.000000 )  

     reciprocal axes: (cart. coord. in units 2 pi/alat)
               b(1) = (  1.000000  0.000000  0.000000 )  
               b(2) = (  0.000000  1.000000  0.000000 )  
               b(3) = (  0.000000  0.000000  1.000000 )  


     PseudoPot. # 1 for C  read from file:
     /Users/gabrielmedrano/Desktop/q-e/Environ/tests/../..//pseudo/C.pbe-rrkjus.UPF
     MD5 check sum: c9ac5a99bc85b198593446162950cd17
     Pseudo is Ultrasoft, Zval =  4.0
     Generated by new atomic code, or converted to UPF format
     Using radial grid of  627 points,  4 beta functions with: 
                l(1) =   0
                l(2) =   0
                l(3) =   1
                l(4) =   1
     Q(r) pseudized with 0 coefficients 


     PseudoPot. # 2 for H  read from file:
     /Users/gabrielmedrano/Desktop/q-e/Environ/tests/../..//pseudo/H.pbe-rrkjus.UPF
     MD5 check sum: 2d52a7f45632fd764c17cc6affed14c8
     Pseudo is Ultrasoft, Zval =  1.0
     Generated by new atomic code, or converted to UPF format
     Using radial grid of 1061 points,  2 beta functions with: 
                l(1) =   0
                l(2) =   0
     Q(r) pseudized with 0 coefficients 


     atomic species   valence    mass     pseudopotential
        C              4.00    12.00000     C ( 1.00)
        H              1.00     1.00000     H ( 1.00)

      2 Sym. Ops. (no inversion) found



   Cartesian axes

     site n.     atom                  positions (alat units)
         1           C   tau(   1) = (   0.0000000   0.0000000   0.0297065  )
         2           H   tau(   2) = (  -0.0000000   0.0981713  -0.0066140  )
         3           H   tau(   3) = (   0.0850377  -0.0491140  -0.0066140  )
         4           H   tau(   4) = (  -0.0850377  -0.0491140  -0.0066140  )

     number of k points=     1
                       cart. coord. in units 2pi/alat
        k(    1) = (   0.0000000   0.0000000   0.0000000), wk =   2.0000000

     Dense  grid:   350738 G-vectors     FFT dimensions: ( 120, 120, 120)

     Smooth grid:    88755 G-vectors     FFT dimensions: (  72,  72,  72)

     Estimated max dynamical RAM per process >     547.31 MB

     Initial potential from superposition of free atoms

     starting charge    6.71133, renormalised to    8.00000

     negative rho (up, down):  8.422E-04 0.000E+00
     Starting wfcs are    7 randomized atomic wfcs

     total cpu time spent up to now is        8.7 secs

     Self-consistent Calculation

     iteration #  1     ecut=    30.00 Ry     beta= 0.70
     Davidson diagonalization with overlap
     ethr =  1.00E-02,  avg # of iterations =  2.0

     negative rho (up, down):  2.413E-04 0.000E+00

     add environment contribution to local potential
     polarization accuracy = 7.1E-06, # of iterations =  11

     total cpu time spent up to now is       12.2 secs

     total energy              =     -14.75865252 Ry
     estimated scf accuracy    <       0.70384899 Ry
     electrostatic embedding   =       0.00000000 Ry
     cavitation energy         =       0.01309546 Ry
     PV energy                 =      -0.00631465 Ry
     correction to one-el term =      -0.00000000 Ry

     iteration #  2     ecut=    30.00 Ry     beta= 0.70
     Davidson diagonalization with overlap
     ethr =  8.80E-03,  avg # of iterations =  2.0

     negative rho (up, down):  9.701E-05 0.000E+00

     add environment contribution to local potential
     polarization accuracy = 8.0E-06, # of iterations =  11

     total cpu time spent up to now is       15.9 secs

     total energy              =     -15.01225919 Ry
     estimated scf accuracy    <       0.13702649 Ry
     electrostatic embedding   =      -0.09208153 Ry
     cavitation energy         =       0.01309546 Ry
     PV energy                 =      -0.00631465 Ry
     correction to one-el term =       1.54813224 Ry

     iteration #  3     ecut=    30.00 Ry     beta= 0.70
     Davidson diagonalization with overlap
     ethr =  1.71E-03,  avg # of iterations =  2.0

     negative rho (up, down):  2.499E-05 0.000E+00

     add environment contribution to local potential
     polarization accuracy = 7.6E-06, # of iterations =  11

     total cpu time spent up to now is       19.4 secs

     total energy              =     -15.04489661 Ry
     estimated scf accuracy    <       0.00993598 Ry
     electrostatic embedding   =      -0.10840962 Ry
     cavitation energy         =       0.01309546 Ry
     PV energy                 =      -0.00631465 Ry
     correction to one-el term =       1.70212836 Ry

     iteration #  4     ecut=    30.00 Ry     beta= 0.70
     Davidson diagonalization with overlap
     ethr =  1.24E-04,  avg # of iterations =  2.0

     negative rho (up, down):  4.260E-04 0.000E+00

     add environment contribution to local potential
     polarization accuracy = 7.1E-06, # of iterations =  11

     total cpu time spent up to now is       22.9 secs

     total energy              =     -15.05012643 Ry
     estimated scf accuracy    <       0.00107740 Ry
     electrostatic embedding   =      -0.13719923 Ry
     cavitation energy         =       0.01309546 Ry
     PV energy                 =      -0.00631465 Ry
     correction to one-el term =       1.94196629 Ry

     iteration #  5     ecut=    30.00 Ry     beta= 0.70
     Davidson diagonalization with overlap
     ethr =  1.35E-05,  avg # of iterations =  3.0

     negative rho (up, down):  1.976E-05 0.000E+00

     the potential shift due to the Gaussian-smeared nuclei is    -0.0187 ev

     total cpu time spent up to now is       24.4 secs

     End of self-consistent calculation

          k = 0.0000 0.0000 0.0000 ( 11060 PWs)   bands (ev):

   -14.8261  -8.0666  -8.0648  -3.8062

     highest occupied level (ev):    -3.8062

!    total energy              =     -15.05107006 Ry
     estimated scf accuracy    <       0.00055699 Ry

     The total energy is the sum of the following terms:
     one-electron contribution =     -37.11820921 Ry
     hartree contribution      =      19.78015963 Ry
     xc contribution           =      -5.93454920 Ry
     ewald contribution        =       6.32058455 Ry
     electrostatic embedding   =      -0.15540478 Ry
     cavitation energy         =       0.01309546 Ry
     PV energy                 =      -0.00631465 Ry
     correction to one-el term =       2.04956813 Ry

     convergence has been achieved in   5 iterations
 forces lc
       1    0.0000   -0.0000   -0.2344
       2    0.0000    0.0431   -0.0394
       3    0.0374   -0.0216   -0.0393
       4   -0.0374   -0.0216   -0.0393

     Forces acting on atoms (cartesian axes, Ry/au):

     atom    1 type  1   force =     0.00000000   -0.00033730    0.00536451
     atom    2 type  2   force =     0.00000000    0.00210025   -0.00187425
     atom    3 type  2   force =     0.00157499   -0.00088147   -0.00174513
     atom    4 type  2   force =    -0.00157499   -0.00088147   -0.00174513

     Total force =     0.007030     Total SCF correction =     0.006946
     SCF correction compared to forces is large: reduce conv_thr to get better values

     Writing output data file /Users/gabrielmedrano/Desktop/q-e/Environ/tests/../..//tempdir/pwscf.save/

     init_run     :      8.12s CPU      8.72s WALL (       1 calls)
     electrons    :     15.42s CPU     15.73s WALL (       1 calls)
     forces       :      3.08s CPU      3.21s WALL (       1 calls)

     Called by init_run:
     wfcinit      :      0.04s CPU      0.05s WALL (       1 calls)
     potinit      :      0.89s CPU      0.96s WALL (       1 calls)
     hinit0       :      6.73s CPU      7.13s WALL (       1 calls)

     Called by electrons:
     c_bands      :      0.31s CPU      0.32s WALL (       5 calls)
     sum_band     :      2.61s CPU      1.69s WALL (       5 calls)
     v_of_rho     :      3.14s CPU      3.63s WALL (       6 calls)
     newd         :      1.11s CPU      1.42s WALL (       6 calls)
     mix_rho      :      0.32s CPU      0.37s WALL (       5 calls)

     Called by c_bands:
     init_us_2    :      0.02s CPU      0.02s WALL (      11 calls)
     regterg      :      0.29s CPU      0.30s WALL (       5 calls)

     Called by *egterg:
     rdiaghg      :      0.00s CPU      0.00s WALL (      16 calls)
     h_psi        :      0.29s CPU      0.30s WALL (      17 calls)
     s_psi        :      0.01s CPU      0.00s WALL (      17 calls)
     g_psi        :      0.00s CPU      0.00s WALL (      11 calls)

     Called by h_psi:
     h_psi:calbec :      0.00s CPU      0.00s WALL (      17 calls)
     vloc_psi     :      0.26s CPU      0.26s WALL (      17 calls)
     add_vuspsi   :      0.02s CPU      0.03s WALL (      17 calls)

     General routines
     calbec       :      0.01s CPU      0.01s WALL (      26 calls)
     fft          :      7.23s CPU      7.52s WALL (     193 calls)
     ffts         :      0.05s CPU      0.05s WALL (      11 calls)
     fftw         :      0.24s CPU      0.24s WALL (      78 calls)
     interpolate  :      0.27s CPU      0.30s WALL (       6 calls)

     Parallel routines
     fft_scatt_xy :      0.55s CPU      0.55s WALL (     125 calls)
     fft_scatt_yz :      0.72s CPU      0.72s WALL (     125 calls)

     Environ routines
     calc_eelect  :      0.02s CPU      0.02s WALL (      10 calls)
     calc_velect  :      6.33s CPU      6.68s WALL (       8 calls)
     dielectric   :      0.10s CPU      0.11s WALL (       2 calls)
     calc_felect  :      0.18s CPU      0.19s WALL (       1 calls)

     PWSCF        :     26.66s CPU     27.78s WALL


   This run was terminated on:  12:58:11  22Jan2021            

=------------------------------------------------------------------------------=
   JOB DONE.
=------------------------------------------------------------------------------=
 Calling electrostatic_initbase now
 electrolyte_distance:    0.0000000000000000     
 sc_distance:    0.0000000000000000     
 velectrostatic started
 vreference created

%%%% IONS %%%%%%%%%%%%%%%%%%%%%%%%%%%%%%%%%%%%%%%%%%%%%%%%%%%%%%%%%%%%%%%%%%%%%%
 number of ions             =          4
 ionic center of charge     =     -0.0000000    -0.0000081     0.0141406
 total ionic charge         =     -7.0000000
 ionic dipole               =      0.0000000     0.0000000     0.0000000
 ionic quadrupole (pc)      =     -5.7851250    -5.7847859    -0.9045815
 ionic quadrupole (gauss)   =     -6.6601250    -6.6597859    -1.7795815
 ion   1 type =  1 coordinates =      0.0000000     0.0000000     0.5941299
 ion   2 type =  2 coordinates =     -0.0000000     1.9634254    -0.1322808
 ion   3 type =  2 coordinates =      1.7007535    -0.9822796    -0.1322808
 ion   4 type =  2 coordinates =     -1.7007535    -0.9822796    -0.1322808

%%%% SYSTEM %%%%%%%%%%%%%%%%%%%%%%%%%%%%%%%%%%%%%%%%%%%%%%%%%%%%%%%%%%%%%%%%%%%%
 system is built from all present ionic types
 system defined dimension   =  0 
 system defined axis        =  3 
 system center              =     -0.0000000    -0.0000081     0.0141406 
 system width               =      0.1003671 

%%%% IONS %%%%%%%%%%%%%%%%%%%%%%%%%%%%%%%%%%%%%%%%%%%%%%%%%%%%%%%%%%%%%%%%%%%%%%
 number of ions             =          4
 ionic center of charge     =     -0.0000000    -0.0000081     0.0141406
 total ionic charge         =     -7.0000000
 ionic dipole               =      0.0000000     0.0000000     0.0000000
 ionic quadrupole (pc)      =     -5.7851250    -5.7847859    -0.9045815
 ionic quadrupole (gauss)   =     -6.6601250    -6.6597859    -1.7795815
 ion   1 type =  1 coordinates =      0.0000000     0.0000000     0.5941299
 ion   2 type =  2 coordinates =     -0.0000000     1.9634254    -0.1322808
 ion   3 type =  2 coordinates =      1.7007535    -0.9822796    -0.1322808
 ion   4 type =  2 coordinates =     -1.7007535    -0.9822796    -0.1322808

%%%% SYSTEM %%%%%%%%%%%%%%%%%%%%%%%%%%%%%%%%%%%%%%%%%%%%%%%%%%%%%%%%%%%%%%%%%%%%
 system is built from all present ionic types
 system defined dimension   =  0 
 system defined axis        =  3 
 system center              =     -0.0000000    -0.0000081     0.0141406 
 system width               =      0.1003671 

%%%% BOUNDARY %%%%%%%%%%%%%%%%%%%%%%%%%%%%%%%%%%%%%%%%%%%%%%%%%%%%%%%%%%%%%%%%%%
 boundary label             = solvent              
 boundary mode              = ionic                
 boundary is built from soft-spheres centered on ionic positions
 solvent-dependent scaling  =      0.9800000 
 softness parameter         =      0.5000000 
 volume of the QM region    =    265.4048355 
 surface of the QM region   =    203.8822466 

%%%% DIELECTRIC %%%%%%%%%%%%%%%%%%%%%%%%%%%%%%%%%%%%%%%%%%%%%%%%%%%%%%%%%%%%%%%%%
 dielectric build on homogeneous background
 environment bulk permitt.  =     78.3000000 
 dielectric flags
 need gradient              =  F 
 need factor depend. sqrt   =  T 
 total dielectric charge    =      0.0000000

%%%% ELECTRONS %%%%%%%%%%%%%%%%%%%%%%%%%%%%%%%%%%%%%%%%%%%%%%%%%%%%%%%%%%%%%%%%%
 number of electrons        =          8
 total electronic charge    =      8.0000000

%%%% ELECTRONS %%%%%%%%%%%%%%%%%%%%%%%%%%%%%%%%%%%%%%%%%%%%%%%%%%%%%%%%%%%%%%%%%
 number of electrons        =          8
 total electronic charge    =      8.0000000

%%%% DENSITY %%%%%%%%%%%%%%%%%%%%%%%%%%%%%%%%%%%%%%%%%%%%%%%%%%%%%%%%%%%%%%%%%%%
 density label              = dvtot                                                                           
 integral of density        =      0.000000000    

%%%% DENSITY %%%%%%%%%%%%%%%%%%%%%%%%%%%%%%%%%%%%%%%%%%%%%%%%%%%%%%%%%%%%%%%%%%%
 density label              = vreference                                                                      
 integral of density        =      0.000000000    

%%%% DENSITY %%%%%%%%%%%%%%%%%%%%%%%%%%%%%%%%%%%%%%%%%%%%%%%%%%%%%%%%%%%%%%%%%%%
 density label              = velectrostatic                                                                  
 integral of density        =      0.000000000    

%%%% CHARGES %%%%%%%%%%%%%%%%%%%%%%%%%%%%%%%%%%%%%%%%%%%%%%%%%%%%%%%%%%%%%%%%%%%
 total number of charges    =         12
 total charge               =      1.0000000

%%%% ELECTRONS %%%%%%%%%%%%%%%%%%%%%%%%%%%%%%%%%%%%%%%%%%%%%%%%%%%%%%%%%%%%%%%%%
 number of electrons        =          8
 total electronic charge    =      8.0000000

%%%% ELECTRONS %%%%%%%%%%%%%%%%%%%%%%%%%%%%%%%%%%%%%%%%%%%%%%%%%%%%%%%%%%%%%%%%%
 number of electrons        =          8
 total electronic charge    =      8.0000000

%%%% DENSITY %%%%%%%%%%%%%%%%%%%%%%%%%%%%%%%%%%%%%%%%%%%%%%%%%%%%%%%%%%%%%%%%%%%
 density label              = vreference                                                                      
 integral of density        =     0.2681599798E-12

%%%% COMPUTE ELECTROSTATIC POTENTIAL %%%%%%%%%%%%%%%%%%%%%%%%%%%%%%%%%%%%%%%%%%%
 Iteration #          1
  pAp =    20.659029570154196       rzold =    20.313035720695051       alpha =   0.98325217318247138     
 delta_qm =   0.720291E-02 delta_en =   0.896520E+02 tol =   0.100000E-04
 Iteration #          2
  pAp =    18.524814232449913       rzold =    2.1304632198284659       alpha =   0.11500591547614733     
 delta_qm =   0.234836E-02 delta_en =   0.952953E+01 tol =   0.100000E-04
 Iteration #          3
  pAp =    1.0934516419962910       rzold =   0.19562978952765561       alpha =   0.17891032581056676     
 delta_qm =   0.779747E-03 delta_en =   0.105063E+01 tol =   0.100000E-04
 Iteration #          4
  pAp =    4.1786868289411139E-002  rzold =    8.9041118602039282E-003  alpha =   0.21308397170458082     
 delta_qm =   0.433185E-03 delta_en =   0.324258E+00 tol =   0.100000E-04
 Iteration #          5
  pAp =    7.5805261393160678E-004  rzold =    4.8500591734539165E-004  alpha =   0.63980508533560698     
 delta_qm =   0.242274E-03 delta_en =   0.101428E+00 tol =   0.100000E-04
 Iteration #          6
  pAp =    3.6860915173457905E-004  rzold =    2.0292382783124098E-004  alpha =   0.55051218038492555     
 delta_qm =   0.142581E-03 delta_en =   0.351292E-01 tol =   0.100000E-04
 Iteration #          7
  pAp =    5.1422979721549673E-005  rzold =    4.6818460083239618E-005  alpha =   0.91045793800275532     
 delta_qm =   0.513926E-04 delta_en =   0.456399E-02 tol =   0.100000E-04
 Iteration #          8
  pAp =    5.7206663256142995E-005  rzold =    1.8897731620747149E-005  alpha =   0.33034144180254849     
 delta_qm =   0.265760E-04 delta_en =   0.122046E-02 tol =   0.100000E-04
 Iteration #          9
  pAp =    3.3357698652221158E-005  rzold =    8.8461368449174334E-006  alpha =   0.26519026198854412     
 delta_qm =   0.106159E-04 delta_en =   0.194739E-03 tol =   0.100000E-04
 Iteration #         10
  pAp =    6.0066994284173374E-007  rzold =    2.9806288614130918E-007  alpha =   0.49621741472728170     
 delta_qm =   0.546058E-05 delta_en =   0.515254E-04 tol =   0.100000E-04
 Iteration #         11
  pAp =    7.9128599737628697E-008  rzold =    5.5406954907498573E-008  alpha =   0.70021401985141452     
 delta_qm =   0.202953E-05 delta_en =   0.711759E-05 tol =   0.100000E-04
 Charges are converged, EXIT

%%%% DENSITY %%%%%%%%%%%%%%%%%%%%%%%%%%%%%%%%%%%%%%%%%%%%%%%%%%%%%%%%%%%%%%%%%%%
 density label              = velectrostatic                                                                  
 integral of density        =     0.1080142149E-11

%%%% CHARGES %%%%%%%%%%%%%%%%%%%%%%%%%%%%%%%%%%%%%%%%%%%%%%%%%%%%%%%%%%%%%%%%%%%
 total number of charges    =         12
 total charge               =      1.0000000

%%%% DENSITY %%%%%%%%%%%%%%%%%%%%%%%%%%%%%%%%%%%%%%%%%%%%%%%%%%%%%%%%%%%%%%%%%%%
 density label              = dvtot                                                                           
 integral of density        =    -0.1127673058E-11

%%%% ELECTRONS %%%%%%%%%%%%%%%%%%%%%%%%%%%%%%%%%%%%%%%%%%%%%%%%%%%%%%%%%%%%%%%%%
 number of electrons        =          8
 total electronic charge    =      8.0000000

%%%% ELECTRONS %%%%%%%%%%%%%%%%%%%%%%%%%%%%%%%%%%%%%%%%%%%%%%%%%%%%%%%%%%%%%%%%%
 number of electrons        =          8
 total electronic charge    =      8.0000000

%%%% DENSITY %%%%%%%%%%%%%%%%%%%%%%%%%%%%%%%%%%%%%%%%%%%%%%%%%%%%%%%%%%%%%%%%%%%
 density label              = vreference                                                                      
 integral of density        =    -0.3281406011E-11

%%%% COMPUTE ELECTROSTATIC POTENTIAL %%%%%%%%%%%%%%%%%%%%%%%%%%%%%%%%%%%%%%%%%%%
 Warning: bad guess with residual norm =   0.700407E+02, reset to no guess
 Iteration #          1
  pAp =    21.770916857124600       rzold =    21.521872975395482       alpha =   0.98856070769258308     
 delta_qm =   0.629859E-02 delta_en =   0.685535E+02 tol =   0.100000E-04
 Iteration #          2
  pAp =    13.380293119382785       rzold =    1.5476285475440581       alpha =   0.11566477159623302     
 delta_qm =   0.198467E-02 delta_en =   0.680646E+01 tol =   0.100000E-04
 Iteration #          3
  pAp =   0.82690134013239125       rzold =   0.14263460638857739       alpha =   0.17249289542297855     
 delta_qm =   0.758066E-03 delta_en =   0.993019E+00 tol =   0.100000E-04
 Iteration #          4
  pAp =    2.8926801489434908E-002  rzold =    6.3098455480200041E-003  alpha =   0.21813146366440075     
 delta_qm =   0.478928E-03 delta_en =   0.396355E+00 tol =   0.100000E-04
 Iteration #          5
  pAp =    5.0091899252378478E-004  rzold =    4.2215831982421329E-004  alpha =   0.84276764531775716     
 delta_qm =   0.227397E-03 delta_en =   0.893540E-01 tol =   0.100000E-04
 Iteration #          6
  pAp =    3.5680187666774574E-004  rzold =    1.9642344799104944E-004  alpha =   0.55051125242247290     
 delta_qm =   0.131759E-03 delta_en =   0.299987E-01 tol =   0.100000E-04
 Iteration #          7
  pAp =    7.0597478440579691E-005  rzold =    5.5721655649511026E-005  alpha =   0.78928676888099747     
 delta_qm =   0.389725E-04 delta_en =   0.262458E-02 tol =   0.100000E-04
 Iteration #          8
  pAp =    4.9798524566455282E-005  rzold =    1.4743497408966881E-005  alpha =   0.29606293634848430     
 delta_qm =   0.207850E-04 delta_en =   0.746525E-03 tol =   0.100000E-04
 Iteration #          9
  pAp =    2.0316462310049590E-005  rzold =    5.0838402754902390E-006  alpha =   0.25023255515186343     
 delta_qm =   0.114620E-04 delta_en =   0.227019E-03 tol =   0.100000E-04
 Iteration #         10
  pAp =    3.4606718601459198E-007  rzold =    2.2780297423521046E-007  alpha =   0.65826227808147375     
 delta_qm =   0.520155E-05 delta_en =   0.467530E-04 tol =   0.100000E-04
 Iteration #         11
  pAp =    7.7964070033601703E-008  rzold =    5.5657020319505579E-008  alpha =   0.71388038484288963     
 delta_qm =   0.215051E-05 delta_en =   0.799144E-05 tol =   0.100000E-04
 Charges are converged, EXIT

%%%% DENSITY %%%%%%%%%%%%%%%%%%%%%%%%%%%%%%%%%%%%%%%%%%%%%%%%%%%%%%%%%%%%%%%%%%%
 density label              = velectrostatic                                                                  
 integral of density        =    -0.6164204949E-12

%%%% CHARGES %%%%%%%%%%%%%%%%%%%%%%%%%%%%%%%%%%%%%%%%%%%%%%%%%%%%%%%%%%%%%%%%%%%
 total number of charges    =         12
 total charge               =      1.0000000

%%%% DENSITY %%%%%%%%%%%%%%%%%%%%%%%%%%%%%%%%%%%%%%%%%%%%%%%%%%%%%%%%%%%%%%%%%%%
 density label              = dvtot                                                                           
 integral of density        =    -0.1098497836E-11

%%%% ELECTRONS %%%%%%%%%%%%%%%%%%%%%%%%%%%%%%%%%%%%%%%%%%%%%%%%%%%%%%%%%%%%%%%%%
 number of electrons        =          8
 total electronic charge    =      8.0000000

%%%% ELECTRONS %%%%%%%%%%%%%%%%%%%%%%%%%%%%%%%%%%%%%%%%%%%%%%%%%%%%%%%%%%%%%%%%%
 number of electrons        =          8
 total electronic charge    =      8.0000000

%%%% DENSITY %%%%%%%%%%%%%%%%%%%%%%%%%%%%%%%%%%%%%%%%%%%%%%%%%%%%%%%%%%%%%%%%%%%
 density label              = vreference                                                                      
 integral of density        =    -0.2503380219E-11

%%%% COMPUTE ELECTROSTATIC POTENTIAL %%%%%%%%%%%%%%%%%%%%%%%%%%%%%%%%%%%%%%%%%%%
 Warning: bad guess with residual norm =   0.110179E+03, reset to no guess
 Iteration #          1
  pAp =    21.790125059599614       rzold =    21.398375129710828       alpha =   0.98202167592809664     
 delta_qm =   0.785219E-02 delta_en =   0.106543E+03 tol =   0.100000E-04
 Iteration #          2
  pAp =    22.993490454011123       rzold =    2.5786224600064682       alpha =   0.11214575991252505     
 delta_qm =   0.237084E-02 delta_en =   0.971291E+01 tol =   0.100000E-04
 Iteration #          3
  pAp =    1.1149934963439347       rzold =   0.19442523453478308       alpha =   0.17437342475297274     
 delta_qm =   0.801292E-03 delta_en =   0.110950E+01 tol =   0.100000E-04
 Iteration #          4
  pAp =    3.7049974170364486E-002  rzold =    8.1501531864324323E-003  alpha =   0.21997729739179070     
 delta_qm =   0.480409E-03 delta_en =   0.398810E+00 tol =   0.100000E-04
 Iteration #          5
  pAp =    5.2055893603331006E-004  rzold =    4.4564937572016386E-004  alpha =   0.85609783037447884     
 delta_qm =   0.238821E-03 delta_en =   0.985576E-01 tol =   0.100000E-04
 Iteration #          6
  pAp =    3.7368733608559858E-004  rzold =    2.0793342075492555E-004  alpha =   0.55643689436479948     
 delta_qm =   0.139490E-03 delta_en =   0.336227E-01 tol =   0.100000E-04
 Iteration #          7
  pAp =    7.6767895331853828E-005  rzold =    5.8803941143487103E-005  alpha =   0.76599652614270886     
 delta_qm =   0.419990E-04 delta_en =   0.304805E-02 tol =   0.100000E-04
 Iteration #          8
  pAp =    6.0260770351791488E-005  rzold =    1.7422768877575222E-005  alpha =   0.28912290327296258     
 delta_qm =   0.223752E-04 delta_en =   0.865126E-03 tol =   0.100000E-04
 Iteration #          9
  pAp =    2.3018015493165980E-005  rzold =    5.9440875381832089E-006  alpha =   0.25823631667760416     
 delta_qm =   0.124816E-04 delta_en =   0.269207E-03 tol =   0.100000E-04
 Iteration #         10
  pAp =    3.5751715500904074E-007  rzold =    2.4834286739342201E-007  alpha =   0.69463203069833679     
 delta_qm =   0.555804E-05 delta_en =   0.533811E-04 tol =   0.100000E-04
 Iteration #         11
  pAp =    7.8945132851165818E-008  rzold =    6.0645325332819877E-008  alpha =   0.76819587405285239     
 delta_qm =   0.209840E-05 delta_en =   0.760884E-05 tol =   0.100000E-04
 Charges are converged, EXIT

%%%% DENSITY %%%%%%%%%%%%%%%%%%%%%%%%%%%%%%%%%%%%%%%%%%%%%%%%%%%%%%%%%%%%%%%%%%%
 density label              = velectrostatic                                                                  
 integral of density        =     0.1724196917E-11

%%%% CHARGES %%%%%%%%%%%%%%%%%%%%%%%%%%%%%%%%%%%%%%%%%%%%%%%%%%%%%%%%%%%%%%%%%%%
 total number of charges    =         12
 total charge               =      1.0000000

%%%% DENSITY %%%%%%%%%%%%%%%%%%%%%%%%%%%%%%%%%%%%%%%%%%%%%%%%%%%%%%%%%%%%%%%%%%%
 density label              = dvtot                                                                           
 integral of density        =     0.4547578363E-11

%%%% ELECTRONS %%%%%%%%%%%%%%%%%%%%%%%%%%%%%%%%%%%%%%%%%%%%%%%%%%%%%%%%%%%%%%%%%
 number of electrons        =          8
 total electronic charge    =      8.0000000

%%%% ELECTRONS %%%%%%%%%%%%%%%%%%%%%%%%%%%%%%%%%%%%%%%%%%%%%%%%%%%%%%%%%%%%%%%%%
 number of electrons        =          8
 total electronic charge    =      8.0000000

%%%% DENSITY %%%%%%%%%%%%%%%%%%%%%%%%%%%%%%%%%%%%%%%%%%%%%%%%%%%%%%%%%%%%%%%%%%%
 density label              = vreference                                                                      
 integral of density        =    -0.1629059028E-11

%%%% COMPUTE ELECTROSTATIC POTENTIAL %%%%%%%%%%%%%%%%%%%%%%%%%%%%%%%%%%%%%%%%%%%
 Warning: bad guess with residual norm =   0.129840E+03, reset to no guess
 Iteration #          1
  pAp =    21.841207903453309       rzold =    21.375137953674646       alpha =   0.97866098103003851     
 delta_qm =   0.849766E-02 delta_en =   0.124779E+03 tol =   0.100000E-04
 Iteration #          2
  pAp =    26.659152207129800       rzold =    3.0221682474020315       alpha =   0.11336325416206500     
 delta_qm =   0.259436E-02 delta_en =   0.116307E+02 tol =   0.100000E-04
 Iteration #          3
  pAp =    1.3778314841919339       rzold =   0.23531885046532527       alpha =   0.17078928240875138     
 delta_qm =   0.841546E-03 delta_en =   0.122377E+01 tol =   0.100000E-04
 Iteration #          4
  pAp =    4.3313364158940208E-002  rzold =    9.5873954379136952E-003  alpha =   0.22134959091915246     
 delta_qm =   0.489591E-03 delta_en =   0.414200E+00 tol =   0.100000E-04
 Iteration #          5
  pAp =    5.5785806812300794E-004  rzold =    4.7724453239712876E-004  alpha =   0.85549454183370555     
 delta_qm =   0.247577E-03 delta_en =   0.105917E+00 tol =   0.100000E-04
 Iteration #          6
  pAp =    3.9010613860021896E-004  rzold =    2.1781545945717381E-004  alpha =   0.55834922321074065     
 delta_qm =   0.145387E-03 delta_en =   0.365256E-01 tol =   0.100000E-04
 Iteration #          7
  pAp =    8.1658684124221110E-005  rzold =    6.2123780485739407E-005  alpha =   0.76077371503115643     
 delta_qm =   0.441735E-04 delta_en =   0.337184E-02 tol =   0.100000E-04
 Iteration #          8
  pAp =    6.8294179514864176E-005  rzold =    1.9539362444493381E-005  alpha =   0.28610582312129035     
 delta_qm =   0.235490E-04 delta_en =   0.958273E-03 tol =   0.100000E-04
 Iteration #          9
  pAp =    2.5230381619769691E-005  rzold =    6.6010255894846879E-006  alpha =   0.26163003354306552     
 delta_qm =   0.132793E-04 delta_en =   0.304716E-03 tol =   0.100000E-04
 Iteration #         10
  pAp =    3.7284855239769186E-007  rzold =    2.6779268487891949E-007  alpha =   0.71823447659060102     
 delta_qm =   0.577413E-05 delta_en =   0.576126E-04 tol =   0.100000E-04
 Iteration #         11
  pAp =    7.9812685115062792E-008  rzold =    6.4373722291053718E-008  alpha =   0.80656003739566795     
 delta_qm =   0.203209E-05 delta_en =   0.713561E-05 tol =   0.100000E-04
 Charges are converged, EXIT

%%%% DENSITY %%%%%%%%%%%%%%%%%%%%%%%%%%%%%%%%%%%%%%%%%%%%%%%%%%%%%%%%%%%%%%%%%%%
 density label              = velectrostatic                                                                  
 integral of density        =     0.3048522340E-11

%%%% CHARGES %%%%%%%%%%%%%%%%%%%%%%%%%%%%%%%%%%%%%%%%%%%%%%%%%%%%%%%%%%%%%%%%%%%
 total number of charges    =         12
 total charge               =      1.0000000

%%%% DENSITY %%%%%%%%%%%%%%%%%%%%%%%%%%%%%%%%%%%%%%%%%%%%%%%%%%%%%%%%%%%%%%%%%%%
 density label              = dvtot                                                                           
 integral of density        =     0.5749738134E-11

%%%% ELECTRONS %%%%%%%%%%%%%%%%%%%%%%%%%%%%%%%%%%%%%%%%%%%%%%%%%%%%%%%%%%%%%%%%%
 number of electrons        =          8
 total electronic charge    =      8.0000000

%%%% ELECTRONS %%%%%%%%%%%%%%%%%%%%%%%%%%%%%%%%%%%%%%%%%%%%%%%%%%%%%%%%%%%%%%%%%
 number of electrons        =          8
 total electronic charge    =      8.0000000

%%%% DENSITY %%%%%%%%%%%%%%%%%%%%%%%%%%%%%%%%%%%%%%%%%%%%%%%%%%%%%%%%%%%%%%%%%%%
 density label              = dvtot                                                                           
 integral of density        =     0.5749738134E-11

%%%% DENSITY %%%%%%%%%%%%%%%%%%%%%%%%%%%%%%%%%%%%%%%%%%%%%%%%%%%%%%%%%%%%%%%%%%%
 density label              = vreference                                                                      
 integral of density        =    -0.1629059028E-11

%%%% DENSITY %%%%%%%%%%%%%%%%%%%%%%%%%%%%%%%%%%%%%%%%%%%%%%%%%%%%%%%%%%%%%%%%%%%
 density label              = velectrostatic                                                                  
 integral of density        =     0.3048522340E-11

%%%% CHARGES %%%%%%%%%%%%%%%%%%%%%%%%%%%%%%%%%%%%%%%%%%%%%%%%%%%%%%%%%%%%%%%%%%%
 total number of charges    =         12
 total charge               =      1.0000000
