
     Program PWSCF v.6.7MaX starts on 22Jan2021 at 12:55:52 

     This program is part of the open-source Quantum ESPRESSO suite
     for quantum simulation of materials; please cite
         "P. Giannozzi et al., J. Phys.:Condens. Matter 21 395502 (2009);
         "P. Giannozzi et al., J. Phys.:Condens. Matter 29 465901 (2017);
          URL http://www.quantum-espresso.org", 
     in publications or presentations arising from this work. More details at
     http://www.quantum-espresso.org/quote

     Parallel version (MPI), running on     1 processors

     MPI processes distributed on     1 nodes
     Reading input from cation.in

     Current dimensions of program PWSCF are:
     Max number of different atomic species (ntypx) = 10
     Max number of k-points (npk) =  40000
     Max angular momentum in pseudopotentials (lmaxx) =  3
     file C.pbe-rrkjus.UPF: wavefunction(s)  2S 2P renormalized
     file H.pbe-rrkjus.UPF: wavefunction(s)  1S renormalized
     file N.pbe-rrkjus.UPF: wavefunction(s)  2S renormalized
     file O.pbe-rrkjus.UPF: wavefunction(s)  2S renormalized

     gamma-point specific algorithms are used

     Subspace diagonalization in iterative solution of the eigenvalue problem:
     a serial algorithm will be used


     G-vector sticks info
     --------------------
     sticks:   dense  smooth     PW     G-vecs:    dense   smooth      PW
     Sum        9549    3809    949               701475   177509   22119



     bravais-lattice index     =            1
     lattice parameter (alat)  =      20.0000  a.u.
     unit-cell volume          =    8000.0000 (a.u.)^3
     number of atoms/cell      =           10
     number of atomic types    =            4
     number of electrons       =        24.00
     number of Kohn-Sham states=           12
     kinetic-energy cutoff     =      30.0000  Ry
     charge density cutoff     =     300.0000  Ry
     scf convergence threshold =      1.0E-03
     mixing beta               =       0.7000
     number of iterations used =            8  plain     mixing
     Exchange-correlation= SLA  PW   PBE  PBE
                           (   1   4   3   4   0   0   0)


     Environ Module
     ==============

     Plese cite
         O. Andreussi, I. Dabo and N. Marzari, J. Chem. Phys. 136, 064102 (2012)         
     in publications or presentations arising from this work.

     compensation onset threshold      =               0.1000E+03 
     static permittivity               =                    78.30 
     epsilon calculation mode          =                    ionic 
     surface tension in input (dyn/cm) =                    50.00 
     surface tension in internal units =               0.6423E-04 
     external pressure in input (GPa)  =                    -0.35 
     external pressure in inter. units =              -0.2379E-04 

     Electrostatic Setup
     -------------------
     electrostatic problem to solve    = generalized              
     numerical solver adopted          = cg                       
     type of auxiliary density adopted = none                     
     type of core tool for poisson     = fft                      



     celldm(1)=  20.000000  celldm(2)=   0.000000  celldm(3)=   0.000000
     celldm(4)=   0.000000  celldm(5)=   0.000000  celldm(6)=   0.000000

     crystal axes: (cart. coord. in units of alat)
               a(1) = (   1.000000   0.000000   0.000000 )  
               a(2) = (   0.000000   1.000000   0.000000 )  
               a(3) = (   0.000000   0.000000   1.000000 )  

     reciprocal axes: (cart. coord. in units 2 pi/alat)
               b(1) = (  1.000000  0.000000  0.000000 )  
               b(2) = (  0.000000  1.000000  0.000000 )  
               b(3) = (  0.000000  0.000000  1.000000 )  


     PseudoPot. # 1 for C  read from file:
     /Users/gabrielmedrano/Desktop/q-e/Environ/tests/../..//pseudo/C.pbe-rrkjus.UPF
     MD5 check sum: c9ac5a99bc85b198593446162950cd17
     Pseudo is Ultrasoft, Zval =  4.0
     Generated by new atomic code, or converted to UPF format
     Using radial grid of  627 points,  4 beta functions with: 
                l(1) =   0
                l(2) =   0
                l(3) =   1
                l(4) =   1
     Q(r) pseudized with 0 coefficients 


     PseudoPot. # 2 for H  read from file:
     /Users/gabrielmedrano/Desktop/q-e/Environ/tests/../..//pseudo/H.pbe-rrkjus.UPF
     MD5 check sum: 2d52a7f45632fd764c17cc6affed14c8
     Pseudo is Ultrasoft, Zval =  1.0
     Generated by new atomic code, or converted to UPF format
     Using radial grid of 1061 points,  2 beta functions with: 
                l(1) =   0
                l(2) =   0
     Q(r) pseudized with 0 coefficients 


     PseudoPot. # 3 for N  read from file:
     /Users/gabrielmedrano/Desktop/q-e/Environ/tests/../..//pseudo/N.pbe-rrkjus.UPF
     MD5 check sum: 28c76d763763edb36c62a6ca2be9aebd
     Pseudo is Ultrasoft, Zval =  5.0
     Generated by new atomic code, or converted to UPF format
     Using radial grid of 1257 points,  4 beta functions with: 
                l(1) =   0
                l(2) =   0
                l(3) =   1
                l(4) =   1
     Q(r) pseudized with 0 coefficients 


     PseudoPot. # 4 for O  read from file:
     /Users/gabrielmedrano/Desktop/q-e/Environ/tests/../..//pseudo/O.pbe-rrkjus.UPF
     MD5 check sum: fadcf19ee70a498d3030e2e79cf929a4
     Pseudo is Ultrasoft, Zval =  6.0
     Generated by new atomic code, or converted to UPF format
     Using radial grid of 1269 points,  4 beta functions with: 
                l(1) =   0
                l(2) =   0
                l(3) =   1
                l(4) =   1
     Q(r) pseudized with 0 coefficients 


     atomic species   valence    mass     pseudopotential
        C              4.00    12.00000     C ( 1.00)
        H              1.00     1.00000     H ( 1.00)
        N              5.00    14.00000     N ( 1.00)
        O              6.00    16.00000     O ( 1.00)

     No symmetry found



   Cartesian axes

     site n.     atom                  positions (alat units)
         1           C   tau(   1) = (   0.0000000   0.0000000   0.0000000  )
         2           C   tau(   2) = (   0.0000000   0.0000000   0.1455089  )
         3           N   tau(   3) = (   0.1170969   0.0000000  -0.0545024  )
         4           H   tau(   4) = (   0.0476617  -0.0825466   0.1792090  )
         5           H   tau(   5) = (  -0.0953183  -0.0000030   0.1792090  )
         6           H   tau(   6) = (   0.0476566   0.0825496   0.1792090  )
         7           O   tau(   7) = (  -0.0984002  -0.0000019  -0.0641310  )
         8           H   tau(   8) = (   0.1263131  -0.0000015  -0.1475548  )
         9           H   tau(   9) = (   0.1944645   0.0000134  -0.0025716  )
        10           H   tau(  10) = (  -0.0770366  -0.0000045  -0.1522861  )

     number of k points=     1
                       cart. coord. in units 2pi/alat
        k(    1) = (   0.0000000   0.0000000   0.0000000), wk =   2.0000000

     Dense  grid:   350738 G-vectors     FFT dimensions: ( 120, 120, 120)

     Smooth grid:    88755 G-vectors     FFT dimensions: (  72,  72,  72)

     Estimated max dynamical RAM per process >     624.11 MB

     Initial potential from superposition of free atoms

     starting charge   24.42266, renormalised to   24.00000

     negative rho (up, down):  4.438E-04 0.000E+00
     Starting wfcs are   22 randomized atomic wfcs

     total cpu time spent up to now is       45.0 secs

     Self-consistent Calculation

     iteration #  1     ecut=    30.00 Ry     beta= 0.70
     Davidson diagonalization with overlap
     ethr =  1.00E-02,  avg # of iterations =  2.0

     negative rho (up, down):  1.234E-04 0.000E+00

     add environment contribution to local potential
     polarization accuracy = 5.2E-06, # of iterations =  17

     total cpu time spent up to now is       50.2 secs

     total energy              =     -80.28575979 Ry
     estimated scf accuracy    <       3.64924908 Ry
     electrostatic embedding   =       0.00000000 Ry
     cavitation energy         =       0.02741319 Ry
     PV energy                 =      -0.01754709 Ry
     correction to one-el term =      -0.00000000 Ry

     iteration #  2     ecut=    30.00 Ry     beta= 0.70
     Davidson diagonalization with overlap
     ethr =  1.00E-02,  avg # of iterations =  5.0

     negative rho (up, down):  6.327E-04 0.000E+00

     add environment contribution to local potential
     polarization accuracy = 5.1E-06, # of iterations =  17

     total cpu time spent up to now is       55.5 secs

     total energy              =     -81.05341425 Ry
     estimated scf accuracy    <       1.29857500 Ry
     electrostatic embedding   =      -0.16694273 Ry
     cavitation energy         =       0.02741319 Ry
     PV energy                 =      -0.01754709 Ry
     correction to one-el term =      -4.75973642 Ry

     iteration #  3     ecut=    30.00 Ry     beta= 0.70
     Davidson diagonalization with overlap
     ethr =  5.41E-03,  avg # of iterations =  4.0

     negative rho (up, down):  2.485E-04 0.000E+00

     add environment contribution to local potential
     polarization accuracy = 5.7E-06, # of iterations =  17

     total cpu time spent up to now is       60.7 secs

     total energy              =     -81.30965168 Ry
     estimated scf accuracy    <       0.14698899 Ry
     electrostatic embedding   =      -0.13605515 Ry
     cavitation energy         =       0.02741319 Ry
     PV energy                 =      -0.01754709 Ry
     correction to one-el term =      -4.16780723 Ry

     iteration #  4     ecut=    30.00 Ry     beta= 0.70
     Davidson diagonalization with overlap
     ethr =  6.12E-04,  avg # of iterations =  5.0

     negative rho (up, down):  1.072E-04 0.000E+00

     add environment contribution to local potential
     polarization accuracy = 4.3E-06, # of iterations =  17

     total cpu time spent up to now is       65.8 secs

     total energy              =     -81.35335233 Ry
     estimated scf accuracy    <       0.01990944 Ry
     electrostatic embedding   =      -0.10673105 Ry
     cavitation energy         =       0.02741319 Ry
     PV energy                 =      -0.01754709 Ry
     correction to one-el term =      -3.84768666 Ry

     iteration #  5     ecut=    30.00 Ry     beta= 0.70
     Davidson diagonalization with overlap
     ethr =  8.30E-05,  avg # of iterations =  4.0

     negative rho (up, down):  7.424E-05 0.000E+00

     add environment contribution to local potential
     polarization accuracy = 4.2E-06, # of iterations =  17

     total cpu time spent up to now is       70.9 secs

     total energy              =     -81.35762120 Ry
     estimated scf accuracy    <       0.00167702 Ry
     electrostatic embedding   =      -0.09366649 Ry
     cavitation energy         =       0.02741319 Ry
     PV energy                 =      -0.01754709 Ry
     correction to one-el term =      -3.50820054 Ry

     iteration #  6     ecut=    30.00 Ry     beta= 0.70
     Davidson diagonalization with overlap
     ethr =  6.99E-06,  avg # of iterations =  2.0

     negative rho (up, down):  2.797E-04 0.000E+00

     the potential shift due to the Gaussian-smeared nuclei is    -0.0668 ev

     total cpu time spent up to now is       73.2 secs

     End of self-consistent calculation

          k = 0.0000 0.0000 0.0000 ( 11060 PWs)   bands (ev):

   -29.4569 -23.5111 -18.9329 -16.4823 -15.0850 -13.8395 -12.0400 -11.3418
    -9.8283  -9.8265  -9.6604  -7.7562

     highest occupied level (ev):    -7.7562

!    total energy              =     -81.35798311 Ry
     estimated scf accuracy    <       0.00020821 Ry

     The total energy is the sum of the following terms:
     one-electron contribution =    -242.06586342 Ry
     hartree contribution      =     122.88079314 Ry
     xc contribution           =     -22.92801000 Ry
     ewald contribution        =      64.30784069 Ry
     electrostatic embedding   =      -0.09264554 Ry
     cavitation energy         =       0.02741319 Ry
     PV energy                 =      -0.01754709 Ry
     correction to one-el term =      -3.46996407 Ry

     convergence has been achieved in   6 iterations
 forces lc
       1    0.0465   -0.0000   -0.0604
       2    0.0427   -0.0000   -0.0425
       3    0.0148   -0.0000   -0.0622
       4    0.0120   -0.0016   -0.0117
       5    0.0039   -0.0000   -0.0066
       6    0.0120    0.0016   -0.0117
       7    0.1575   -0.0000   -0.1408
       8   -0.0095   -0.0000   -0.0247
       9    0.0132   -0.0000    0.0038
      10    0.0261   -0.0000   -0.0412

     Forces acting on atoms (cartesian axes, Ry/au):

     atom    1 type  1   force =     0.22699697   -0.00001291    0.10432477
     atom    2 type  1   force =    -0.03285845   -0.00001310   -0.08366621
     atom    3 type  3   force =    -0.14303104   -0.00003031    0.04513030
     atom    4 type  2   force =     0.01984603   -0.02967049    0.00750752
     atom    5 type  2   force =    -0.03192141    0.00001416    0.01061453
     atom    6 type  2   force =     0.01984586    0.02970247    0.00751281
     atom    7 type  4   force =    -0.09926273   -0.00004142   -0.00685750
     atom    8 type  2   force =     0.00999329    0.00001679   -0.05421836
     atom    9 type  2   force =     0.04266786    0.00001785    0.03495459
     atom   10 type  2   force =    -0.01227638    0.00001695   -0.06530245

     Total force =     0.342312     Total SCF correction =     0.016482

     Writing output data file /Users/gabrielmedrano/Desktop/q-e/Environ/tests/../..//tempdir/pwscf.save/

     init_run     :     43.63s CPU     44.87s WALL (       1 calls)
     electrons    :     29.85s CPU     28.25s WALL (       1 calls)
     forces       :     15.40s CPU     15.72s WALL (       1 calls)

     Called by init_run:
     wfcinit      :      0.12s CPU      0.12s WALL (       1 calls)
     potinit      :      0.98s CPU      1.04s WALL (       1 calls)
     hinit0       :     41.88s CPU     42.83s WALL (       1 calls)

     Called by electrons:
     c_bands      :      1.33s CPU      1.09s WALL (       6 calls)
     sum_band     :      8.06s CPU      4.49s WALL (       6 calls)
     v_of_rho     :      3.84s CPU      4.41s WALL (       7 calls)
     newd         :      2.61s CPU      3.60s WALL (       7 calls)
     mix_rho      :      0.42s CPU      0.47s WALL (       6 calls)

     Called by c_bands:
     init_us_2    :      0.05s CPU      0.05s WALL (      13 calls)
     regterg      :      1.27s CPU      1.03s WALL (       6 calls)

     Called by *egterg:
     rdiaghg      :      0.00s CPU      0.00s WALL (      28 calls)
     h_psi        :      1.15s CPU      1.03s WALL (      29 calls)
     s_psi        :      0.08s CPU      0.01s WALL (      29 calls)
     g_psi        :      0.01s CPU      0.01s WALL (      22 calls)

     Called by h_psi:
     h_psi:calbec :      0.03s CPU      0.03s WALL (      29 calls)
     vloc_psi     :      0.94s CPU      0.95s WALL (      29 calls)
     add_vuspsi   :      0.16s CPU      0.05s WALL (      29 calls)

     General routines
     calbec       :      0.05s CPU      0.04s WALL (      39 calls)
     fft          :     11.48s CPU     11.95s WALL (     298 calls)
     ffts         :      0.06s CPU      0.06s WALL (      13 calls)
     fftw         :      0.85s CPU      0.86s WALL (     282 calls)
     interpolate  :      0.31s CPU      0.34s WALL (       7 calls)

     Parallel routines
     fft_scatt_xy :      0.96s CPU      0.96s WALL (     217 calls)
     fft_scatt_yz :      1.24s CPU      1.25s WALL (     217 calls)

     Environ routines
     calc_eelect  :      0.03s CPU      0.03s WALL (      12 calls)
     calc_velect  :     11.72s CPU     12.35s WALL (      10 calls)
     dielectric   :      0.09s CPU      0.10s WALL (       2 calls)
     calc_felect  :      0.31s CPU      0.33s WALL (       1 calls)

     PWSCF        :   1m28.99s CPU   1m29.04s WALL


   This run was terminated on:  12:57:21  22Jan2021            

=------------------------------------------------------------------------------=
   JOB DONE.
=------------------------------------------------------------------------------=
 Calling electrostatic_initbase now
 electrolyte_distance:    0.0000000000000000     
 sc_distance:    0.0000000000000000     
 velectrostatic started
 vreference created

%%%% IONS %%%%%%%%%%%%%%%%%%%%%%%%%%%%%%%%%%%%%%%%%%%%%%%%%%%%%%%%%%%%%%%%%%%%%%
 number of ions             =         10
 ionic center of charge     =      0.0095530    -0.0000002     0.0063981
 total ionic charge         =    -25.0000000
 ionic dipole               =      0.0000000     0.0000000     0.0000000
 ionic quadrupole (pc)      =    -79.0828051    -5.4513517  -105.8059620
 ionic quadrupole (gauss)   =    -82.2078051    -8.5763517  -108.9309620
 ion   1 type =  1 coordinates =      0.0000000     0.0000000     0.0000000
 ion   2 type =  1 coordinates =      0.0000000     0.0000000     2.9101782
 ion   3 type =  3 coordinates =      2.3419379     0.0000000    -1.0900479
 ion   4 type =  2 coordinates =      0.9532347    -1.6509323     3.5841800
 ion   5 type =  2 coordinates =     -1.9063663    -0.0000596     3.5841809
 ion   6 type =  2 coordinates =      0.9531315     1.6509919     3.5841800
 ion   7 type =  4 coordinates =     -1.9680045    -0.0000375    -1.2826193
 ion   8 type =  2 coordinates =      2.5262613    -0.0000303    -2.9510950
 ion   9 type =  2 coordinates =      3.8892907     0.0002681    -0.0514326
 ion  10 type =  2 coordinates =     -1.5407317    -0.0000890    -3.0457220

%%%% SYSTEM %%%%%%%%%%%%%%%%%%%%%%%%%%%%%%%%%%%%%%%%%%%%%%%%%%%%%%%%%%%%%%%%%%%%
 system is built from all present ionic types
 system defined dimension   =  0 
 system defined axis        =  3 
 system center              =      0.0095530    -0.0000002     0.0063981 
 system width               =      0.2021425 

%%%% IONS %%%%%%%%%%%%%%%%%%%%%%%%%%%%%%%%%%%%%%%%%%%%%%%%%%%%%%%%%%%%%%%%%%%%%%
 number of ions             =         10
 ionic center of charge     =      0.0095530    -0.0000002     0.0063981
 total ionic charge         =    -25.0000000
 ionic dipole               =      0.0000000     0.0000000     0.0000000
 ionic quadrupole (pc)      =    -79.0828051    -5.4513517  -105.8059620
 ionic quadrupole (gauss)   =    -82.2078051    -8.5763517  -108.9309620
 ion   1 type =  1 coordinates =      0.0000000     0.0000000     0.0000000
 ion   2 type =  1 coordinates =      0.0000000     0.0000000     2.9101782
 ion   3 type =  3 coordinates =      2.3419379     0.0000000    -1.0900479
 ion   4 type =  2 coordinates =      0.9532347    -1.6509323     3.5841800
 ion   5 type =  2 coordinates =     -1.9063663    -0.0000596     3.5841809
 ion   6 type =  2 coordinates =      0.9531315     1.6509919     3.5841800
 ion   7 type =  4 coordinates =     -1.9680045    -0.0000375    -1.2826193
 ion   8 type =  2 coordinates =      2.5262613    -0.0000303    -2.9510950
 ion   9 type =  2 coordinates =      3.8892907     0.0002681    -0.0514326
 ion  10 type =  2 coordinates =     -1.5407317    -0.0000890    -3.0457220

%%%% SYSTEM %%%%%%%%%%%%%%%%%%%%%%%%%%%%%%%%%%%%%%%%%%%%%%%%%%%%%%%%%%%%%%%%%%%%
 system is built from all present ionic types
 system defined dimension   =  0 
 system defined axis        =  3 
 system center              =      0.0095530    -0.0000002     0.0063981 
 system width               =      0.2021425 

%%%% BOUNDARY %%%%%%%%%%%%%%%%%%%%%%%%%%%%%%%%%%%%%%%%%%%%%%%%%%%%%%%%%%%%%%%%%%
 boundary label             = solvent              
 boundary mode              = ionic                
 boundary is built from soft-spheres centered on ionic positions
 solvent-dependent scaling  =      1.1000000 
 softness parameter         =      0.5000000 
 volume of the QM region    =    737.5043987 
 surface of the QM region   =    426.7939613 

%%%% DIELECTRIC %%%%%%%%%%%%%%%%%%%%%%%%%%%%%%%%%%%%%%%%%%%%%%%%%%%%%%%%%%%%%%%%%
 dielectric build on homogeneous background
 environment bulk permitt.  =     78.3000000 
 dielectric flags
 need gradient              =  F 
 need factor depend. sqrt   =  T 
 total dielectric charge    =      0.0000000

%%%% ELECTRONS %%%%%%%%%%%%%%%%%%%%%%%%%%%%%%%%%%%%%%%%%%%%%%%%%%%%%%%%%%%%%%%%%
 number of electrons        =         24
 total electronic charge    =     24.0000000

%%%% ELECTRONS %%%%%%%%%%%%%%%%%%%%%%%%%%%%%%%%%%%%%%%%%%%%%%%%%%%%%%%%%%%%%%%%%
 number of electrons        =         24
 total electronic charge    =     24.0000000

%%%% DENSITY %%%%%%%%%%%%%%%%%%%%%%%%%%%%%%%%%%%%%%%%%%%%%%%%%%%%%%%%%%%%%%%%%%%
 density label              = dvtot                                                                           
 integral of density        =      0.000000000    

%%%% DENSITY %%%%%%%%%%%%%%%%%%%%%%%%%%%%%%%%%%%%%%%%%%%%%%%%%%%%%%%%%%%%%%%%%%%
 density label              = vreference                                                                      
 integral of density        =      0.000000000    

%%%% DENSITY %%%%%%%%%%%%%%%%%%%%%%%%%%%%%%%%%%%%%%%%%%%%%%%%%%%%%%%%%%%%%%%%%%%
 density label              = velectrostatic                                                                  
 integral of density        =      0.000000000    

%%%% CHARGES %%%%%%%%%%%%%%%%%%%%%%%%%%%%%%%%%%%%%%%%%%%%%%%%%%%%%%%%%%%%%%%%%%%
 total number of charges    =         34
 total charge               =     -1.0000000

%%%% ELECTRONS %%%%%%%%%%%%%%%%%%%%%%%%%%%%%%%%%%%%%%%%%%%%%%%%%%%%%%%%%%%%%%%%%
 number of electrons        =         24
 total electronic charge    =     24.0000000

%%%% ELECTRONS %%%%%%%%%%%%%%%%%%%%%%%%%%%%%%%%%%%%%%%%%%%%%%%%%%%%%%%%%%%%%%%%%
 number of electrons        =         24
 total electronic charge    =     24.0000000

%%%% DENSITY %%%%%%%%%%%%%%%%%%%%%%%%%%%%%%%%%%%%%%%%%%%%%%%%%%%%%%%%%%%%%%%%%%%
 density label              = vreference                                                                      
 integral of density        =    -0.2399915657E-11

%%%% COMPUTE ELECTROSTATIC POTENTIAL %%%%%%%%%%%%%%%%%%%%%%%%%%%%%%%%%%%%%%%%%%%
 Iteration #          1
  pAp =    93.016356237010427       rzold =    89.430516556335391       alpha =   0.96144936411464954     
 delta_qm =   0.228456E-01 delta_en =   0.901876E+03 tol =   0.100000E-04
 Iteration #          2
  pAp =    304.17873541027535       rzold =    30.356774352147728       alpha =    9.9799133924344197E-002
 delta_qm =   0.310806E-02 delta_en =   0.166925E+02 tol =   0.100000E-04
 Iteration #          3
  pAp =    1.0598198844121234       rzold =   0.20614035192899938       alpha =   0.19450508049614898     
 delta_qm =   0.143728E-02 delta_en =   0.356966E+01 tol =   0.100000E-04
 Iteration #          4
  pAp =   0.11151766575371334       rzold =    1.8479239515012000E-002  alpha =   0.16570683568488048     
 delta_qm =   0.112165E-02 delta_en =   0.217400E+01 tol =   0.100000E-04
 Iteration #          5
  pAp =    1.5327467489575705E-002  rzold =    4.1424828071833413E-003  alpha =   0.27026531356211758     
 delta_qm =   0.768092E-03 delta_en =   0.101946E+01 tol =   0.100000E-04
 Iteration #          6
  pAp =    5.3552568658907706E-003  rzold =    1.9990080863238361E-003  alpha =   0.37327958982810244     
 delta_qm =   0.400257E-03 delta_en =   0.276835E+00 tol =   0.100000E-04
 Iteration #          7
  pAp =    2.4970571626845356E-003  rzold =    7.4825278833355526E-004  alpha =   0.29965384834407388     
 delta_qm =   0.262876E-03 delta_en =   0.119411E+00 tol =   0.100000E-04
 Iteration #          8
  pAp =    1.7484174655836547E-003  rzold =    4.3989802824314717E-004  alpha =   0.25159782311846268     
 delta_qm =   0.197456E-03 delta_en =   0.673728E-01 tol =   0.100000E-04
 Iteration #          9
  pAp =    4.0232809530646880E-004  rzold =    2.0615211086895228E-004  alpha =   0.51239799873264702     
 delta_qm =   0.106019E-03 delta_en =   0.194229E-01 tol =   0.100000E-04
 Iteration #         10
  pAp =    3.0249259187947112E-004  rzold =    1.0067132089157100E-004  alpha =   0.33280590531514148     
 delta_qm =   0.505172E-04 delta_en =   0.440984E-02 tol =   0.100000E-04
 Iteration #         11
  pAp =    5.5956065748114361E-005  rzold =    1.8674869083035197E-005  alpha =   0.33374163879033103     
 delta_qm =   0.356940E-04 delta_en =   0.220158E-02 tol =   0.100000E-04
 Iteration #         12
  pAp =    8.2425660097340552E-006  rzold =    3.1412969086815283E-006  alpha =   0.38110667296710937     
 delta_qm =   0.232209E-04 delta_en =   0.931752E-03 tol =   0.100000E-04
 Iteration #         13
  pAp =    2.7145920312952742E-006  rzold =    1.3088897374160294E-006  alpha =   0.48216812041236612     
 delta_qm =   0.135688E-04 delta_en =   0.318148E-03 tol =   0.100000E-04
 Iteration #         14
  pAp =    2.1731350013260656E-006  rzold =    7.8141287431892162E-007  alpha =   0.35957861515372802     
 delta_qm =   0.822002E-05 delta_en =   0.116759E-03 tol =   0.100000E-04
 Iteration #         15
  pAp =    7.8527185341449990E-007  rzold =    2.8640697018396460E-007  alpha =   0.36472333617793229     
 delta_qm =   0.505572E-05 delta_en =   0.441682E-04 tol =   0.100000E-04
 Iteration #         16
  pAp =    1.5085568769625964E-007  rzold =    6.6984959122653611E-008  alpha =   0.44403336821827005     
 delta_qm =   0.292589E-05 delta_en =   0.147931E-04 tol =   0.100000E-04
 Iteration #         17
  pAp =    7.2316350082680907E-008  rzold =    2.6201856659884305E-008  alpha =   0.36232271996480925     
 delta_qm =   0.173138E-05 delta_en =   0.517999E-05 tol =   0.100000E-04
 Charges are converged, EXIT

%%%% DENSITY %%%%%%%%%%%%%%%%%%%%%%%%%%%%%%%%%%%%%%%%%%%%%%%%%%%%%%%%%%%%%%%%%%%
 density label              = velectrostatic                                                                  
 integral of density        =    -0.2147220673E-11

%%%% CHARGES %%%%%%%%%%%%%%%%%%%%%%%%%%%%%%%%%%%%%%%%%%%%%%%%%%%%%%%%%%%%%%%%%%%
 total number of charges    =         34
 total charge               =     -1.0000000

%%%% DENSITY %%%%%%%%%%%%%%%%%%%%%%%%%%%%%%%%%%%%%%%%%%%%%%%%%%%%%%%%%%%%%%%%%%%
 density label              = dvtot                                                                           
 integral of density        =    -0.9562734349E-11

%%%% ELECTRONS %%%%%%%%%%%%%%%%%%%%%%%%%%%%%%%%%%%%%%%%%%%%%%%%%%%%%%%%%%%%%%%%%
 number of electrons        =         24
 total electronic charge    =     24.0000000

%%%% ELECTRONS %%%%%%%%%%%%%%%%%%%%%%%%%%%%%%%%%%%%%%%%%%%%%%%%%%%%%%%%%%%%%%%%%
 number of electrons        =         24
 total electronic charge    =     24.0000000

%%%% DENSITY %%%%%%%%%%%%%%%%%%%%%%%%%%%%%%%%%%%%%%%%%%%%%%%%%%%%%%%%%%%%%%%%%%%
 density label              = vreference                                                                      
 integral of density        =    -0.6992579355E-11

%%%% COMPUTE ELECTROSTATIC POTENTIAL %%%%%%%%%%%%%%%%%%%%%%%%%%%%%%%%%%%%%%%%%%%
 Warning: bad guess with residual norm =   0.802803E+03, reset to no guess
 Iteration #          1
  pAp =    96.048319782815412       rzold =    93.077598432461997       alpha =   0.96907055368515749     
 delta_qm =   0.209985E-01 delta_en =   0.761936E+03 tol =   0.100000E-04
 Iteration #          2
  pAp =    256.42739111211267       rzold =    25.520116536249034       alpha =    9.9521803913262055E-002
 delta_qm =   0.277277E-02 delta_en =   0.132853E+02 tol =   0.100000E-04
 Iteration #          3
  pAp =   0.93315018009862416       rzold =   0.16191283964625461       alpha =   0.17351209172905280     
 delta_qm =   0.138412E-02 delta_en =   0.331047E+01 tol =   0.100000E-04
 Iteration #          4
  pAp =   0.11085685136690754       rzold =    1.7370302286863263E-002  alpha =   0.15669128315192762     
 delta_qm =   0.113545E-02 delta_en =   0.222780E+01 tol =   0.100000E-04
 Iteration #          5
  pAp =    9.9941276568926637E-003  rzold =    3.3810179628308767E-003  alpha =   0.33830045791931479     
 delta_qm =   0.726036E-03 delta_en =   0.910878E+00 tol =   0.100000E-04
 Iteration #          6
  pAp =    5.3836630756297780E-003  rzold =    1.9499170767364809E-003  alpha =   0.36219151335141470     
 delta_qm =   0.379084E-03 delta_en =   0.248322E+00 tol =   0.100000E-04
 Iteration #          7
  pAp =    2.6215525514887909E-003  rzold =    7.2562016598135210E-004  alpha =   0.27679024232005928     
 delta_qm =   0.274569E-03 delta_en =   0.130271E+00 tol =   0.100000E-04
 Iteration #          8
  pAp =    1.5923064008088318E-003  rzold =    4.7400343304842554E-004  alpha =   0.29768355688807735     
 delta_qm =   0.187997E-03 delta_en =   0.610723E-01 tol =   0.100000E-04
 Iteration #          9
  pAp =    4.4346916061831394E-004  rzold =    2.1151543589802114E-004  alpha =   0.47695635837024691     
 delta_qm =   0.100108E-03 delta_en =   0.173175E-01 tol =   0.100000E-04
 Iteration #         10
  pAp =    2.7841045625399426E-004  rzold =    9.0140056753436221E-005  alpha =   0.32376677933102238     
 delta_qm =   0.482272E-04 delta_en =   0.401910E-02 tol =   0.100000E-04
 Iteration #         11
  pAp =    3.8526536361996907E-005  rzold =    1.3414000229062839E-005  alpha =   0.34817560818404086     
 delta_qm =   0.354899E-04 delta_en =   0.217648E-02 tol =   0.100000E-04
 Iteration #         12
  pAp =    6.9524533355962813E-006  rzold =    2.8886430698200152E-006  alpha =   0.41548543088096385     
 delta_qm =   0.220855E-04 delta_en =   0.842864E-03 tol =   0.100000E-04
 Iteration #         13
  pAp =    2.1166017934526085E-006  rzold =    1.1880866798733814E-006  alpha =   0.56131799734298160     
 delta_qm =   0.115687E-04 delta_en =   0.231268E-03 tol =   0.100000E-04
 Iteration #         14
  pAp =    1.6614862987300835E-006  rzold =    6.0684685069329686E-007  alpha =   0.36524336743380037     
 delta_qm =   0.712651E-05 delta_en =   0.877602E-04 tol =   0.100000E-04
 Iteration #         15
  pAp =    8.1472554725081973E-007  rzold =    2.4234287540469136E-007  alpha =   0.29745338933146792     
 delta_qm =   0.482360E-05 delta_en =   0.402056E-04 tol =   0.100000E-04
 Iteration #         16
  pAp =    1.2225659610871660E-007  rzold =    5.5152104480848709E-008  alpha =   0.45111761848665194     
 delta_qm =   0.270015E-05 delta_en =   0.125985E-04 tol =   0.100000E-04
 Iteration #         17
  pAp =    8.8228492015984252E-008  rzold =    2.5907815530106646E-008  alpha =   0.29364454654186944     
 delta_qm =   0.171799E-05 delta_en =   0.510020E-05 tol =   0.100000E-04
 Charges are converged, EXIT

%%%% DENSITY %%%%%%%%%%%%%%%%%%%%%%%%%%%%%%%%%%%%%%%%%%%%%%%%%%%%%%%%%%%%%%%%%%%
 density label              = velectrostatic                                                                  
 integral of density        =     0.1120176380E-10

%%%% CHARGES %%%%%%%%%%%%%%%%%%%%%%%%%%%%%%%%%%%%%%%%%%%%%%%%%%%%%%%%%%%%%%%%%%%
 total number of charges    =         34
 total charge               =     -1.0000000

%%%% DENSITY %%%%%%%%%%%%%%%%%%%%%%%%%%%%%%%%%%%%%%%%%%%%%%%%%%%%%%%%%%%%%%%%%%%
 density label              = dvtot                                                                           
 integral of density        =     0.1170995297E-10

%%%% ELECTRONS %%%%%%%%%%%%%%%%%%%%%%%%%%%%%%%%%%%%%%%%%%%%%%%%%%%%%%%%%%%%%%%%%
 number of electrons        =         24
 total electronic charge    =     24.0000000

%%%% ELECTRONS %%%%%%%%%%%%%%%%%%%%%%%%%%%%%%%%%%%%%%%%%%%%%%%%%%%%%%%%%%%%%%%%%
 number of electrons        =         24
 total electronic charge    =     24.0000000

%%%% DENSITY %%%%%%%%%%%%%%%%%%%%%%%%%%%%%%%%%%%%%%%%%%%%%%%%%%%%%%%%%%%%%%%%%%%
 density label              = vreference                                                                      
 integral of density        =     0.3090383916E-11

%%%% COMPUTE ELECTROSTATIC POTENTIAL %%%%%%%%%%%%%%%%%%%%%%%%%%%%%%%%%%%%%%%%%%%
 Warning: bad guess with residual norm =   0.612874E+03, reset to no guess
 Iteration #          1
  pAp =    96.000353396344352       rzold =    93.703872868942980       alpha =   0.97607841589998956     
 delta_qm =   0.184585E-01 delta_en =   0.588757E+03 tol =   0.100000E-04
 Iteration #          2
  pAp =    202.70624903525686       rzold =    20.009789250010144       alpha =    9.8713233288283214E-002
 delta_qm =   0.259082E-02 delta_en =   0.115989E+02 tol =   0.100000E-04
 Iteration #          3
  pAp =   0.71713437369643751       rzold =   0.13210170946108091       alpha =   0.18420775004852782     
 delta_qm =   0.129886E-02 delta_en =   0.291522E+01 tol =   0.100000E-04
 Iteration #          4
  pAp =    9.4404542304926911E-002  rzold =    1.4820893069506909E-002  alpha =   0.15699343175284286     
 delta_qm =   0.106409E-02 delta_en =   0.195658E+01 tol =   0.100000E-04
 Iteration #          5
  pAp =    9.5865192377003212E-003  rzold =    3.0619115055506045E-003  alpha =   0.31939762802636551     
 delta_qm =   0.705110E-03 delta_en =   0.859128E+00 tol =   0.100000E-04
 Iteration #          6
  pAp =    4.2643088438455946E-003  rzold =    1.6838647225376926E-003  alpha =   0.39487400753533775     
 delta_qm =   0.363297E-03 delta_en =   0.228070E+00 tol =   0.100000E-04
 Iteration #          7
  pAp =    1.3434079170919738E-003  rzold =    5.7613741319427708E-004  alpha =   0.42886260075154298     
 delta_qm =   0.223424E-03 delta_en =   0.862587E-01 tol =   0.100000E-04
 Iteration #          8
  pAp =    6.8896075544107283E-004  rzold =    2.6537652217098446E-004  alpha =   0.38518380049251189     
 delta_qm =   0.151511E-03 delta_en =   0.396672E-01 tol =   0.100000E-04
 Iteration #          9
  pAp =    9.4826188405322531E-004  rzold =    2.3913574400188223E-004  alpha =   0.25218322915155755     
 delta_qm =   0.924665E-04 delta_en =   0.147745E-01 tol =   0.100000E-04
 Iteration #         10
  pAp =    2.7500505869211376E-004  rzold =    8.1926216726478426E-005  alpha =   0.29790803527799903     
 delta_qm =   0.467981E-04 delta_en =   0.378442E-02 tol =   0.100000E-04
 Iteration #         11
  pAp =    4.0871482135181567E-005  rzold =    1.3223551782190714E-005  alpha =   0.32353981532781451     
 delta_qm =   0.352589E-04 delta_en =   0.214824E-02 tol =   0.100000E-04
 Iteration #         12
  pAp =    7.7637235913219314E-006  rzold =    2.9693603608637848E-006  alpha =   0.38246600692776478     
 delta_qm =   0.225332E-04 delta_en =   0.877386E-03 tol =   0.100000E-04
 Iteration #         13
  pAp =    2.5911199252373927E-006  rzold =    1.2619482261431979E-006  alpha =   0.48702810466311436     
 delta_qm =   0.126216E-04 delta_en =   0.275280E-03 tol =   0.100000E-04
 Iteration #         14
  pAp =    2.1976744885936531E-006  rzold =    7.8172242946211228E-007  alpha =   0.35570437456475001     
 delta_qm =   0.765168E-05 delta_en =   0.101171E-03 tol =   0.100000E-04
 Iteration #         15
  pAp =    6.8929069817583688E-007  rzold =    2.5049465750235218E-007  alpha =   0.36340931070921173     
 delta_qm =   0.467543E-05 delta_en =   0.377734E-04 tol =   0.100000E-04
 Iteration #         16
  pAp =    1.3211162919314685E-007  rzold =    5.6029577757519280E-008  alpha =   0.42410784046576389     
 delta_qm =   0.283157E-05 delta_en =   0.138547E-04 tol =   0.100000E-04
 Iteration #         17
  pAp =    8.7152824631468988E-008  rzold =    2.6091688115719192E-008  alpha =   0.29937857121727818     
 delta_qm =   0.181500E-05 delta_en =   0.569240E-05 tol =   0.100000E-04
 Charges are converged, EXIT

%%%% DENSITY %%%%%%%%%%%%%%%%%%%%%%%%%%%%%%%%%%%%%%%%%%%%%%%%%%%%%%%%%%%%%%%%%%%
 density label              = velectrostatic                                                                  
 integral of density        =    -0.2390902291E-11

%%%% CHARGES %%%%%%%%%%%%%%%%%%%%%%%%%%%%%%%%%%%%%%%%%%%%%%%%%%%%%%%%%%%%%%%%%%%
 total number of charges    =         34
 total charge               =     -1.0000000

%%%% DENSITY %%%%%%%%%%%%%%%%%%%%%%%%%%%%%%%%%%%%%%%%%%%%%%%%%%%%%%%%%%%%%%%%%%%
 density label              = dvtot                                                                           
 integral of density        =    -0.1599290659E-11

%%%% ELECTRONS %%%%%%%%%%%%%%%%%%%%%%%%%%%%%%%%%%%%%%%%%%%%%%%%%%%%%%%%%%%%%%%%%
 number of electrons        =         24
 total electronic charge    =     24.0000000

%%%% ELECTRONS %%%%%%%%%%%%%%%%%%%%%%%%%%%%%%%%%%%%%%%%%%%%%%%%%%%%%%%%%%%%%%%%%
 number of electrons        =         24
 total electronic charge    =     24.0000000

%%%% DENSITY %%%%%%%%%%%%%%%%%%%%%%%%%%%%%%%%%%%%%%%%%%%%%%%%%%%%%%%%%%%%%%%%%%%
 density label              = vreference                                                                      
 integral of density        =    -0.1371413271E-12

%%%% COMPUTE ELECTROSTATIC POTENTIAL %%%%%%%%%%%%%%%%%%%%%%%%%%%%%%%%%%%%%%%%%%%
 Warning: bad guess with residual norm =   0.517775E+03, reset to no guess
 Iteration #          1
  pAp =    95.444694478286721       rzold =    93.499854841310579       alpha =   0.97962338663655546     
 delta_qm =   0.170174E-01 delta_en =   0.500417E+03 tol =   0.100000E-04
 Iteration #          2
  pAp =    170.78540788578951       rzold =    16.889499094716793       alpha =    9.8893103947214414E-002
 delta_qm =   0.262046E-02 delta_en =   0.118658E+02 tol =   0.100000E-04
 Iteration #          3
  pAp =   0.77421281365782590       rzold =   0.14172932569237995       alpha =   0.18306249030259422     
 delta_qm =   0.124637E-02 delta_en =   0.268436E+01 tol =   0.100000E-04
 Iteration #          4
  pAp =    9.9528081539082908E-002  rzold =    1.5418899234208252E-002  alpha =   0.15492008884099231     
 delta_qm =   0.102368E-02 delta_en =   0.181081E+01 tol =   0.100000E-04
 Iteration #          5
  pAp =    9.7201686880104225E-003  rzold =    2.9684004340437540E-003  alpha =   0.30538569126945292     
 delta_qm =   0.695970E-03 delta_en =   0.837000E+00 tol =   0.100000E-04
 Iteration #          6
  pAp =    3.8187111037321520E-003  rzold =    1.5491493224383843E-003  alpha =   0.40567334903243912     
 delta_qm =   0.366558E-03 delta_en =   0.232182E+00 tol =   0.100000E-04
 Iteration #          7
  pAp =    1.5497940886177138E-003  rzold =    6.0500974358272945E-004  alpha =   0.39038072736639956     
 delta_qm =   0.230838E-03 delta_en =   0.920785E-01 tol =   0.100000E-04
 Iteration #          8
  pAp =    1.3313931779187589E-003  rzold =    3.4329360456798714E-004  alpha =   0.25784539853555927     
 delta_qm =   0.170439E-03 delta_en =   0.501977E-01 tol =   0.100000E-04
 Iteration #          9
  pAp =    5.8510932348780241E-004  rzold =    2.1687701513387777E-004  alpha =   0.37066067216479576     
 delta_qm =   0.944654E-04 delta_en =   0.154202E-01 tol =   0.100000E-04
 Iteration #         10
  pAp =    2.1834240570343258E-004  rzold =    7.4937301801385970E-005  alpha =   0.34321002170861342     
 delta_qm =   0.455202E-04 delta_en =   0.358056E-02 tol =   0.100000E-04
 Iteration #         11
  pAp =    3.8486376008997075E-005  rzold =    1.2543021078614206E-005  alpha =   0.32590808434865332     
 delta_qm =   0.343348E-04 delta_en =   0.203710E-02 tol =   0.100000E-04
 Iteration #         12
  pAp =    7.8706347661691802E-006  rzold =    2.9161845627320912E-006  alpha =   0.37051453273716900     
 delta_qm =   0.221270E-04 delta_en =   0.846036E-03 tol =   0.100000E-04
 Iteration #         13
  pAp =    2.4305471795391657E-006  rzold =    1.1970443561815921E-006  alpha =   0.49249994662047786     
 delta_qm =   0.123550E-04 delta_en =   0.263772E-03 tol =   0.100000E-04
 Iteration #         14
  pAp =    2.0436580509946251E-006  rzold =    7.3926624976946921E-007  alpha =   0.36173676384347997     
 delta_qm =   0.749676E-05 delta_en =   0.971162E-04 tol =   0.100000E-04
 Iteration #         15
  pAp =    6.8542175777215468E-007  rzold =    2.4676574377507479E-007  alpha =   0.36002029549972897     
 delta_qm =   0.453183E-05 delta_en =   0.354887E-04 tol =   0.100000E-04
 Iteration #         16
  pAp =    1.1867413700782713E-007  rzold =    5.2532899276114135E-008  alpha =   0.44266510463564052     
 delta_qm =   0.269488E-05 delta_en =   0.125494E-04 tol =   0.100000E-04
 Iteration #         17
  pAp =    5.0783621333986840E-008  rzold =    1.9967925992728576E-008  alpha =   0.39319618152880881     
 delta_qm =   0.158464E-05 delta_en =   0.433915E-05 tol =   0.100000E-04
 Charges are converged, EXIT

%%%% DENSITY %%%%%%%%%%%%%%%%%%%%%%%%%%%%%%%%%%%%%%%%%%%%%%%%%%%%%%%%%%%%%%%%%%%
 density label              = velectrostatic                                                                  
 integral of density        =    -0.1078848944E-11

%%%% CHARGES %%%%%%%%%%%%%%%%%%%%%%%%%%%%%%%%%%%%%%%%%%%%%%%%%%%%%%%%%%%%%%%%%%%
 total number of charges    =         34
 total charge               =     -1.0000000

%%%% DENSITY %%%%%%%%%%%%%%%%%%%%%%%%%%%%%%%%%%%%%%%%%%%%%%%%%%%%%%%%%%%%%%%%%%%
 density label              = dvtot                                                                           
 integral of density        =     0.5801128096E-11

%%%% ELECTRONS %%%%%%%%%%%%%%%%%%%%%%%%%%%%%%%%%%%%%%%%%%%%%%%%%%%%%%%%%%%%%%%%%
 number of electrons        =         24
 total electronic charge    =     24.0000000

%%%% ELECTRONS %%%%%%%%%%%%%%%%%%%%%%%%%%%%%%%%%%%%%%%%%%%%%%%%%%%%%%%%%%%%%%%%%
 number of electrons        =         24
 total electronic charge    =     24.0000000

%%%% DENSITY %%%%%%%%%%%%%%%%%%%%%%%%%%%%%%%%%%%%%%%%%%%%%%%%%%%%%%%%%%%%%%%%%%%
 density label              = vreference                                                                      
 integral of density        =    -0.2369668248E-11

%%%% COMPUTE ELECTROSTATIC POTENTIAL %%%%%%%%%%%%%%%%%%%%%%%%%%%%%%%%%%%%%%%%%%%
 Warning: bad guess with residual norm =   0.509618E+03, reset to no guess
 Iteration #          1
  pAp =    95.417884320176157       rzold =    93.500853729645343       alpha =   0.97990910609484705     
 delta_qm =   0.168871E-01 delta_en =   0.492780E+03 tol =   0.100000E-04
 Iteration #          2
  pAp =    168.02811731803985       rzold =    16.626058219857736       alpha =    9.8948071818172584E-002
 delta_qm =   0.264202E-02 delta_en =   0.120619E+02 tol =   0.100000E-04
 Iteration #          3
  pAp =   0.79458679180186964       rzold =   0.14546402944368797       alpha =   0.18306877353677362     
 delta_qm =   0.124450E-02 delta_en =   0.267627E+01 tol =   0.100000E-04
 Iteration #          4
  pAp =    9.9962162114841296E-002  rzold =    1.5489036768536265E-002  alpha =   0.15494899710894330     
 delta_qm =   0.102285E-02 delta_en =   0.180786E+01 tol =   0.100000E-04
 Iteration #          5
  pAp =    9.9650288524680327E-003  rzold =    2.9992125229567502E-003  alpha =   0.30097379218464954     
 delta_qm =   0.698187E-03 delta_en =   0.842339E+00 tol =   0.100000E-04
 Iteration #          6
  pAp =    3.7466977503420960E-003  rzold =    1.5406321669613177E-003  alpha =   0.41119734486739656     
 delta_qm =   0.366138E-03 delta_en =   0.231650E+00 tol =   0.100000E-04
 Iteration #          7
  pAp =    1.4772390635768920E-003  rzold =    5.9659353499007641E-004  alpha =   0.40385713436627046     
 delta_qm =   0.227515E-03 delta_en =   0.894463E-01 tol =   0.100000E-04
 Iteration #          8
  pAp =    1.1132088391754393E-003  rzold =    3.1117102881092577E-004  alpha =   0.27952619298406944     
 delta_qm =   0.167205E-03 delta_en =   0.483103E-01 tol =   0.100000E-04
 Iteration #          9
  pAp =    6.8072384716366349E-004  rzold =    2.2687914634400222E-004  alpha =   0.33329102144625566     
 delta_qm =   0.952109E-04 delta_en =   0.156645E-01 tol =   0.100000E-04
 Iteration #         10
  pAp =    2.3083671680384902E-004  rzold =    7.7323792719297531E-005  alpha =   0.33497180946739324     
 delta_qm =   0.456462E-04 delta_en =   0.360042E-02 tol =   0.100000E-04
 Iteration #         11
  pAp =    3.9782368895813364E-005  rzold =    1.2936966879191387E-005  alpha =   0.32519347736863535     
 delta_qm =   0.343598E-04 delta_en =   0.204007E-02 tol =   0.100000E-04
 Iteration #         12
  pAp =    7.7479193226867857E-006  rzold =    2.9130265428594977E-006  alpha =   0.37597533241341657     
 delta_qm =   0.221110E-04 delta_en =   0.844811E-03 tol =   0.100000E-04
 Iteration #         13
  pAp =    2.4251849791497740E-006  rzold =    1.1930081129823742E-006  alpha =   0.49192458440865872     
 delta_qm =   0.124204E-04 delta_en =   0.266571E-03 tol =   0.100000E-04
 Iteration #         14
  pAp =    2.0835063408488665E-006  rzold =    7.4700438513152032E-007  alpha =   0.35853233104497018     
 delta_qm =   0.749596E-05 delta_en =   0.970952E-04 tol =   0.100000E-04
 Iteration #         15
  pAp =    6.8710604720877951E-007  rzold =    2.4889466396925041E-007  alpha =   0.36223617152014809     
 delta_qm =   0.454929E-05 delta_en =   0.357627E-04 tol =   0.100000E-04
 Iteration #         16
  pAp =    1.1784184763906421E-007  rzold =    5.2425198401550340E-008  alpha =   0.44487760037607854     
 delta_qm =   0.269018E-05 delta_en =   0.125056E-04 tol =   0.100000E-04
 Iteration #         17
  pAp =    4.9415986589699507E-008  rzold =    1.9796198729624530E-008  alpha =   0.40060312655481700     
 delta_qm =   0.156704E-05 delta_en =   0.424330E-05 tol =   0.100000E-04
 Charges are converged, EXIT

%%%% DENSITY %%%%%%%%%%%%%%%%%%%%%%%%%%%%%%%%%%%%%%%%%%%%%%%%%%%%%%%%%%%%%%%%%%%
 density label              = velectrostatic                                                                  
 integral of density        =    -0.2263325330E-11

%%%% CHARGES %%%%%%%%%%%%%%%%%%%%%%%%%%%%%%%%%%%%%%%%%%%%%%%%%%%%%%%%%%%%%%%%%%%
 total number of charges    =         34
 total charge               =     -1.0000000

%%%% DENSITY %%%%%%%%%%%%%%%%%%%%%%%%%%%%%%%%%%%%%%%%%%%%%%%%%%%%%%%%%%%%%%%%%%%
 density label              = dvtot                                                                           
 integral of density        =     0.8275427668E-12

%%%% ELECTRONS %%%%%%%%%%%%%%%%%%%%%%%%%%%%%%%%%%%%%%%%%%%%%%%%%%%%%%%%%%%%%%%%%
 number of electrons        =         24
 total electronic charge    =     24.0000000

%%%% ELECTRONS %%%%%%%%%%%%%%%%%%%%%%%%%%%%%%%%%%%%%%%%%%%%%%%%%%%%%%%%%%%%%%%%%
 number of electrons        =         24
 total electronic charge    =     24.0000000

%%%% DENSITY %%%%%%%%%%%%%%%%%%%%%%%%%%%%%%%%%%%%%%%%%%%%%%%%%%%%%%%%%%%%%%%%%%%
 density label              = dvtot                                                                           
 integral of density        =     0.8275427668E-12

%%%% DENSITY %%%%%%%%%%%%%%%%%%%%%%%%%%%%%%%%%%%%%%%%%%%%%%%%%%%%%%%%%%%%%%%%%%%
 density label              = vreference                                                                      
 integral of density        =    -0.2369668248E-11

%%%% DENSITY %%%%%%%%%%%%%%%%%%%%%%%%%%%%%%%%%%%%%%%%%%%%%%%%%%%%%%%%%%%%%%%%%%%
 density label              = velectrostatic                                                                  
 integral of density        =    -0.2263325330E-11

%%%% CHARGES %%%%%%%%%%%%%%%%%%%%%%%%%%%%%%%%%%%%%%%%%%%%%%%%%%%%%%%%%%%%%%%%%%%
 total number of charges    =         34
 total charge               =     -1.0000000
