
     Program PWSCF v.6.7+ starts on 22Apr2021 at 11:28:15 

     This program is part of the open-source Quantum ESPRESSO suite
     for quantum simulation of materials; please cite
         "P. Giannozzi et al., J. Phys.:Condens. Matter 21 395502 (2009);
         "P. Giannozzi et al., J. Phys.:Condens. Matter 29 465901 (2017);
          URL http://www.quantum-espresso.org", 
     in publications or presentations arising from this work. More details at
     http://www.quantum-espresso.org/quote

     Parallel version (MPI), running on     1 processors

     MPI processes distributed on     1 nodes
     Reading input from cation.in

     Current dimensions of program PWSCF are:
     Max number of different atomic species (ntypx) = 10
     Max number of k-points (npk) =  40000
     Max angular momentum in pseudopotentials (lmaxx) =  3
     file C.pbe-rrkjus.UPF: wavefunction(s)  2S 2P renormalized
     file H.pbe-rrkjus.UPF: wavefunction(s)  1S renormalized
     file N.pbe-rrkjus.UPF: wavefunction(s)  2S renormalized
     file O.pbe-rrkjus.UPF: wavefunction(s)  2S renormalized

     gamma-point specific algorithms are used

     Subspace diagonalization in iterative solution of the eigenvalue problem:
     a serial algorithm will be used


     G-vector sticks info
     --------------------
     sticks:   dense  smooth     PW     G-vecs:    dense   smooth      PW
     Sum        9549    3809    949               701475   177509   22119



     bravais-lattice index     =            1
     lattice parameter (alat)  =      20.0000  a.u.
     unit-cell volume          =    8000.0000 (a.u.)^3
     number of atoms/cell      =           10
     number of atomic types    =            4
     number of electrons       =        24.00
     number of Kohn-Sham states=           12
     kinetic-energy cutoff     =      30.0000  Ry
     charge density cutoff     =     300.0000  Ry
     scf convergence threshold =      1.0E-03
     mixing beta               =       0.7000
     number of iterations used =            8  plain     mixing
     Exchange-correlation= SLA  PW   PBE  PBE
                           (   1   4   3   4   0   0   0)


     Environ Module
     ==============

     Plese cite
         O. Andreussi, I. Dabo and N. Marzari, J. Chem. Phys. 136, 064102 (2012)         
     in publications or presentations arising from this work.

     compensation onset threshold      =               0.1000E+03 
     static permittivity               =                    78.30 
     epsilon calculation mode          =               electronic 
     surface tension in input (dyn/cm) =                     5.00 
     surface tension in internal units =               0.6423E-05 
     external pressure in input (GPa)  =                     0.12 
     external pressure in inter. units =               0.8497E-05 

     Electrostatic Setup
     -------------------
     electrostatic problem to solve    = generalized              
     numerical solver adopted          = cg                       
     type of auxiliary density adopted = none                     
     type of core tool for poisson     = fft                      



     celldm(1)=  20.000000  celldm(2)=   0.000000  celldm(3)=   0.000000
     celldm(4)=   0.000000  celldm(5)=   0.000000  celldm(6)=   0.000000

     crystal axes: (cart. coord. in units of alat)
               a(1) = (   1.000000   0.000000   0.000000 )  
               a(2) = (   0.000000   1.000000   0.000000 )  
               a(3) = (   0.000000   0.000000   1.000000 )  

     reciprocal axes: (cart. coord. in units 2 pi/alat)
               b(1) = (  1.000000  0.000000  0.000000 )  
               b(2) = (  0.000000  1.000000  0.000000 )  
               b(3) = (  0.000000  0.000000  1.000000 )  


     PseudoPot. # 1 for C  read from file:
     /Users/gabrielmedrano/Desktop/q-e/Environ/tests/../..//pseudo/C.pbe-rrkjus.UPF
     MD5 check sum: c9ac5a99bc85b198593446162950cd17
     Pseudo is Ultrasoft, Zval =  4.0
     Generated by new atomic code, or converted to UPF format
     Using radial grid of  627 points,  4 beta functions with: 
                l(1) =   0
                l(2) =   0
                l(3) =   1
                l(4) =   1
     Q(r) pseudized with 0 coefficients 


     PseudoPot. # 2 for H  read from file:
     /Users/gabrielmedrano/Desktop/q-e/Environ/tests/../..//pseudo/H.pbe-rrkjus.UPF
     MD5 check sum: 2d52a7f45632fd764c17cc6affed14c8
     Pseudo is Ultrasoft, Zval =  1.0
     Generated by new atomic code, or converted to UPF format
     Using radial grid of 1061 points,  2 beta functions with: 
                l(1) =   0
                l(2) =   0
     Q(r) pseudized with 0 coefficients 


     PseudoPot. # 3 for N  read from file:
     /Users/gabrielmedrano/Desktop/q-e/Environ/tests/../..//pseudo/N.pbe-rrkjus.UPF
     MD5 check sum: 28c76d763763edb36c62a6ca2be9aebd
     Pseudo is Ultrasoft, Zval =  5.0
     Generated by new atomic code, or converted to UPF format
     Using radial grid of 1257 points,  4 beta functions with: 
                l(1) =   0
                l(2) =   0
                l(3) =   1
                l(4) =   1
     Q(r) pseudized with 0 coefficients 


     PseudoPot. # 4 for O  read from file:
     /Users/gabrielmedrano/Desktop/q-e/Environ/tests/../..//pseudo/O.pbe-rrkjus.UPF
     MD5 check sum: fadcf19ee70a498d3030e2e79cf929a4
     Pseudo is Ultrasoft, Zval =  6.0
     Generated by new atomic code, or converted to UPF format
     Using radial grid of 1269 points,  4 beta functions with: 
                l(1) =   0
                l(2) =   0
                l(3) =   1
                l(4) =   1
     Q(r) pseudized with 0 coefficients 


     atomic species   valence    mass     pseudopotential
        C              4.00    12.00000     C ( 1.00)
        H              1.00     1.00000     H ( 1.00)
        N              5.00    14.00000     N ( 1.00)
        O              6.00    16.00000     O ( 1.00)

     No symmetry found



   Cartesian axes

     site n.     atom                  positions (alat units)
         1           C   tau(   1) = (   0.0000000   0.0000000   0.0000000  )
         2           C   tau(   2) = (   0.0000000   0.0000000   0.1455089  )
         3           N   tau(   3) = (   0.1170969   0.0000000  -0.0545024  )
         4           H   tau(   4) = (   0.0476617  -0.0825466   0.1792090  )
         5           H   tau(   5) = (  -0.0953183  -0.0000030   0.1792090  )
         6           H   tau(   6) = (   0.0476566   0.0825496   0.1792090  )
         7           O   tau(   7) = (  -0.0984002  -0.0000019  -0.0641310  )
         8           H   tau(   8) = (   0.1263131  -0.0000015  -0.1475548  )
         9           H   tau(   9) = (   0.1944645   0.0000134  -0.0025716  )
        10           H   tau(  10) = (  -0.0770366  -0.0000045  -0.1522861  )

     number of k points=     1
                       cart. coord. in units 2pi/alat
        k(    1) = (   0.0000000   0.0000000   0.0000000), wk =   2.0000000

     Dense  grid:   350738 G-vectors     FFT dimensions: ( 120, 120, 120)

     Smooth grid:    88755 G-vectors     FFT dimensions: (  72,  72,  72)

     Estimated max dynamical RAM per process >     624.11 MB

     Initial potential from superposition of free atoms

     starting charge   24.42266, renormalised to   24.00000

     negative rho (up, down):  4.438E-04 0.000E+00
     Starting wfcs are   22 randomized atomic wfcs

     total cpu time spent up to now is        6.2 secs

     Self-consistent Calculation

     iteration #  1     ecut=    30.00 Ry     beta= 0.70
     Davidson diagonalization with overlap
     ethr =  1.00E-02,  avg # of iterations =  2.0

     negative rho (up, down):  1.234E-04 0.000E+00

     add environment contribution to local potential
     polarization accuracy = 1.8E-06, # of iterations =  17

     total cpu time spent up to now is       12.5 secs

     total energy              =     -80.27427664 Ry
     estimated scf accuracy    <       3.64924908 Ry
     electrostatic embedding   =       0.00000000 Ry
     cavitation energy         =       0.00482850 Ry
     PV energy                 =       0.01652076 Ry
     correction to one-el term =      -0.00000000 Ry

     iteration #  2     ecut=    30.00 Ry     beta= 0.70
     Davidson diagonalization with overlap
     ethr =  1.00E-02,  avg # of iterations =  4.0

     negative rho (up, down):  4.955E-04 0.000E+00

     add environment contribution to local potential
     polarization accuracy = 9.1E-06, # of iterations =  19

     total cpu time spent up to now is       19.3 secs

     total energy              =     -81.16082381 Ry
     estimated scf accuracy    <       1.04892025 Ry
     electrostatic embedding   =      -0.17901983 Ry
     cavitation energy         =       0.00266884 Ry
     PV energy                 =       0.00636217 Ry
     correction to one-el term =      -4.90697644 Ry

     iteration #  3     ecut=    30.00 Ry     beta= 0.70
     Davidson diagonalization with overlap
     ethr =  4.37E-03,  avg # of iterations =  4.0

     negative rho (up, down):  2.249E-04 0.000E+00

     add environment contribution to local potential
     polarization accuracy = 5.7E-06, # of iterations =  21

     total cpu time spent up to now is       26.3 secs

     total energy              =     -81.33816180 Ry
     estimated scf accuracy    <       0.11552261 Ry
     electrostatic embedding   =      -0.14647564 Ry
     cavitation energy         =       0.00257866 Ry
     PV energy                 =       0.00590699 Ry
     correction to one-el term =      -4.20163125 Ry

     iteration #  4     ecut=    30.00 Ry     beta= 0.70
     Davidson diagonalization with overlap
     ethr =  4.81E-04,  avg # of iterations =  5.0

     negative rho (up, down):  1.263E-04 0.000E+00

     add environment contribution to local potential
     polarization accuracy = 4.6E-06, # of iterations =  22

     total cpu time spent up to now is       34.2 secs

     total energy              =     -81.37013725 Ry
     estimated scf accuracy    <       0.01961323 Ry
     electrostatic embedding   =      -0.12445860 Ry
     cavitation energy         =       0.00252026 Ry
     PV energy                 =       0.00562833 Ry
     correction to one-el term =      -3.96018796 Ry

     iteration #  5     ecut=    30.00 Ry     beta= 0.70
     Davidson diagonalization with overlap
     ethr =  8.17E-05,  avg # of iterations =  4.0

     negative rho (up, down):  7.670E-05 0.000E+00

     add environment contribution to local potential
     polarization accuracy = 4.9E-06, # of iterations =  22

     total cpu time spent up to now is       42.5 secs

     total energy              =     -81.37472457 Ry
     estimated scf accuracy    <       0.00176356 Ry
     electrostatic embedding   =      -0.11864643 Ry
     cavitation energy         =       0.00247948 Ry
     PV energy                 =       0.00543919 Ry
     correction to one-el term =      -3.74018774 Ry

     iteration #  6     ecut=    30.00 Ry     beta= 0.70
     Davidson diagonalization with overlap
     ethr =  7.35E-06,  avg # of iterations =  2.0

     negative rho (up, down):  2.790E-04 0.000E+00

     the potential shift due to the Gaussian-smeared nuclei is    -0.0668 ev

     total cpu time spent up to now is       46.6 secs

     End of self-consistent calculation

          k = 0.0000 0.0000 0.0000 ( 11060 PWs)   bands (ev):

   -29.0206 -23.1373 -18.6626 -16.0863 -14.6820 -13.4309 -11.7237 -11.0034
    -9.6428  -9.6350  -9.3692  -7.4336

     highest occupied level (ev):    -7.4336

!    total energy              =     -81.37516218 Ry
     estimated scf accuracy    <       0.00024037 Ry

     The total energy is the sum of the following terms:
     one-electron contribution =    -242.06880010 Ry
     hartree contribution      =     123.18394202 Ry
     xc contribution           =     -22.96942740 Ry
     ewald contribution        =      64.30784069 Ry
     electrostatic embedding   =      -0.11934306 Ry
     cavitation energy         =       0.00248197 Ry
     PV energy                 =       0.00544573 Ry
     correction to one-el term =      -3.71730204 Ry

     convergence has been achieved in   6 iterations
 forces lc
       1    0.0498    0.0000   -0.0905
       2    0.0468    0.0000   -0.0517
       3    0.0149    0.0000   -0.0955
       4    0.0122   -0.0005   -0.0131
       5    0.0054    0.0000   -0.0072
       6    0.0122    0.0005   -0.0131
       7    0.1942   -0.0000   -0.2239
       8   -0.0157    0.0000   -0.0416
       9    0.0259    0.0000    0.0077
      10    0.0382   -0.0000   -0.0825

     Forces acting on atoms (cartesian axes, Ry/au):

     atom    1 type  1   force =     0.22026139   -0.00000088    0.09790896
     atom    2 type  1   force =    -0.03123271    0.00000494   -0.08059758
     atom    3 type  3   force =    -0.13857966   -0.00000512    0.04309109
     atom    4 type  2   force =     0.01799760   -0.02771921    0.00813912
     atom    5 type  2   force =    -0.03111898   -0.00000155    0.01133395
     atom    6 type  2   force =     0.01799656    0.02771830    0.00813817
     atom    7 type  4   force =    -0.09041314    0.00000054   -0.00408599
     atom    8 type  2   force =     0.00706905    0.00000115   -0.04999956
     atom    9 type  2   force =     0.04024056    0.00000296    0.03523190
     atom   10 type  2   force =    -0.01222067   -0.00000112   -0.06916005

     Total force =     0.329518     Total SCF correction =     0.017421

     Writing output data file /Users/gabrielmedrano/Desktop/q-e/Environ/tests/../..//tempdir/pwscf.save/

     init_run     :      5.57s CPU      6.09s WALL (       1 calls)
     electrons    :     40.78s CPU     40.48s WALL (       1 calls)
     forces       :      1.45s CPU      1.61s WALL (       1 calls)

     Called by init_run:
     wfcinit      :      0.12s CPU      0.12s WALL (       1 calls)
     potinit      :      2.03s CPU      2.20s WALL (       1 calls)
     hinit0       :      2.76s CPU      2.85s WALL (       1 calls)

     Called by electrons:
     c_bands      :      1.36s CPU      1.12s WALL (       6 calls)
     sum_band     :      8.08s CPU      4.81s WALL (       6 calls)
     v_of_rho     :      4.10s CPU      4.78s WALL (       7 calls)
     newd         :      2.76s CPU      3.89s WALL (       7 calls)
     mix_rho      :      0.42s CPU      0.47s WALL (       6 calls)

     Called by c_bands:
     init_us_2    :      0.05s CPU      0.05s WALL (      13 calls)
     regterg      :      1.30s CPU      1.06s WALL (       6 calls)

     Called by *egterg:
     rdiaghg      :      0.00s CPU      0.00s WALL (      27 calls)
     h_psi        :      1.17s CPU      1.06s WALL (      28 calls)
     s_psi        :      0.08s CPU      0.01s WALL (      28 calls)
     g_psi        :      0.01s CPU      0.01s WALL (      21 calls)

     Called by h_psi:
     h_psi:calbec :      0.03s CPU      0.03s WALL (      28 calls)
     vloc_psi     :      0.97s CPU      0.98s WALL (      28 calls)
     add_vuspsi   :      0.16s CPU      0.05s WALL (      28 calls)

     General routines
     calbec       :      0.05s CPU      0.04s WALL (      38 calls)
     fft          :     17.82s CPU     18.57s WALL (     416 calls)
     ffts         :      0.07s CPU      0.07s WALL (      13 calls)
     fftw         :      0.88s CPU      0.88s WALL (     280 calls)
     interpolate  :      0.33s CPU      0.36s WALL (       7 calls)

     Parallel routines
     fft_scatt_xy :      1.65s CPU      1.66s WALL (     335 calls)
     fft_scatt_yz :      2.18s CPU      2.19s WALL (     335 calls)

     Environ routines
     calc_eelect  :      0.03s CPU      0.03s WALL (      12 calls)
     calc_velect  :     14.92s CPU     15.69s WALL (      10 calls)
     dielectric   :      0.35s CPU      0.40s WALL (       8 calls)
     calc_felect  :      0.34s CPU      0.36s WALL (       1 calls)

     PWSCF        :     47.89s CPU     48.37s WALL


   This run was terminated on:  11:29: 4  22Apr2021            

=------------------------------------------------------------------------------=
   JOB DONE.
=------------------------------------------------------------------------------=
 Calling electrostatic_initbase now
 electrolyte_distance:    0.0000000000000000     
 sc_distance:    0.0000000000000000     
 velectrostatic started
 vreference created

%%%% IONS %%%%%%%%%%%%%%%%%%%%%%%%%%%%%%%%%%%%%%%%%%%%%%%%%%%%%%%%%%%%%%%%%%%%%%
 number of ions             =         10
 ionic center of charge     =      0.0095530    -0.0000002     0.0063981
 total ionic charge         =    -25.0000000
 ionic dipole               =      0.0000000     0.0000000     0.0000000
 ionic quadrupole (pc)      =    -79.0828051    -5.4513517  -105.8059620
 ionic quadrupole (gauss)   =    -82.2078051    -8.5763517  -108.9309620
 ion   1 type =  1 coordinates =      0.0000000     0.0000000     0.0000000
 ion   2 type =  1 coordinates =      0.0000000     0.0000000     2.9101782
 ion   3 type =  3 coordinates =      2.3419379     0.0000000    -1.0900479
 ion   4 type =  2 coordinates =      0.9532347    -1.6509323     3.5841800
 ion   5 type =  2 coordinates =     -1.9063663    -0.0000596     3.5841809
 ion   6 type =  2 coordinates =      0.9531315     1.6509919     3.5841800
 ion   7 type =  4 coordinates =     -1.9680045    -0.0000375    -1.2826193
 ion   8 type =  2 coordinates =      2.5262613    -0.0000303    -2.9510950
 ion   9 type =  2 coordinates =      3.8892907     0.0002681    -0.0514326
 ion  10 type =  2 coordinates =     -1.5407317    -0.0000890    -3.0457220

%%%% SYSTEM %%%%%%%%%%%%%%%%%%%%%%%%%%%%%%%%%%%%%%%%%%%%%%%%%%%%%%%%%%%%%%%%%%%%
 system is built from all present ionic types
 system defined dimension   =  0 
 system defined axis        =  3 
 system center              =      0.0095530    -0.0000002     0.0063981 
 system width               =      0.2021425 

%%%% IONS %%%%%%%%%%%%%%%%%%%%%%%%%%%%%%%%%%%%%%%%%%%%%%%%%%%%%%%%%%%%%%%%%%%%%%
 number of ions             =         10
 ionic center of charge     =      0.0095530    -0.0000002     0.0063981
 total ionic charge         =    -25.0000000
 ionic dipole               =      0.0000000     0.0000000     0.0000000
 ionic quadrupole (pc)      =    -79.0828051    -5.4513517  -105.8059620
 ionic quadrupole (gauss)   =    -82.2078051    -8.5763517  -108.9309620
 ion   1 type =  1 coordinates =      0.0000000     0.0000000     0.0000000
 ion   2 type =  1 coordinates =      0.0000000     0.0000000     2.9101782
 ion   3 type =  3 coordinates =      2.3419379     0.0000000    -1.0900479
 ion   4 type =  2 coordinates =      0.9532347    -1.6509323     3.5841800
 ion   5 type =  2 coordinates =     -1.9063663    -0.0000596     3.5841809
 ion   6 type =  2 coordinates =      0.9531315     1.6509919     3.5841800
 ion   7 type =  4 coordinates =     -1.9680045    -0.0000375    -1.2826193
 ion   8 type =  2 coordinates =      2.5262613    -0.0000303    -2.9510950
 ion   9 type =  2 coordinates =      3.8892907     0.0002681    -0.0514326
 ion  10 type =  2 coordinates =     -1.5407317    -0.0000890    -3.0457220

%%%% SYSTEM %%%%%%%%%%%%%%%%%%%%%%%%%%%%%%%%%%%%%%%%%%%%%%%%%%%%%%%%%%%%%%%%%%%%
 system is built from all present ionic types
 system defined dimension   =  0 
 system defined axis        =  3 
 system center              =      0.0095530    -0.0000002     0.0063981 
 system width               =      0.2021425 

%%%% ELECTRONS %%%%%%%%%%%%%%%%%%%%%%%%%%%%%%%%%%%%%%%%%%%%%%%%%%%%%%%%%%%%%%%%%
 number of electrons        =         24
 total electronic charge    =     24.0000000

%%%% ELECTRONS %%%%%%%%%%%%%%%%%%%%%%%%%%%%%%%%%%%%%%%%%%%%%%%%%%%%%%%%%%%%%%%%%
 number of electrons        =         24
 total electronic charge    =     24.0000000

%%%% BOUNDARY %%%%%%%%%%%%%%%%%%%%%%%%%%%%%%%%%%%%%%%%%%%%%%%%%%%%%%%%%%%%%%%%%%
 boundary label             = solvent              
 boundary mode              = electronic           
 boundary is built as a function of a smooth density
 function type              =  2 
 using the modified SCCS function with parameters 
 rhomax                     =      0.0035000 
 rhomin                     =      0.0002000 
 volume of the QM region    =   1944.2296149 
 surface of the QM region   =    751.7453182 

%%%% DIELECTRIC %%%%%%%%%%%%%%%%%%%%%%%%%%%%%%%%%%%%%%%%%%%%%%%%%%%%%%%%%%%%%%%%%
 dielectric build on homogeneous background
 environment bulk permitt.  =     78.3000000 
 dielectric flags
 need gradient              =  F 
 need factor depend. sqrt   =  T 
 total dielectric charge    =      0.0000000

%%%% DENSITY %%%%%%%%%%%%%%%%%%%%%%%%%%%%%%%%%%%%%%%%%%%%%%%%%%%%%%%%%%%%%%%%%%%
 density label              = dvtot                                                                           
 integral of density        =      0.000000000    

%%%% DENSITY %%%%%%%%%%%%%%%%%%%%%%%%%%%%%%%%%%%%%%%%%%%%%%%%%%%%%%%%%%%%%%%%%%%
 density label              = vreference                                                                      
 integral of density        =      0.000000000    

%%%% DENSITY %%%%%%%%%%%%%%%%%%%%%%%%%%%%%%%%%%%%%%%%%%%%%%%%%%%%%%%%%%%%%%%%%%%
 density label              = velectrostatic                                                                  
 integral of density        =      0.000000000    

%%%% CHARGES %%%%%%%%%%%%%%%%%%%%%%%%%%%%%%%%%%%%%%%%%%%%%%%%%%%%%%%%%%%%%%%%%%%
 total number of charges    =         34
 total charge               =     -1.0000000

%%%% DENSITY %%%%%%%%%%%%%%%%%%%%%%%%%%%%%%%%%%%%%%%%%%%%%%%%%%%%%%%%%%%%%%%%%%%
 density label              = vsoftcavity                                                                     
 integral of density        =      0.000000000    

%%%% ELECTRONS %%%%%%%%%%%%%%%%%%%%%%%%%%%%%%%%%%%%%%%%%%%%%%%%%%%%%%%%%%%%%%%%%
 number of electrons        =         24
 total electronic charge    =     24.0000000

%%%% ELECTRONS %%%%%%%%%%%%%%%%%%%%%%%%%%%%%%%%%%%%%%%%%%%%%%%%%%%%%%%%%%%%%%%%%
 number of electrons        =         24
 total electronic charge    =     24.0000000

%%%% BOUNDARY %%%%%%%%%%%%%%%%%%%%%%%%%%%%%%%%%%%%%%%%%%%%%%%%%%%%%%%%%%%%%%%%%%
 boundary label             = solvent              
 boundary mode              = electronic           
 boundary is built as a function of a smooth density
 function type              =  2 
 using the modified SCCS function with parameters 
 rhomax                     =      0.0035000 
 rhomin                     =      0.0002000 
 volume of the QM region    =    748.7263371 
 surface of the QM region   =    415.5097040 

%%%% DIELECTRIC %%%%%%%%%%%%%%%%%%%%%%%%%%%%%%%%%%%%%%%%%%%%%%%%%%%%%%%%%%%%%%%%%
 dielectric build on homogeneous background
 environment bulk permitt.  =     78.3000000 
 dielectric flags
 need gradient              =  F 
 need factor depend. sqrt   =  T 
 total dielectric charge    =      0.0000000

%%%% DENSITY %%%%%%%%%%%%%%%%%%%%%%%%%%%%%%%%%%%%%%%%%%%%%%%%%%%%%%%%%%%%%%%%%%%
 density label              = vreference                                                                      
 integral of density        =    -0.2399915657E-11

%%%% COMPUTE ELECTROSTATIC POTENTIAL %%%%%%%%%%%%%%%%%%%%%%%%%%%%%%%%%%%%%%%%%%%
 Iteration #          1
  pAp =    92.908452516083372       rzold =    89.431917380007192       alpha =   0.96258106725570147     
 delta_qm =   0.218762E-01 delta_en =   0.826965E+03 tol =   0.100000E-04
 Iteration #          2
  pAp =    246.83084020436974       rzold =    26.694338000407516       alpha =   0.10814830909421722     
 delta_qm =   0.410401E-02 delta_en =   0.291046E+02 tol =   0.100000E-04
 Iteration #          3
  pAp =    1.6543070308133969       rzold =   0.29534674994136856       alpha =   0.17853200430161453     
 delta_qm =   0.173783E-02 delta_en =   0.521865E+01 tol =   0.100000E-04
 Iteration #          4
  pAp =   0.19445935498904057       rzold =    3.3261446726543846E-002  alpha =   0.17104575261199653     
 delta_qm =   0.128182E-02 delta_en =   0.283919E+01 tol =   0.100000E-04
 Iteration #          5
  pAp =    1.7214363728291490E-002  rzold =    5.1055766342263231E-003  alpha =   0.29658816990345116     
 delta_qm =   0.841921E-03 delta_en =   0.122486E+01 tol =   0.100000E-04
 Iteration #          6
  pAp =    5.1521254684516096E-003  rzold =    2.0735277906566746E-003  alpha =   0.40246065499640110     
 delta_qm =   0.405919E-03 delta_en =   0.284723E+00 tol =   0.100000E-04
 Iteration #          7
  pAp =    1.4550065983214781E-003  rzold =    5.7364213667332508E-004  alpha =   0.39425397612291863     
 delta_qm =   0.264157E-03 delta_en =   0.120578E+00 tol =   0.100000E-04
 Iteration #          8
  pAp =    1.2718964766706327E-003  rzold =    3.4688459644227626E-004  alpha =   0.27273021256438679     
 delta_qm =   0.179894E-03 delta_en =   0.559213E-01 tol =   0.100000E-04
 Iteration #          9
  pAp =    6.5874614160973206E-004  rzold =    2.3409393295672749E-004  alpha =   0.35536289045228936     
 delta_qm =   0.102964E-03 delta_en =   0.183197E-01 tol =   0.100000E-04
 Iteration #         10
  pAp =    2.3751884372803970E-004  rzold =    8.8703343017573419E-005  alpha =   0.37345812915433019     
 delta_qm =   0.428978E-04 delta_en =   0.317990E-02 tol =   0.100000E-04
 Iteration #         11
  pAp =    2.6493251749905761E-005  rzold =    1.0452308700438897E-005  alpha =   0.39452721014044928     
 delta_qm =   0.230578E-04 delta_en =   0.918713E-03 tol =   0.100000E-04
 Iteration #         12
  pAp =    2.6469117057134377E-006  rzold =    1.1881159575455571E-006  alpha =   0.44886875334034504     
 delta_qm =   0.157775E-04 delta_en =   0.430148E-03 tol =   0.100000E-04
 Iteration #         13
  pAp =    9.2552889889533424E-007  rzold =    4.7500806351085804E-007  alpha =   0.51322877554423674     
 delta_qm =   0.932718E-05 delta_en =   0.150330E-03 tol =   0.100000E-04
 Iteration #         14
  pAp =    1.0603987866984088E-006  rzold =    3.6932657280205930E-007  alpha =   0.34829026346962483     
 delta_qm =   0.672250E-05 delta_en =   0.780917E-04 tol =   0.100000E-04
 Iteration #         15
  pAp =    4.6313119810485436E-007  rzold =    1.7166929333758234E-007  alpha =   0.37067097625912016     
 delta_qm =   0.463626E-05 delta_en =   0.371432E-04 tol =   0.100000E-04
 Iteration #         16
  pAp =    1.7408996161831048E-007  rzold =    6.7407004836726320E-008  alpha =   0.38719639093559644     
 delta_qm =   0.261671E-05 delta_en =   0.118319E-04 tol =   0.100000E-04
 Iteration #         17
  pAp =    3.4630679141368265E-008  rzold =    1.6539923528658352E-008  alpha =   0.47760898540682956     
 delta_qm =   0.101752E-05 delta_en =   0.178907E-05 tol =   0.100000E-04
 Charges are converged, EXIT

%%%% DENSITY %%%%%%%%%%%%%%%%%%%%%%%%%%%%%%%%%%%%%%%%%%%%%%%%%%%%%%%%%%%%%%%%%%%
 density label              = velectrostatic                                                                  
 integral of density        =    -0.1184490366E-10

%%%% CHARGES %%%%%%%%%%%%%%%%%%%%%%%%%%%%%%%%%%%%%%%%%%%%%%%%%%%%%%%%%%%%%%%%%%%
 total number of charges    =         34
 total charge               =     -1.0000000

%%%% DENSITY %%%%%%%%%%%%%%%%%%%%%%%%%%%%%%%%%%%%%%%%%%%%%%%%%%%%%%%%%%%%%%%%%%%
 density label              = vsoftcavity                                                                     
 integral of density        =      78.47693705    

%%%% DENSITY %%%%%%%%%%%%%%%%%%%%%%%%%%%%%%%%%%%%%%%%%%%%%%%%%%%%%%%%%%%%%%%%%%%
 density label              = dvtot                                                                           
 integral of density        =      78.47693705    

%%%% ELECTRONS %%%%%%%%%%%%%%%%%%%%%%%%%%%%%%%%%%%%%%%%%%%%%%%%%%%%%%%%%%%%%%%%%
 number of electrons        =         24
 total electronic charge    =     24.0000000

%%%% ELECTRONS %%%%%%%%%%%%%%%%%%%%%%%%%%%%%%%%%%%%%%%%%%%%%%%%%%%%%%%%%%%%%%%%%
 number of electrons        =         24
 total electronic charge    =     24.0000000

%%%% BOUNDARY %%%%%%%%%%%%%%%%%%%%%%%%%%%%%%%%%%%%%%%%%%%%%%%%%%%%%%%%%%%%%%%%%%
 boundary label             = solvent              
 boundary mode              = electronic           
 boundary is built as a function of a smooth density
 function type              =  2 
 using the modified SCCS function with parameters 
 rhomax                     =      0.0035000 
 rhomin                     =      0.0002000 
 volume of the QM region    =    695.1585967 
 surface of the QM region   =    401.4699445 

%%%% DIELECTRIC %%%%%%%%%%%%%%%%%%%%%%%%%%%%%%%%%%%%%%%%%%%%%%%%%%%%%%%%%%%%%%%%%
 dielectric build on homogeneous background
 environment bulk permitt.  =     78.3000000 
 dielectric flags
 need gradient              =  F 
 need factor depend. sqrt   =  T 
 total dielectric charge    =      0.9785100

%%%% DENSITY %%%%%%%%%%%%%%%%%%%%%%%%%%%%%%%%%%%%%%%%%%%%%%%%%%%%%%%%%%%%%%%%%%%
 density label              = vreference                                                                      
 integral of density        =    -0.7550092239E-12

%%%% COMPUTE ELECTROSTATIC POTENTIAL %%%%%%%%%%%%%%%%%%%%%%%%%%%%%%%%%%%%%%%%%%%
 Warning: bad guess with residual norm =   0.159391E+04, reset to no guess
 Iteration #          1
  pAp =    95.902946135013138       rzold =    92.632219878558587       alpha =   0.96589545589298176     
 delta_qm =   0.294306E-01 delta_en =   0.149673E+04 tol =   0.100000E-04
 Iteration #          2
  pAp =    319.88474797408838       rzold =    29.844914388787927       alpha =    9.3298960259291436E-002
 delta_qm =   0.516669E-02 delta_en =   0.461284E+02 tol =   0.100000E-04
 Iteration #          3
  pAp =    2.1649077629609095       rzold =   0.31917455779633302       alpha =   0.14743101912101933     
 delta_qm =   0.218399E-02 delta_en =   0.824223E+01 tol =   0.100000E-04
 Iteration #          4
  pAp =   0.21718254586584435       rzold =    3.1683363712704256E-002  alpha =   0.14588356346221010     
 delta_qm =   0.174163E-02 delta_en =   0.524152E+01 tol =   0.100000E-04
 Iteration #          5
  pAp =    1.7530864851364431E-002  rzold =    5.0037197432150644E-003  alpha =   0.28542343949594845     
 delta_qm =   0.120870E-02 delta_en =   0.252453E+01 tol =   0.100000E-04
 Iteration #          6
  pAp =    6.4926383364642421E-003  rzold =    2.3933762802858592E-003  alpha =   0.36862923148576959     
 delta_qm =   0.673786E-03 delta_en =   0.784490E+00 tol =   0.100000E-04
 Iteration #          7
  pAp =    2.2970749688856038E-003  rzold =    8.7578671204988176E-004  alpha =   0.38126170190899705     
 delta_qm =   0.466187E-03 delta_en =   0.375546E+00 tol =   0.100000E-04
 Iteration #          8
  pAp =    1.0824231495234896E-003  rzold =    4.6073388027748248E-004  alpha =   0.42565043114636758     
 delta_qm =   0.278950E-03 delta_en =   0.134461E+00 tol =   0.100000E-04
 Iteration #          9
  pAp =    1.9055348203559760E-003  rzold =    4.5331200295973823E-004  alpha =   0.23789226946535372     
 delta_qm =   0.218579E-03 delta_en =   0.825586E-01 tol =   0.100000E-04
 Iteration #         10
  pAp =    1.0090645641316865E-003  rzold =    2.9129696721730481E-004  alpha =   0.28868020696769758     
 delta_qm =   0.895224E-04 delta_en =   0.138487E-01 tol =   0.100000E-04
 Iteration #         11
  pAp =    1.0974169714531853E-004  rzold =    3.8082682760266949E-005  alpha =   0.34702108451847941     
 delta_qm =   0.521464E-04 delta_en =   0.469886E-02 tol =   0.100000E-04
 Iteration #         12
  pAp =    2.3915873332827897E-005  rzold =    6.9303922244324869E-006  alpha =   0.28978210947954591     
 delta_qm =   0.374109E-04 delta_en =   0.241847E-02 tol =   0.100000E-04
 Iteration #         13
  pAp =    4.3637483158912975E-006  rzold =    1.8383467009965161E-006  alpha =   0.42127697747871440     
 delta_qm =   0.249297E-04 delta_en =   0.107394E-02 tol =   0.100000E-04
 Iteration #         14
  pAp =    2.8775692366800959E-006  rzold =    1.1426120965252654E-006  alpha =   0.39707544894506791     
 delta_qm =   0.174754E-04 delta_en =   0.527715E-03 tol =   0.100000E-04
 Iteration #         15
  pAp =    1.8904982639566899E-006  rzold =    6.8232826459355066E-007  alpha =   0.36092509451211130     
 delta_qm =   0.124319E-04 delta_en =   0.267064E-03 tol =   0.100000E-04
 Iteration #         16
  pAp =    9.5771094031966646E-007  rzold =    3.3004642930732741E-007  alpha =   0.34462008881005779     
 delta_qm =   0.866492E-05 delta_en =   0.129740E-03 tol =   0.100000E-04
 Iteration #         17
  pAp =    5.9307007419371628E-007  rzold =    1.5535230902177148E-007  alpha =   0.26194595846532004     
 delta_qm =   0.618220E-05 delta_en =   0.660436E-04 tol =   0.100000E-04
 Iteration #         18
  pAp =    1.7393333900749197E-007  rzold =    6.5862214462406846E-008  alpha =   0.37866354339101094     
 delta_qm =   0.358795E-05 delta_en =   0.222452E-04 tol =   0.100000E-04
 Iteration #         19
  pAp =    3.7088889353306505E-008  rzold =    1.8264818676179586E-008  alpha =   0.49246065316731469     
 delta_qm =   0.229981E-05 delta_en =   0.913959E-05 tol =   0.100000E-04
 Charges are converged, EXIT

%%%% DENSITY %%%%%%%%%%%%%%%%%%%%%%%%%%%%%%%%%%%%%%%%%%%%%%%%%%%%%%%%%%%%%%%%%%%
 density label              = velectrostatic                                                                  
 integral of density        =    -0.6501326226E-11

%%%% CHARGES %%%%%%%%%%%%%%%%%%%%%%%%%%%%%%%%%%%%%%%%%%%%%%%%%%%%%%%%%%%%%%%%%%%
 total number of charges    =         34
 total charge               =     -1.0000000

%%%% DENSITY %%%%%%%%%%%%%%%%%%%%%%%%%%%%%%%%%%%%%%%%%%%%%%%%%%%%%%%%%%%%%%%%%%%
 density label              = vsoftcavity                                                                     
 integral of density        =      52.37192535    

%%%% DENSITY %%%%%%%%%%%%%%%%%%%%%%%%%%%%%%%%%%%%%%%%%%%%%%%%%%%%%%%%%%%%%%%%%%%
 density label              = dvtot                                                                           
 integral of density        =      52.37192535    

%%%% ELECTRONS %%%%%%%%%%%%%%%%%%%%%%%%%%%%%%%%%%%%%%%%%%%%%%%%%%%%%%%%%%%%%%%%%
 number of electrons        =         24
 total electronic charge    =     24.0000000

%%%% ELECTRONS %%%%%%%%%%%%%%%%%%%%%%%%%%%%%%%%%%%%%%%%%%%%%%%%%%%%%%%%%%%%%%%%%
 number of electrons        =         24
 total electronic charge    =     24.0000000

%%%% BOUNDARY %%%%%%%%%%%%%%%%%%%%%%%%%%%%%%%%%%%%%%%%%%%%%%%%%%%%%%%%%%%%%%%%%%
 boundary label             = solvent              
 boundary mode              = electronic           
 boundary is built as a function of a smooth density
 function type              =  2 
 using the modified SCCS function with parameters 
 rhomax                     =      0.0035000 
 rhomin                     =      0.0002000 
 volume of the QM region    =    662.3646259 
 surface of the QM region   =    392.3770864 

%%%% DIELECTRIC %%%%%%%%%%%%%%%%%%%%%%%%%%%%%%%%%%%%%%%%%%%%%%%%%%%%%%%%%%%%%%%%%
 dielectric build on homogeneous background
 environment bulk permitt.  =     78.3000000 
 dielectric flags
 need gradient              =  F 
 need factor depend. sqrt   =  T 
 total dielectric charge    =      0.9783070

%%%% DENSITY %%%%%%%%%%%%%%%%%%%%%%%%%%%%%%%%%%%%%%%%%%%%%%%%%%%%%%%%%%%%%%%%%%%
 density label              = vreference                                                                      
 integral of density        =     0.4085003940E-11

%%%% COMPUTE ELECTROSTATIC POTENTIAL %%%%%%%%%%%%%%%%%%%%%%%%%%%%%%%%%%%%%%%%%%%
 Warning: bad guess with residual norm =   0.234504E+04, reset to no guess
 Iteration #          1
  pAp =    96.544958296728325       rzold =    93.476806546163274       alpha =   0.96822048706950425     
 delta_qm =   0.357366E-01 delta_en =   0.220684E+04 tol =   0.100000E-04
 Iteration #          2
  pAp =    384.47659029143585       rzold =    31.881286041572952       alpha =    8.2921267111234834E-002
 delta_qm =   0.594081E-02 delta_en =   0.609868E+02 tol =   0.100000E-04
 Iteration #          3
  pAp =    2.3078302227730063       rzold =   0.34155747442294332       alpha =   0.14799939399898318     
 delta_qm =   0.242448E-02 delta_en =   0.101573E+02 tol =   0.100000E-04
 Iteration #          4
  pAp =   0.17470239272479712       rzold =    2.5344881110981269E-002  alpha =   0.14507460782695872     
 delta_qm =   0.192958E-02 delta_en =   0.643385E+01 tol =   0.100000E-04
 Iteration #          5
  pAp =    2.7220233205178593E-002  rzold =    5.8077628439658921E-003  alpha =   0.21336197967844658     
 delta_qm =   0.145921E-02 delta_en =   0.367940E+01 tol =   0.100000E-04
 Iteration #          6
  pAp =    7.7556063278345997E-003  rzold =    2.5507272176205050E-003  alpha =   0.32888817583043561     
 delta_qm =   0.892329E-03 delta_en =   0.137592E+01 tol =   0.100000E-04
 Iteration #          7
  pAp =    3.2439829525629056E-003  rzold =    1.1395165301480955E-003  alpha =   0.35127081332157484     
 delta_qm =   0.624885E-03 delta_en =   0.674751E+00 tol =   0.100000E-04
 Iteration #          8
  pAp =    1.5609707500733110E-003  rzold =    5.8477713384649734E-004  alpha =   0.37462401766274817     
 delta_qm =   0.392056E-03 delta_en =   0.265608E+00 tol =   0.100000E-04
 Iteration #          9
  pAp =    2.3647474665829155E-003  rzold =    5.6928167901272098E-004  alpha =   0.24073677509224226     
 delta_qm =   0.351252E-03 delta_en =   0.213197E+00 tol =   0.100000E-04
 Iteration #         10
  pAp =    1.5999418318988006E-003  rzold =    4.7566181224551314E-004  alpha =   0.29729944099342709     
 delta_qm =   0.157696E-03 delta_en =   0.429717E-01 tol =   0.100000E-04
 Iteration #         11
  pAp =    3.8349970199614582E-004  rzold =    1.1448448561802466E-004  alpha =   0.29852561820028539     
 delta_qm =   0.961418E-04 delta_en =   0.159723E-01 tol =   0.100000E-04
 Iteration #         12
  pAp =    1.4829032727266318E-004  rzold =    3.3237104912832315E-005  alpha =   0.22413535342543855     
 delta_qm =   0.680503E-04 delta_en =   0.800209E-02 tol =   0.100000E-04
 Iteration #         13
  pAp =    1.8547829349651553E-005  rzold =    6.0750229906459829E-006  alpha =   0.32753282748744456     
 delta_qm =   0.483730E-04 delta_en =   0.404343E-02 tol =   0.100000E-04
 Iteration #         14
  pAp =    6.6007702014553295E-006  rzold =    2.6962156358968645E-006  alpha =   0.40846985330627117     
 delta_qm =   0.354938E-04 delta_en =   0.217696E-02 tol =   0.100000E-04
 Iteration #         15
  pAp =    3.2615498084239886E-006  rzold =    1.4978569584313937E-006  alpha =   0.45924699802612312     
 delta_qm =   0.208069E-04 delta_en =   0.748095E-03 tol =   0.100000E-04
 Iteration #         16
  pAp =    2.2732081039810344E-006  rzold =    8.5156260421265896E-007  alpha =   0.37460829156878794     
 delta_qm =   0.143541E-04 delta_en =   0.356036E-03 tol =   0.100000E-04
 Iteration #         17
  pAp =    5.6869811113893138E-007  rzold =    2.4245078347078397E-007  alpha =   0.42632598688472506     
 delta_qm =   0.879379E-05 delta_en =   0.133628E-03 tol =   0.100000E-04
 Iteration #         18
  pAp =    4.5238435262547808E-007  rzold =    1.0768926533635129E-007  alpha =   0.23804816570546936     
 delta_qm =   0.617806E-05 delta_en =   0.659551E-04 tol =   0.100000E-04
 Iteration #         19
  pAp =    2.0771231349646213E-007  rzold =    6.2003108677763839E-008  alpha =   0.29850473298406505     
 delta_qm =   0.391541E-05 delta_en =   0.264910E-04 tol =   0.100000E-04
 Iteration #         20
  pAp =    3.2965575254832945E-008  rzold =    1.4840490139906055E-008  alpha =   0.45018144003813049     
 delta_qm =   0.281254E-05 delta_en =   0.136691E-04 tol =   0.100000E-04
 Iteration #         21
  pAp =    1.4333527583385701E-008  rzold =    7.5927867378151080E-009  alpha =   0.52972212832074006     
 delta_qm =   0.181640E-05 delta_en =   0.570118E-05 tol =   0.100000E-04
 Charges are converged, EXIT

%%%% DENSITY %%%%%%%%%%%%%%%%%%%%%%%%%%%%%%%%%%%%%%%%%%%%%%%%%%%%%%%%%%%%%%%%%%%
 density label              = velectrostatic                                                                  
 integral of density        =     0.1849088783E-11

%%%% CHARGES %%%%%%%%%%%%%%%%%%%%%%%%%%%%%%%%%%%%%%%%%%%%%%%%%%%%%%%%%%%%%%%%%%%
 total number of charges    =         34
 total charge               =     -1.0000000

%%%% DENSITY %%%%%%%%%%%%%%%%%%%%%%%%%%%%%%%%%%%%%%%%%%%%%%%%%%%%%%%%%%%%%%%%%%%
 density label              = vsoftcavity                                                                     
 integral of density        =      40.76187358    

%%%% DENSITY %%%%%%%%%%%%%%%%%%%%%%%%%%%%%%%%%%%%%%%%%%%%%%%%%%%%%%%%%%%%%%%%%%%
 density label              = dvtot                                                                           
 integral of density        =      40.76187358    

%%%% ELECTRONS %%%%%%%%%%%%%%%%%%%%%%%%%%%%%%%%%%%%%%%%%%%%%%%%%%%%%%%%%%%%%%%%%
 number of electrons        =         24
 total electronic charge    =     24.0000000

%%%% ELECTRONS %%%%%%%%%%%%%%%%%%%%%%%%%%%%%%%%%%%%%%%%%%%%%%%%%%%%%%%%%%%%%%%%%
 number of electrons        =         24
 total electronic charge    =     24.0000000

%%%% BOUNDARY %%%%%%%%%%%%%%%%%%%%%%%%%%%%%%%%%%%%%%%%%%%%%%%%%%%%%%%%%%%%%%%%%%
 boundary label             = solvent              
 boundary mode              = electronic           
 boundary is built as a function of a smooth density
 function type              =  2 
 using the modified SCCS function with parameters 
 rhomax                     =      0.0035000 
 rhomin                     =      0.0002000 
 volume of the QM region    =    640.1057622 
 surface of the QM region   =    386.0291977 

%%%% DIELECTRIC %%%%%%%%%%%%%%%%%%%%%%%%%%%%%%%%%%%%%%%%%%%%%%%%%%%%%%%%%%%%%%%%%
 dielectric build on homogeneous background
 environment bulk permitt.  =     78.3000000 
 dielectric flags
 need gradient              =  F 
 need factor depend. sqrt   =  T 
 total dielectric charge    =      0.9788380

%%%% DENSITY %%%%%%%%%%%%%%%%%%%%%%%%%%%%%%%%%%%%%%%%%%%%%%%%%%%%%%%%%%%%%%%%%%%
 density label              = vreference                                                                      
 integral of density        =    -0.6136293120E-11

%%%% COMPUTE ELECTROSTATIC POTENTIAL %%%%%%%%%%%%%%%%%%%%%%%%%%%%%%%%%%%%%%%%%%%
 Warning: bad guess with residual norm =   0.341717E+04, reset to no guess
 Iteration #          1
  pAp =    96.480744341958413       rzold =    93.393289359074174       alpha =   0.96799926240264778     
 delta_qm =   0.431042E-01 delta_en =   0.321057E+04 tol =   0.100000E-04
 Iteration #          2
  pAp =    446.85145480610350       rzold =    34.531974160002235       alpha =    7.7278419458175984E-002
 delta_qm =   0.704537E-02 delta_en =   0.857732E+02 tol =   0.100000E-04
 Iteration #          3
  pAp =    3.0935933650513059       rzold =   0.42268273127829420       alpha =   0.13663163880986801     
 delta_qm =   0.267530E-02 delta_en =   0.123677E+02 tol =   0.100000E-04
 Iteration #          4
  pAp =   0.22295321943184543       rzold =    3.0360282626881875E-002  alpha =   0.13617333135735549     
 delta_qm =   0.215435E-02 delta_en =   0.802006E+01 tol =   0.100000E-04
 Iteration #          5
  pAp =    3.5120412877076242E-002  rzold =    6.7267248846329250E-003  alpha =   0.19153319490226112     
 delta_qm =   0.164123E-02 delta_en =   0.465462E+01 tol =   0.100000E-04
 Iteration #          6
  pAp =    8.6892446498121802E-003  rzold =    2.6843549308865626E-003  alpha =   0.30892845570237060     
 delta_qm =   0.106364E-02 delta_en =   0.195495E+01 tol =   0.100000E-04
 Iteration #          7
  pAp =    3.9306955232561664E-003  rzold =    1.2974571296636127E-003  alpha =   0.33008334580664911     
 delta_qm =   0.788529E-03 delta_en =   0.107443E+01 tol =   0.100000E-04
 Iteration #          8
  pAp =    2.3351707051343612E-003  rzold =    6.9028189610736534E-004  alpha =   0.29560232773973921     
 delta_qm =   0.517608E-03 delta_en =   0.462963E+00 tol =   0.100000E-04
 Iteration #          9
  pAp =    3.0826933232033522E-003  rzold =    6.9881487209042144E-004  alpha =   0.22668971539609864     
 delta_qm =   0.485477E-03 delta_en =   0.407269E+00 tol =   0.100000E-04
 Iteration #         10
  pAp =    1.3616790866900633E-003  rzold =    5.1217606227237599E-004  alpha =   0.37613566021444983     
 delta_qm =   0.232498E-03 delta_en =   0.934073E-01 tol =   0.100000E-04
 Iteration #         11
  pAp =    6.8069170027987985E-004  rzold =    1.9943369624537301E-004  alpha =   0.29298681938294813     
 delta_qm =   0.145520E-03 delta_en =   0.365921E-01 tol =   0.100000E-04
 Iteration #         12
  pAp =    3.1614360469878335E-004  rzold =    6.9314731706336547E-005  alpha =   0.21925077931713510     
 delta_qm =   0.104210E-03 delta_en =   0.187657E-01 tol =   0.100000E-04
 Iteration #         13
  pAp =    4.1193797624386383E-005  rzold =    1.2259619422588250E-005  alpha =   0.29760838110567056     
 delta_qm =   0.767116E-04 delta_en =   0.101687E-01 tol =   0.100000E-04
 Iteration #         14
  pAp =    1.3482442268491118E-005  rzold =    5.1602806848844034E-006  alpha =   0.38274079592716953     
 delta_qm =   0.598224E-04 delta_en =   0.618404E-02 tol =   0.100000E-04
 Iteration #         15
  pAp =    6.2450130237820154E-006  rzold =    2.9571474870347686E-006  alpha =   0.47352142834185851     
 delta_qm =   0.346983E-04 delta_en =   0.208046E-02 tol =   0.100000E-04
 Iteration #         16
  pAp =    5.2963082812069381E-006  rzold =    2.0071134784503685E-006  alpha =   0.37896462439172474     
 delta_qm =   0.239234E-04 delta_en =   0.988985E-03 tol =   0.100000E-04
 Iteration #         17
  pAp =    1.3818390013758867E-006  rzold =    5.9079802134564592E-007  alpha =   0.42754475793301011     
 delta_qm =   0.149394E-04 delta_en =   0.385664E-03 tol =   0.100000E-04
 Iteration #         18
  pAp =    4.2698868878965583E-007  rzold =    1.8066319807655098E-007  alpha =   0.42311003270053771     
 delta_qm =   0.822946E-05 delta_en =   0.117027E-03 tol =   0.100000E-04
 Iteration #         19
  pAp =    2.8770413001767399E-007  rzold =    7.6285894483477683E-008  alpha =   0.26515397772979954     
 delta_qm =   0.604698E-05 delta_en =   0.631859E-04 tol =   0.100000E-04
 Iteration #         20
  pAp =    1.9443893886185253E-007  rzold =    4.4691455669441865E-008  alpha =   0.22984828003610339     
 delta_qm =   0.468240E-05 delta_en =   0.378862E-04 tol =   0.100000E-04
 Iteration #         21
  pAp =    4.1772621351291669E-008  rzold =    1.8130012523595873E-008  alpha =   0.43401663427175052     
 delta_qm =   0.321469E-05 delta_en =   0.178576E-04 tol =   0.100000E-04
 Iteration #         22
  pAp =    1.2608079579659510E-008  rzold =    7.6277645933631461E-009  alpha =   0.60499020054322494     
 delta_qm =   0.163737E-05 delta_en =   0.463274E-05 tol =   0.100000E-04
 Charges are converged, EXIT

%%%% DENSITY %%%%%%%%%%%%%%%%%%%%%%%%%%%%%%%%%%%%%%%%%%%%%%%%%%%%%%%%%%%%%%%%%%%
 density label              = velectrostatic                                                                  
 integral of density        =    -0.2049463480E-11

%%%% CHARGES %%%%%%%%%%%%%%%%%%%%%%%%%%%%%%%%%%%%%%%%%%%%%%%%%%%%%%%%%%%%%%%%%%%
 total number of charges    =         34
 total charge               =     -1.0000000

%%%% DENSITY %%%%%%%%%%%%%%%%%%%%%%%%%%%%%%%%%%%%%%%%%%%%%%%%%%%%%%%%%%%%%%%%%%%
 density label              = vsoftcavity                                                                     
 integral of density        =      36.20434654    

%%%% DENSITY %%%%%%%%%%%%%%%%%%%%%%%%%%%%%%%%%%%%%%%%%%%%%%%%%%%%%%%%%%%%%%%%%%%
 density label              = dvtot                                                                           
 integral of density        =      36.20434654    

%%%% ELECTRONS %%%%%%%%%%%%%%%%%%%%%%%%%%%%%%%%%%%%%%%%%%%%%%%%%%%%%%%%%%%%%%%%%
 number of electrons        =         24
 total electronic charge    =     24.0000000

%%%% ELECTRONS %%%%%%%%%%%%%%%%%%%%%%%%%%%%%%%%%%%%%%%%%%%%%%%%%%%%%%%%%%%%%%%%%
 number of electrons        =         24
 total electronic charge    =     24.0000000

%%%% BOUNDARY %%%%%%%%%%%%%%%%%%%%%%%%%%%%%%%%%%%%%%%%%%%%%%%%%%%%%%%%%%%%%%%%%%
 boundary label             = solvent              
 boundary mode              = electronic           
 boundary is built as a function of a smooth density
 function type              =  2 
 using the modified SCCS function with parameters 
 rhomax                     =      0.0035000 
 rhomin                     =      0.0002000 
 volume of the QM region    =    640.8749995 
 surface of the QM region   =    386.4168522 

%%%% DIELECTRIC %%%%%%%%%%%%%%%%%%%%%%%%%%%%%%%%%%%%%%%%%%%%%%%%%%%%%%%%%%%%%%%%%
 dielectric build on homogeneous background
 environment bulk permitt.  =     78.3000000 
 dielectric flags
 need gradient              =  F 
 need factor depend. sqrt   =  T 
 total dielectric charge    =      0.9794877

%%%% DENSITY %%%%%%%%%%%%%%%%%%%%%%%%%%%%%%%%%%%%%%%%%%%%%%%%%%%%%%%%%%%%%%%%%%%
 density label              = vreference                                                                      
 integral of density        =    -0.9338209218E-12

%%%% COMPUTE ELECTROSTATIC POTENTIAL %%%%%%%%%%%%%%%%%%%%%%%%%%%%%%%%%%%%%%%%%%%
 Warning: bad guess with residual norm =   0.346581E+04, reset to no guess
 Iteration #          1
  pAp =    96.465173322885235       rzold =    93.377967622369709       alpha =   0.96799668114230064     
 delta_qm =   0.434090E-01 delta_en =   0.325614E+04 tol =   0.100000E-04
 Iteration #          2
  pAp =    445.12243566097908       rzold =    34.434203390386187       alpha =    7.7358948081899179E-002
 delta_qm =   0.727863E-02 delta_en =   0.915467E+02 tol =   0.100000E-04
 Iteration #          3
  pAp =    3.2430420267107194       rzold =   0.44476229278153656       alpha =   0.13714354890202893     
 delta_qm =   0.269501E-02 delta_en =   0.125506E+02 tol =   0.100000E-04
 Iteration #          4
  pAp =   0.21914855847726705       rzold =    3.0237924106077851E-002  alpha =   0.13797911478945238     
 delta_qm =   0.216877E-02 delta_en =   0.812775E+01 tol =   0.100000E-04
 Iteration #          5
  pAp =    3.6016380276441676E-002  rzold =    6.7828691837911884E-003  alpha =   0.18832734249609934     
 delta_qm =   0.165463E-02 delta_en =   0.473095E+01 tol =   0.100000E-04
 Iteration #          6
  pAp =    8.9353704145568019E-003  rzold =    2.7387519345776915E-003  alpha =   0.30650681589158663     
 delta_qm =   0.107613E-02 delta_en =   0.200113E+01 tol =   0.100000E-04
 Iteration #          7
  pAp =    3.9348527459279513E-003  rzold =    1.3028013542771134E-003  alpha =   0.33109278501599315     
 delta_qm =   0.798012E-03 delta_en =   0.110043E+01 tol =   0.100000E-04
 Iteration #          8
  pAp =    2.2178968203318580E-003  rzold =    6.8442761379531843E-004  alpha =   0.30859308130164026     
 delta_qm =   0.524571E-03 delta_en =   0.475501E+00 tol =   0.100000E-04
 Iteration #          9
  pAp =    3.0858167353489331E-003  rzold =    6.9192677386625747E-004  alpha =   0.22422808391050381     
 delta_qm =   0.497014E-03 delta_en =   0.426856E+00 tol =   0.100000E-04
 Iteration #         10
  pAp =    1.4642214527280080E-003  rzold =    5.3250279241605521E-004  alpha =   0.36367640388272077     
 delta_qm =   0.236456E-03 delta_en =   0.966146E-01 tol =   0.100000E-04
 Iteration #         11
  pAp =    6.8638479763617830E-004  rzold =    2.0288213210701273E-004  alpha =   0.29558074829995201     
 delta_qm =   0.147954E-03 delta_en =   0.378266E-01 tol =   0.100000E-04
 Iteration #         12
  pAp =    3.2524755126411067E-004  rzold =    7.1378237767338661E-005  alpha =   0.21945818651030338     
 delta_qm =   0.105467E-03 delta_en =   0.192209E-01 tol =   0.100000E-04
 Iteration #         13
  pAp =    4.2404607147352152E-005  rzold =    1.2551422652072338E-005  alpha =   0.29599195692244679     
 delta_qm =   0.777359E-04 delta_en =   0.104421E-01 tol =   0.100000E-04
 Iteration #         14
  pAp =    1.4025061553218723E-005  rzold =    5.3187348524769247E-006  alpha =   0.37923076717308851     
 delta_qm =   0.610991E-04 delta_en =   0.645079E-02 tol =   0.100000E-04
 Iteration #         15
  pAp =    6.3274721403115355E-006  rzold =    3.0085075008742339E-006  alpha =   0.47546752228388461     
 delta_qm =   0.355534E-04 delta_en =   0.218427E-02 tol =   0.100000E-04
 Iteration #         16
  pAp =    5.4085618832495851E-006  rzold =    2.0649707980628887E-006  alpha =   0.38179664809940345     
 delta_qm =   0.244558E-04 delta_en =   0.103349E-02 tol =   0.100000E-04
 Iteration #         17
  pAp =    1.4687308403627921E-006  rzold =    6.2060823961209985E-007  alpha =   0.42254729223143639     
 delta_qm =   0.153499E-04 delta_en =   0.407151E-03 tol =   0.100000E-04
 Iteration #         18
  pAp =    5.9622851734578173E-007  rzold =    2.0406997878518125E-007  alpha =   0.34226806140309324     
 delta_qm =   0.952681E-05 delta_en =   0.156834E-03 tol =   0.100000E-04
 Iteration #         19
  pAp =    7.3907124563686451E-007  rzold =    1.4409479786079437E-007  alpha =   0.19496739821967576     
 delta_qm =   0.673156E-05 delta_en =   0.783025E-04 tol =   0.100000E-04
 Iteration #         20
  pAp =    1.2094592346704165E-007  rzold =    4.2440148457854464E-008  alpha =   0.35090185135028229     
 delta_qm =   0.482769E-05 delta_en =   0.402737E-04 tol =   0.100000E-04
 Iteration #         21
  pAp =    3.6563067335218423E-008  rzold =    1.7344237129273827E-008  alpha =   0.47436493689815357     
 delta_qm =   0.328026E-05 delta_en =   0.185934E-04 tol =   0.100000E-04
 Iteration #         22
  pAp =    1.2699566867290963E-008  rzold =    7.7935983922861052E-009  alpha =   0.61369009460939317     
 delta_qm =   0.168012E-05 delta_en =   0.487783E-05 tol =   0.100000E-04
 Charges are converged, EXIT

%%%% DENSITY %%%%%%%%%%%%%%%%%%%%%%%%%%%%%%%%%%%%%%%%%%%%%%%%%%%%%%%%%%%%%%%%%%%
 density label              = velectrostatic                                                                  
 integral of density        =     0.2307536878E-11

%%%% CHARGES %%%%%%%%%%%%%%%%%%%%%%%%%%%%%%%%%%%%%%%%%%%%%%%%%%%%%%%%%%%%%%%%%%%
 total number of charges    =         34
 total charge               =     -1.0000000

%%%% DENSITY %%%%%%%%%%%%%%%%%%%%%%%%%%%%%%%%%%%%%%%%%%%%%%%%%%%%%%%%%%%%%%%%%%%
 density label              = vsoftcavity                                                                     
 integral of density        =      36.51409657    

%%%% DENSITY %%%%%%%%%%%%%%%%%%%%%%%%%%%%%%%%%%%%%%%%%%%%%%%%%%%%%%%%%%%%%%%%%%%
 density label              = dvtot                                                                           
 integral of density        =      36.51409657    

%%%% ELECTRONS %%%%%%%%%%%%%%%%%%%%%%%%%%%%%%%%%%%%%%%%%%%%%%%%%%%%%%%%%%%%%%%%%
 number of electrons        =         24
 total electronic charge    =     24.0000000

%%%% ELECTRONS %%%%%%%%%%%%%%%%%%%%%%%%%%%%%%%%%%%%%%%%%%%%%%%%%%%%%%%%%%%%%%%%%
 number of electrons        =         24
 total electronic charge    =     24.0000000

%%%% BOUNDARY %%%%%%%%%%%%%%%%%%%%%%%%%%%%%%%%%%%%%%%%%%%%%%%%%%%%%%%%%%%%%%%%%%
 boundary label             = solvent              
 boundary mode              = electronic           
 boundary is built as a function of a smooth density
 function type              =  2 
 using the modified SCCS function with parameters 
 rhomax                     =      0.0035000 
 rhomin                     =      0.0002000 
 volume of the QM region    =    640.8749995 
 surface of the QM region   =    386.4168522 

%%%% DIELECTRIC %%%%%%%%%%%%%%%%%%%%%%%%%%%%%%%%%%%%%%%%%%%%%%%%%%%%%%%%%%%%%%%%%
 dielectric build on homogeneous background
 environment bulk permitt.  =     78.3000000 
 dielectric flags
 need gradient              =  F 
 need factor depend. sqrt   =  T 
 total dielectric charge    =      0.9796443

%%%% DENSITY %%%%%%%%%%%%%%%%%%%%%%%%%%%%%%%%%%%%%%%%%%%%%%%%%%%%%%%%%%%%%%%%%%%
 density label              = dvtot                                                                           
 integral of density        =      36.51409657    

%%%% DENSITY %%%%%%%%%%%%%%%%%%%%%%%%%%%%%%%%%%%%%%%%%%%%%%%%%%%%%%%%%%%%%%%%%%%
 density label              = vreference                                                                      
 integral of density        =    -0.9338209218E-12

%%%% DENSITY %%%%%%%%%%%%%%%%%%%%%%%%%%%%%%%%%%%%%%%%%%%%%%%%%%%%%%%%%%%%%%%%%%%
 density label              = velectrostatic                                                                  
 integral of density        =     0.2307536878E-11

%%%% CHARGES %%%%%%%%%%%%%%%%%%%%%%%%%%%%%%%%%%%%%%%%%%%%%%%%%%%%%%%%%%%%%%%%%%%
 total number of charges    =         34
 total charge               =     -1.0000000

%%%% DENSITY %%%%%%%%%%%%%%%%%%%%%%%%%%%%%%%%%%%%%%%%%%%%%%%%%%%%%%%%%%%%%%%%%%%
 density label              = vsoftcavity                                                                     
 integral of density        =      36.51409657    
