
     Program PWSCF v.6.3MaX starts on 21Apr2019 at 23:51:23 

     This program is part of the open-source Quantum ESPRESSO suite
     for quantum simulation of materials; please cite
         "P. Giannozzi et al., J. Phys.:Condens. Matter 21 395502 (2009);
         "P. Giannozzi et al., J. Phys.:Condens. Matter 29 465901 (2017);
          URL http://www.quantum-espresso.org", 
     in publications or presentations arising from this work. More details at
     http://www.quantum-espresso.org/quote

     Parallel version (MPI), running on     1 processors

     MPI processes distributed on     1 nodes
     Reading input from anion.in

     Current dimensions of program PWSCF are:
     Max number of different atomic species (ntypx) = 10
     Max number of k-points (npk) =  40000
     Max angular momentum in pseudopotentials (lmaxx) =  3
               file C.pbe-rrkjus.UPF: wavefunction(s)  2S 2P renormalized
               file H.pbe-rrkjus.UPF: wavefunction(s)  1S renormalized

     gamma-point specific algorithms are used

     Subspace diagonalization in iterative solution of the eigenvalue problem:
     a serial algorithm will be used

 
     G-vector sticks info
     --------------------
     sticks:   dense  smooth     PW     G-vecs:    dense   smooth      PW
     Sum        9549    3809    949               701475   177509   22119
 


     bravais-lattice index     =            1
     lattice parameter (alat)  =      20.0000  a.u.
     unit-cell volume          =    8000.0000 (a.u.)^3
     number of atoms/cell      =            4
     number of atomic types    =            2
     number of electrons       =         8.00
     number of Kohn-Sham states=            4
     kinetic-energy cutoff     =      30.0000  Ry
     charge density cutoff     =     300.0000  Ry
     convergence threshold     =      1.0E-03
     mixing beta               =       0.7000
     number of iterations used =            8  plain     mixing
     Exchange-correlation      = SLA PW PBE PBE ( 1  4  3  4 0 0)
 

     Environ Module
     ==============

     Plese cite
         O. Andreussi, I. Dabo and N. Marzari, J. Chem. Phys. 136, 064102 (2012)         
     in publications or presentations arising from this work.

     compensation onset threshold      =               0.1000E+03 
     static permittivity               =                    78.30 
     epsilon calculation mode          =               electronic 
     external pressure in input (GPa)  =                     0.45 
     external pressure in inter. units =               0.3059E-04 

     Electrostatic Setup
     -------------------
     electrostatic problem to solve    = generalized              
     numerical solver adopted          = cg                       
     type of auxiliary density adopted = none                     
     type of core tool for poisson     = fft                      
     type of core tool for s(r) deriv  = analytic                 



     celldm(1)=  20.000000  celldm(2)=   0.000000  celldm(3)=   0.000000
     celldm(4)=   0.000000  celldm(5)=   0.000000  celldm(6)=   0.000000

     crystal axes: (cart. coord. in units of alat)
               a(1) = (   1.000000   0.000000   0.000000 )  
               a(2) = (   0.000000   1.000000   0.000000 )  
               a(3) = (   0.000000   0.000000   1.000000 )  

     reciprocal axes: (cart. coord. in units 2 pi/alat)
               b(1) = (  1.000000  0.000000  0.000000 )  
               b(2) = (  0.000000  1.000000  0.000000 )  
               b(3) = (  0.000000  0.000000  1.000000 )  


     PseudoPot. # 1 for C  read from file:
     /home/fnattino/Programs/quantumespresso/q-e-qe-6.3-develop/Environ/tests/../..//pseudo/C.pbe-rrkjus.UPF
     MD5 check sum: c9ac5a99bc85b198593446162950cd17
     Pseudo is Ultrasoft, Zval =  4.0
     Generated by new atomic code, or converted to UPF format
     Using radial grid of  627 points,  4 beta functions with: 
                l(1) =   0
                l(2) =   0
                l(3) =   1
                l(4) =   1
     Q(r) pseudized with 0 coefficients 


     PseudoPot. # 2 for H  read from file:
     /home/fnattino/Programs/quantumespresso/q-e-qe-6.3-develop/Environ/tests/../..//pseudo/H.pbe-rrkjus.UPF
     MD5 check sum: 2d52a7f45632fd764c17cc6affed14c8
     Pseudo is Ultrasoft, Zval =  1.0
     Generated by new atomic code, or converted to UPF format
     Using radial grid of 1061 points,  2 beta functions with: 
                l(1) =   0
                l(2) =   0
     Q(r) pseudized with 0 coefficients 


     atomic species   valence    mass     pseudopotential
        C              4.00    12.00000     C ( 1.00)
        H              1.00     1.00000     H ( 1.00)

      2 Sym. Ops. (no inversion) found



   Cartesian axes

     site n.     atom                  positions (alat units)
         1           C   tau(   1) = (   0.0000000   0.0000000   0.0297065  )
         2           H   tau(   2) = (   0.0000000   0.0981713  -0.0066140  )
         3           H   tau(   3) = (   0.0850377  -0.0491140  -0.0066140  )
         4           H   tau(   4) = (  -0.0850377  -0.0491140  -0.0066140  )

     number of k points=     1
                       cart. coord. in units 2pi/alat
        k(    1) = (   0.0000000   0.0000000   0.0000000), wk =   2.0000000

     Dense  grid:   350738 G-vectors     FFT dimensions: ( 120, 120, 120)

     Smooth grid:    88755 G-vectors     FFT dimensions: (  72,  72,  72)

     Estimated max dynamical RAM per process >     565.10 MB

     Initial potential from superposition of free atoms
     Check: negative starting charge=   -0.000707

     starting charge    6.71133, renormalised to    8.00000

     negative rho (up, down):  8.422E-04 0.000E+00
     Starting wfcs are    7 randomized atomic wfcs

     total cpu time spent up to now is        2.8 secs

     Self-consistent Calculation

     iteration #  1     ecut=    30.00 Ry     beta= 0.70
     Davidson diagonalization with overlap
     ethr =  1.00E-02,  avg # of iterations =  2.0

     negative rho (up, down):  2.408E-04 0.000E+00

     add environment contribution to local potential
     polarization accuracy = 8.3E-06, # of iterations =  18

     total cpu time spent up to now is        6.5 secs

     total energy              =     -14.75277091 Ry
     Harris-Foulkes estimate   =     -15.25549897 Ry
     estimated scf accuracy    <       0.71470914 Ry
     electrostatic embedding   =       0.00000000 Ry
     PV energy                 =       0.00541586 Ry
     correction to one-el term =       0.00000000 Ry

     iteration #  2     ecut=    30.00 Ry     beta= 0.70
     Davidson diagonalization with overlap
     ethr =  8.93E-03,  avg # of iterations =  2.0

     negative rho (up, down):  1.137E-04 0.000E+00

     add environment contribution to local potential
     polarization accuracy = 8.7E-06, # of iterations =  18

     total cpu time spent up to now is       10.3 secs

     total energy              =     -15.00279340 Ry
     Harris-Foulkes estimate   =     -16.49862076 Ry
     estimated scf accuracy    <       0.15310660 Ry
     electrostatic embedding   =      -0.09980490 Ry
     PV energy                 =       0.00496177 Ry
     correction to one-el term =       1.51232040 Ry

     iteration #  3     ecut=    30.00 Ry     beta= 0.70
     Davidson diagonalization with overlap
     ethr =  1.91E-03,  avg # of iterations =  2.0

     negative rho (up, down):  3.443E-05 0.000E+00

     add environment contribution to local potential
     polarization accuracy = 2.2E-06, # of iterations =  19

     total cpu time spent up to now is       14.1 secs

     total energy              =     -15.04433533 Ry
     Harris-Foulkes estimate   =     -16.54085910 Ry
     estimated scf accuracy    <       0.01685784 Ry
     electrostatic embedding   =      -0.11103008 Ry
     PV energy                 =       0.00561148 Ry
     correction to one-el term =       1.59246815 Ry

     iteration #  4     ecut=    30.00 Ry     beta= 0.70
     Davidson diagonalization with overlap
     ethr =  2.11E-04,  avg # of iterations =  2.0

     negative rho (up, down):  1.532E-05 0.000E+00

     the potential shift due to the Gaussian-smeared nuclei is    -0.0187 ev

     total cpu time spent up to now is       15.5 secs

     End of self-consistent calculation

          k = 0.0000 0.0000 0.0000 ( 11060 PWs)   bands (ev):

   -14.6646  -7.8723  -7.8707  -3.5444

     highest occupied level (ev):    -3.5444

!    total energy              =     -15.05165116 Ry
     Harris-Foulkes estimate   =     -16.74729537 Ry
     estimated scf accuracy    <       0.00051060 Ry

     The total energy is the sum of the following terms:

     one-electron contribution =     -36.98506187 Ry
     hartree contribution      =      19.86173799 Ry
     xc contribution           =      -5.94449518 Ry
     ewald contribution        =       6.32058449 Ry
     electrostatic embedding   =      -0.13865631 Ry
     PV energy                 =       0.00566485 Ry
     correction to one-el term =       1.82857487 Ry

     convergence has been achieved in   4 iterations

     Forces acting on atoms (cartesian axes, Ry/au):

     atom    1 type  1   force =     0.00000000   -0.00027755    0.00584305
     atom    2 type  2   force =     0.00000000   -0.00045643   -0.00197667
     atom    3 type  2   force =    -0.00066885    0.00036699   -0.00193319
     atom    4 type  2   force =     0.00066885    0.00036699   -0.00193319

     Total force =     0.006854     Total SCF correction =     0.014438
     SCF correction compared to forces is large: reduce conv_thr to get better values

     Writing output data file pwscf.save/
 
     init_run     :      2.25s CPU      2.58s WALL (       1 calls)
     electrons    :     10.66s CPU     12.67s WALL (       1 calls)
     forces       :      0.36s CPU      0.45s WALL (       1 calls)

     Called by init_run:
     wfcinit      :      0.04s CPU      0.05s WALL (       1 calls)
     potinit      :      1.17s CPU      1.29s WALL (       1 calls)
     hinit0       :      0.79s CPU      0.82s WALL (       1 calls)

     Called by electrons:
     c_bands      :      0.29s CPU      0.29s WALL (       4 calls)
     sum_band     :      0.70s CPU      0.97s WALL (       4 calls)
     v_of_rho     :      2.16s CPU      2.40s WALL (       5 calls)
     newd         :      0.65s CPU      0.97s WALL (       5 calls)
     mix_rho      :      0.17s CPU      0.17s WALL (       4 calls)

     Called by c_bands:
     init_us_2    :      0.02s CPU      0.02s WALL (       9 calls)
     regterg      :      0.26s CPU      0.27s WALL (       4 calls)

     Called by sum_band:
     sum_band:bec :      0.00s CPU      0.00s WALL (       4 calls)
     addusdens    :      0.50s CPU      0.78s WALL (       4 calls)

     Called by *egterg:
     h_psi        :      0.29s CPU      0.29s WALL (      13 calls)
     s_psi        :      0.00s CPU      0.00s WALL (      13 calls)
     g_psi        :      0.00s CPU      0.00s WALL (       8 calls)
     rdiaghg      :      0.00s CPU      0.00s WALL (      12 calls)

     Called by h_psi:
     h_psi:pot    :      0.29s CPU      0.29s WALL (      13 calls)
     h_psi:calbec :      0.00s CPU      0.00s WALL (      13 calls)
     vloc_psi     :      0.28s CPU      0.28s WALL (      13 calls)
     add_vuspsi   :      0.00s CPU      0.00s WALL (      13 calls)

     General routines
     calbec       :      0.01s CPU      0.01s WALL (      21 calls)
     fft          :      3.98s CPU      4.09s WALL (     231 calls)
     ffts         :      0.02s CPU      0.03s WALL (       9 calls)
     fftw         :      0.26s CPU      0.26s WALL (      64 calls)
     interpolate  :      0.13s CPU      0.14s WALL (       5 calls)
 
     Parallel routines
 
     Environ routines
     calc_eelect  :      0.00s CPU      0.01s WALL (       8 calls)
     calc_velect  :      4.64s CPU      5.61s WALL (       6 calls)
     dielectric   :      0.28s CPU      0.29s WALL (       6 calls)
     calc_felect  :      0.05s CPU      0.05s WALL (       1 calls)
 
     PWSCF        :    13.52s CPU        15.98s WALL

 
   This run was terminated on:  23:51:39  21Apr2019            

=------------------------------------------------------------------------------=
   JOB DONE.
=------------------------------------------------------------------------------=

%%%% IONS %%%%%%%%%%%%%%%%%%%%%%%%%%%%%%%%%%%%%%%%%%%%%%%%%%%%%%%%%%%%%%%%%%%%%%
 number of ions             =          4
 ionic center of charge     =      0.0000000    -0.0000081     0.0141406
 total ionic charge         =     -7.0000000
 ionic dipole               =      0.0000000     0.0000000     0.0000000
 ionic quadrupole (pc)      =     -5.7851251    -5.7847859    -0.9045815
 ionic quadrupole (gauss)   =     -6.6601251    -6.6597859    -1.7795815
 ion   1 type =  1 coordinates =      0.0000000     0.0000000     0.5941299
 ion   2 type =  2 coordinates =      0.0000000     1.9634255    -0.1322808
 ion   3 type =  2 coordinates =      1.7007535    -0.9822796    -0.1322808
 ion   4 type =  2 coordinates =     -1.7007535    -0.9822796    -0.1322808

%%%% SYSTEM %%%%%%%%%%%%%%%%%%%%%%%%%%%%%%%%%%%%%%%%%%%%%%%%%%%%%%%%%%%%%%%%%%%%
 system is built from all present ionic types
 system defined dimension   =  0 
 system defined axis        =  3 
 system center              =      0.0000000    -0.0000081     0.0141406 
 system width               =      0.1003671 

%%%% ELECTRONS %%%%%%%%%%%%%%%%%%%%%%%%%%%%%%%%%%%%%%%%%%%%%%%%%%%%%%%%%%%%%%%%%
 number of electrons        =          8
 total electronic charge    =      8.0000000
 number of spin components  =  1

%%%% BOUNDARY %%%%%%%%%%%%%%%%%%%%%%%%%%%%%%%%%%%%%%%%%%%%%%%%%%%%%%%%%%%%%%%%%%
 boundary label             = solvent              
 boundary mode              = electronic           
 boundary is built as a function of a smooth density
 function type              =  2 
 using the modified SCCS function with parameters 
 rhomax                     =      0.0155000 
 rhomin                     =      0.0024000 
 volume of the QM region    =    177.0445412 
 surface of the QM region   =    154.9698964 

%%%% DIELECTRIC %%%%%%%%%%%%%%%%%%%%%%%%%%%%%%%%%%%%%%%%%%%%%%%%%%%%%%%%%%%%%%%%%
 dielectric build on homogeneous background
 environment bulk permitt.  =     78.3000000 
 dielectric flags
 need gradient              =  F 
 need factor depend. sqrt   =  T 
 total dielectric charge    =      0.0000000

%%%% DENSITY %%%%%%%%%%%%%%%%%%%%%%%%%%%%%%%%%%%%%%%%%%%%%%%%%%%%%%%%%%%%%%%%%%%
 density label              = vreference                                                                      
 integral of density        =      0.000000000    

%%%% DENSITY %%%%%%%%%%%%%%%%%%%%%%%%%%%%%%%%%%%%%%%%%%%%%%%%%%%%%%%%%%%%%%%%%%%
 density label              = velectrostatic                                                                  
 integral of density        =      0.000000000    

%%%% CHARGES %%%%%%%%%%%%%%%%%%%%%%%%%%%%%%%%%%%%%%%%%%%%%%%%%%%%%%%%%%%%%%%%%%%
 total number of charges    =         12
 total charge               =      1.0000000

%%%% DENSITY %%%%%%%%%%%%%%%%%%%%%%%%%%%%%%%%%%%%%%%%%%%%%%%%%%%%%%%%%%%%%%%%%%%
 density label              = vsoftcavity                                                                     
 integral of density        =      0.000000000    

%%%% ELECTRONS %%%%%%%%%%%%%%%%%%%%%%%%%%%%%%%%%%%%%%%%%%%%%%%%%%%%%%%%%%%%%%%%%
 number of electrons        =          8
 total electronic charge    =      8.0000000
 number of spin components  =  1

%%%% BOUNDARY %%%%%%%%%%%%%%%%%%%%%%%%%%%%%%%%%%%%%%%%%%%%%%%%%%%%%%%%%%%%%%%%%%
 boundary label             = solvent              
 boundary mode              = electronic           
 boundary is built as a function of a smooth density
 function type              =  2 
 using the modified SCCS function with parameters 
 rhomax                     =      0.0155000 
 rhomin                     =      0.0024000 
 volume of the QM region    =    162.2003287 
 surface of the QM region   =    146.7095199 

%%%% DIELECTRIC %%%%%%%%%%%%%%%%%%%%%%%%%%%%%%%%%%%%%%%%%%%%%%%%%%%%%%%%%%%%%%%%%
 dielectric build on homogeneous background
 environment bulk permitt.  =     78.3000000 
 dielectric flags
 need gradient              =  F 
 need factor depend. sqrt   =  T 
 total dielectric charge    =      0.0000000

%%%% DENSITY %%%%%%%%%%%%%%%%%%%%%%%%%%%%%%%%%%%%%%%%%%%%%%%%%%%%%%%%%%%%%%%%%%%
 density label              = vreference                                                                      
 integral of density        =    -0.5240252676E-12

%%%% COMPUTE ELECTROSTATIC POTENTIAL %%%%%%%%%%%%%%%%%%%%%%%%%%%%%%%%%%%%%%%%%%%
 Iteration #          1
  pAp =    20.7398149667274       rzold =    20.2836330431912       alpha = 
  0.978004532621529     
 delta_qm =   0.198832E-01 delta_en =   0.683147E+03 tol =   0.100000E-04
 Iteration #          2
  pAp =    23.6283203225736       rzold =    2.87551281536900       alpha = 
  0.121697724430367     
 delta_qm =   0.492851E-02 delta_en =   0.419735E+02 tol =   0.100000E-04
 Iteration #          3
  pAp =    3.57041800380698       rzold =   0.293933681018280       alpha = 
  8.232472520160701E-002
 delta_qm =   0.310514E-02 delta_en =   0.166612E+02 tol =   0.100000E-04
 Iteration #          4
  pAp =   0.365763780183189       rzold =   4.256738816058885E-002  alpha = 
  0.116379451621124     
 delta_qm =   0.171190E-02 delta_en =   0.506411E+01 tol =   0.100000E-04
 Iteration #          5
  pAp =   4.499268041707799E-003  rzold =   1.732678779239321E-003  alpha = 
  0.385102368469171     
 delta_qm =   0.129413E-02 delta_en =   0.289400E+01 tol =   0.100000E-04
 Iteration #          6
  pAp =   1.819937080256565E-003  rzold =   9.064230884536932E-004  alpha = 
  0.498051882280408     
 delta_qm =   0.874581E-03 delta_en =   0.132173E+01 tol =   0.100000E-04
 Iteration #          7
  pAp =   5.034584199361234E-004  rzold =   3.405489513046780E-004  alpha = 
  0.676419219183752     
 delta_qm =   0.623541E-03 delta_en =   0.671853E+00 tol =   0.100000E-04
 Iteration #          8
  pAp =   6.161987470403897E-004  rzold =   3.059191157919166E-004  alpha = 
  0.496461762152633     
 delta_qm =   0.415560E-03 delta_en =   0.298408E+00 tol =   0.100000E-04
 Iteration #          9
  pAp =   2.906949690969466E-003  rzold =   5.739867498753011E-004  alpha = 
  0.197453279517843     
 delta_qm =   0.200662E-03 delta_en =   0.695783E-01 tol =   0.100000E-04
 Iteration #         10
  pAp =   2.486938541753477E-004  rzold =   6.809267475051527E-005  alpha = 
  0.273801196158651     
 delta_qm =   0.140340E-03 delta_en =   0.340333E-01 tol =   0.100000E-04
 Iteration #         11
  pAp =   1.011804601182272E-005  rzold =   5.166330974547981E-006  alpha = 
  0.510605601962201     
 delta_qm =   0.921027E-04 delta_en =   0.146585E-01 tol =   0.100000E-04
 Iteration #         12
  pAp =   5.758532768144187E-006  rzold =   2.478808441704985E-006  alpha = 
  0.430458337480961     
 delta_qm =   0.559254E-04 delta_en =   0.540457E-02 tol =   0.100000E-04
 Iteration #         13
  pAp =   5.532135229884117E-006  rzold =   2.135837564033802E-006  alpha = 
  0.386078335991534     
 delta_qm =   0.299557E-04 delta_en =   0.155061E-02 tol =   0.100000E-04
 Iteration #         14
  pAp =   1.134875573644115E-006  rzold =   6.166682053623610E-007  alpha = 
  0.543379573658655     
 delta_qm =   0.194259E-04 delta_en =   0.652086E-03 tol =   0.100000E-04
 Iteration #         15
  pAp =   9.611115717306463E-007  rzold =   3.051409811580078E-007  alpha = 
  0.317487573902111     
 delta_qm =   0.123698E-04 delta_en =   0.264403E-03 tol =   0.100000E-04
 Iteration #         16
  pAp =   1.640833647888791E-006  rzold =   3.279930486412003E-007  alpha = 
  0.199894150795371     
 delta_qm =   0.520438E-05 delta_en =   0.468039E-04 tol =   0.100000E-04
 Iteration #         17
  pAp =   8.082778350841533E-008  rzold =   3.122040796934936E-008  alpha = 
  0.386258370750682     
 delta_qm =   0.294861E-05 delta_en =   0.150238E-04 tol =   0.100000E-04
 Iteration #         18
  pAp =   5.945390650926121E-009  rzold =   2.785535800271497E-009  alpha = 
  0.468520230851036     
 delta_qm =   0.219112E-05 delta_en =   0.829612E-05 tol =   0.100000E-04
 Charges are converged, EXIT

%%%% DENSITY %%%%%%%%%%%%%%%%%%%%%%%%%%%%%%%%%%%%%%%%%%%%%%%%%%%%%%%%%%%%%%%%%%%
 density label              = velectrostatic                                                                  
 integral of density        =     0.5375124214E-13

%%%% CHARGES %%%%%%%%%%%%%%%%%%%%%%%%%%%%%%%%%%%%%%%%%%%%%%%%%%%%%%%%%%%%%%%%%%%
 total number of charges    =         12
 total charge               =      1.0000000

%%%% DENSITY %%%%%%%%%%%%%%%%%%%%%%%%%%%%%%%%%%%%%%%%%%%%%%%%%%%%%%%%%%%%%%%%%%%
 density label              = vsoftcavity                                                                     
 integral of density        =      3.715649344    

%%%% ELECTRONS %%%%%%%%%%%%%%%%%%%%%%%%%%%%%%%%%%%%%%%%%%%%%%%%%%%%%%%%%%%%%%%%%
 number of electrons        =          8
 total electronic charge    =      8.0000000
 number of spin components  =  1

%%%% BOUNDARY %%%%%%%%%%%%%%%%%%%%%%%%%%%%%%%%%%%%%%%%%%%%%%%%%%%%%%%%%%%%%%%%%%
 boundary label             = solvent              
 boundary mode              = electronic           
 boundary is built as a function of a smooth density
 function type              =  2 
 using the modified SCCS function with parameters 
 rhomax                     =      0.0155000 
 rhomin                     =      0.0024000 
 volume of the QM region    =    183.4392211 
 surface of the QM region   =    159.0275450 

%%%% DIELECTRIC %%%%%%%%%%%%%%%%%%%%%%%%%%%%%%%%%%%%%%%%%%%%%%%%%%%%%%%%%%%%%%%%%
 dielectric build on homogeneous background
 environment bulk permitt.  =     78.3000000 
 dielectric flags
 need gradient              =  F 
 need factor depend. sqrt   =  T 
 total dielectric charge    =     -0.9854683

%%%% DENSITY %%%%%%%%%%%%%%%%%%%%%%%%%%%%%%%%%%%%%%%%%%%%%%%%%%%%%%%%%%%%%%%%%%%
 density label              = vreference                                                                      
 integral of density        =    -0.2425713951E-12

%%%% COMPUTE ELECTROSTATIC POTENTIAL %%%%%%%%%%%%%%%%%%%%%%%%%%%%%%%%%%%%%%%%%%%
 Warning: bad guess with residual norm =   0.409167E+03, reset to no guess
 Iteration #          1
  pAp =    21.9356071691185       rzold =    21.5736377102914       alpha = 
  0.983498543895486     
 delta_qm =   0.151419E-01 delta_en =   0.396192E+03 tol =   0.100000E-04
 Iteration #          2
  pAp =    16.0955469749619       rzold =    2.14697892647702       alpha = 
  0.133389621975372     
 delta_qm =   0.309047E-02 delta_en =   0.165042E+02 tol =   0.100000E-04
 Iteration #          3
  pAp =    1.28979821890906       rzold =   0.124057490947835       alpha = 
  9.618364262649191E-002
 delta_qm =   0.260952E-02 delta_en =   0.117670E+02 tol =   0.100000E-04
 Iteration #          4
  pAp =   0.215544116954546       rzold =   2.405836491160462E-002  alpha = 
  0.111616894265215     
 delta_qm =   0.159326E-02 delta_en =   0.438650E+01 tol =   0.100000E-04
 Iteration #          5
  pAp =   1.717825100681380E-003  rzold =   1.100541738491383E-003  alpha = 
  0.640659947310614     
 delta_qm =   0.100583E-02 delta_en =   0.174820E+01 tol =   0.100000E-04
 Iteration #          6
  pAp =   1.480842484304171E-003  rzold =   7.246470966420493E-004  alpha = 
  0.489347857265556     
 delta_qm =   0.715261E-03 delta_en =   0.884043E+00 tol =   0.100000E-04
 Iteration #          7
  pAp =   4.179104218499394E-004  rzold =   3.164599328522503E-004  alpha = 
  0.757243457704155     
 delta_qm =   0.423399E-03 delta_en =   0.309772E+00 tol =   0.100000E-04
 Iteration #          8
  pAp =   1.996745923068975E-003  rzold =   4.597299621887597E-004  alpha = 
  0.230239589763208     
 delta_qm =   0.280633E-03 delta_en =   0.136088E+00 tol =   0.100000E-04
 Iteration #          9
  pAp =   1.057277548967936E-003  rzold =   2.805334105152214E-004  alpha = 
  0.265335635651268     
 delta_qm =   0.173169E-03 delta_en =   0.518185E-01 tol =   0.100000E-04
 Iteration #         10
  pAp =   7.099331876683127E-005  rzold =   2.282920320122499E-005  alpha = 
  0.321568333440005     
 delta_qm =   0.131299E-03 delta_en =   0.297896E-01 tol =   0.100000E-04
 Iteration #         11
  pAp =   6.201610490851574E-006  rzold =   4.337621423401415E-006  alpha = 
  0.699434675847530     
 delta_qm =   0.762129E-04 delta_en =   0.100369E-01 tol =   0.100000E-04
 Iteration #         12
  pAp =   1.193503720210009E-005  rzold =   4.536564808910445E-006  alpha = 
  0.380104789963469     
 delta_qm =   0.427807E-04 delta_en =   0.316256E-02 tol =   0.100000E-04
 Iteration #         13
  pAp =   5.889231924538604E-006  rzold =   2.180975264590271E-006  alpha = 
  0.370332717837588     
 delta_qm =   0.256772E-04 delta_en =   0.113931E-02 tol =   0.100000E-04
 Iteration #         14
  pAp =   1.146298895488225E-006  rzold =   5.484191605093316E-007  alpha = 
  0.478425969586014     
 delta_qm =   0.142790E-04 delta_en =   0.352322E-03 tol =   0.100000E-04
 Iteration #         15
  pAp =   2.190863563786171E-006  rzold =   3.631482674027181E-007  alpha = 
  0.165755765628389     
 delta_qm =   0.930102E-05 delta_en =   0.149487E-03 tol =   0.100000E-04
 Iteration #         16
  pAp =   3.048716303773459E-007  rzold =   1.156190858264350E-007  alpha = 
  0.379238585378807     
 delta_qm =   0.393218E-05 delta_en =   0.267184E-04 tol =   0.100000E-04
 Iteration #         17
  pAp =   2.241810445701691E-008  rzold =   9.124045390120238E-009  alpha = 
  0.406994507836919     
 delta_qm =   0.303240E-05 delta_en =   0.158898E-04 tol =   0.100000E-04
 Iteration #         18
  pAp =   1.124431743940903E-008  rzold =   4.564466624630312E-009  alpha = 
  0.405935411306763     
 delta_qm =   0.224747E-05 delta_en =   0.872836E-05 tol =   0.100000E-04
 Charges are converged, EXIT

%%%% DENSITY %%%%%%%%%%%%%%%%%%%%%%%%%%%%%%%%%%%%%%%%%%%%%%%%%%%%%%%%%%%%%%%%%%%
 density label              = velectrostatic                                                                  
 integral of density        =     0.1233252184E-12

%%%% CHARGES %%%%%%%%%%%%%%%%%%%%%%%%%%%%%%%%%%%%%%%%%%%%%%%%%%%%%%%%%%%%%%%%%%%
 total number of charges    =         12
 total charge               =      1.0000000

%%%% DENSITY %%%%%%%%%%%%%%%%%%%%%%%%%%%%%%%%%%%%%%%%%%%%%%%%%%%%%%%%%%%%%%%%%%%
 density label              = vsoftcavity                                                                     
 integral of density        =      3.347739343    

%%%% ELECTRONS %%%%%%%%%%%%%%%%%%%%%%%%%%%%%%%%%%%%%%%%%%%%%%%%%%%%%%%%%%%%%%%%%
 number of electrons        =          8
 total electronic charge    =      8.0000000
 number of spin components  =  1

%%%% BOUNDARY %%%%%%%%%%%%%%%%%%%%%%%%%%%%%%%%%%%%%%%%%%%%%%%%%%%%%%%%%%%%%%%%%%
 boundary label             = solvent              
 boundary mode              = electronic           
 boundary is built as a function of a smooth density
 function type              =  2 
 using the modified SCCS function with parameters 
 rhomax                     =      0.0155000 
 rhomin                     =      0.0024000 
 volume of the QM region    =    185.1838548 
 surface of the QM region   =    159.9838563 

%%%% DIELECTRIC %%%%%%%%%%%%%%%%%%%%%%%%%%%%%%%%%%%%%%%%%%%%%%%%%%%%%%%%%%%%%%%%%
 dielectric build on homogeneous background
 environment bulk permitt.  =     78.3000000 
 dielectric flags
 need gradient              =  F 
 need factor depend. sqrt   =  T 
 total dielectric charge    =     -0.9850456

%%%% DENSITY %%%%%%%%%%%%%%%%%%%%%%%%%%%%%%%%%%%%%%%%%%%%%%%%%%%%%%%%%%%%%%%%%%%
 density label              = vreference                                                                      
 integral of density        =     0.2778353679E-12

%%%% COMPUTE ELECTROSTATIC POTENTIAL %%%%%%%%%%%%%%%%%%%%%%%%%%%%%%%%%%%%%%%%%%%
 Warning: bad guess with residual norm =   0.597382E+03, reset to no guess
 Iteration #          1
  pAp =    21.9026539949326       rzold =    21.3455037800454       alpha = 
  0.974562433620324     
 delta_qm =   0.181339E-01 delta_en =   0.568234E+03 tol =   0.100000E-04
 Iteration #          2
  pAp =    34.9638028581669       rzold =    3.77460677875159       alpha = 
  0.107957558108411     
 delta_qm =   0.719762E-02 delta_en =   0.895203E+02 tol =   0.100000E-04
 Iteration #          3
  pAp =    6.90775287937760       rzold =   0.603804085161151       alpha = 
  8.740962447625295E-002
 delta_qm =   0.255949E-02 delta_en =   0.113201E+02 tol =   0.100000E-04
 Iteration #          4
  pAp =   0.215013944459026       rzold =   3.217761252180627E-002  alpha = 
  0.149653607828855     
 delta_qm =   0.161419E-02 delta_en =   0.450251E+01 tol =   0.100000E-04
 Iteration #          5
  pAp =   1.979098444501370E-003  rzold =   1.244484222801489E-003  alpha = 
  0.628813703663455     
 delta_qm =   0.105242E-02 delta_en =   0.191393E+01 tol =   0.100000E-04
 Iteration #          6
  pAp =   1.697349117688210E-003  rzold =   8.077901733244926E-004  alpha = 
  0.475912801265483     
 delta_qm =   0.790666E-03 delta_en =   0.108026E+01 tol =   0.100000E-04
 Iteration #          7
  pAp =   4.442839852213520E-004  rzold =   3.329645147062340E-004  alpha = 
  0.749440731113330     
 delta_qm =   0.477595E-03 delta_en =   0.394151E+00 tol =   0.100000E-04
 Iteration #          8
  pAp =   2.186008355311300E-003  rzold =   5.095870806802354E-004  alpha = 
  0.233113052583766     
 delta_qm =   0.313546E-03 delta_en =   0.169882E+00 tol =   0.100000E-04
 Iteration #          9
  pAp =   1.189498491228063E-003  rzold =   3.224619313398681E-004  alpha = 
  0.271090660238629     
 delta_qm =   0.196146E-03 delta_en =   0.664818E-01 tol =   0.100000E-04
 Iteration #         10
  pAp =   8.624779216418818E-005  rzold =   2.826937715147210E-005  alpha = 
  0.327769284779560     
 delta_qm =   0.148859E-03 delta_en =   0.382908E-01 tol =   0.100000E-04
 Iteration #         11
  pAp =   6.868867173762059E-006  rzold =   5.348965388848422E-006  alpha = 
  0.778725989822687     
 delta_qm =   0.828821E-04 delta_en =   0.118704E-01 tol =   0.100000E-04
 Iteration #         12
  pAp =   1.281149266626516E-005  rzold =   5.263779914776352E-006  alpha = 
  0.410863905705287     
 delta_qm =   0.445814E-04 delta_en =   0.343440E-02 tol =   0.100000E-04
 Iteration #         13
  pAp =   8.676618311419641E-006  rzold =   2.789454867597182E-006  alpha = 
  0.321491019597563     
 delta_qm =   0.277518E-04 delta_en =   0.133084E-02 tol =   0.100000E-04
 Iteration #         14
  pAp =   1.330536596774810E-006  rzold =   6.946607736546267E-007  alpha = 
  0.522090692836611     
 delta_qm =   0.137193E-04 delta_en =   0.325241E-03 tol =   0.100000E-04
 Iteration #         15
  pAp =   4.206300473584538E-007  rzold =   1.829058335909688E-007  alpha = 
  0.434837774285534     
 delta_qm =   0.669579E-05 delta_en =   0.774726E-04 tol =   0.100000E-04
 Iteration #         16
  pAp =   7.715369031759962E-007  rzold =   1.108226302494480E-007  alpha = 
  0.143638793936170     
 delta_qm =   0.489139E-05 delta_en =   0.413436E-04 tol =   0.100000E-04
 Iteration #         17
  pAp =   4.593263447399651E-008  rzold =   1.516323537151509E-008  alpha = 
  0.330119000252410     
 delta_qm =   0.393593E-05 delta_en =   0.267694E-04 tol =   0.100000E-04
 Iteration #         18
  pAp =   1.663212440193635E-008  rzold =   7.440893530381040E-009  alpha = 
  0.447380824635652     
 delta_qm =   0.281873E-05 delta_en =   0.137294E-04 tol =   0.100000E-04
 Iteration #         19
  pAp =   4.618399567195591E-009  rzold =   4.150033054955793E-009  alpha = 
  0.898586836105174     
 delta_qm =   0.114046E-05 delta_en =   0.224751E-05 tol =   0.100000E-04
 Charges are converged, EXIT

%%%% DENSITY %%%%%%%%%%%%%%%%%%%%%%%%%%%%%%%%%%%%%%%%%%%%%%%%%%%%%%%%%%%%%%%%%%%
 density label              = velectrostatic                                                                  
 integral of density        =     0.1338517774E-12

%%%% CHARGES %%%%%%%%%%%%%%%%%%%%%%%%%%%%%%%%%%%%%%%%%%%%%%%%%%%%%%%%%%%%%%%%%%%
 total number of charges    =         12
 total charge               =      1.0000000

%%%% DENSITY %%%%%%%%%%%%%%%%%%%%%%%%%%%%%%%%%%%%%%%%%%%%%%%%%%%%%%%%%%%%%%%%%%%
 density label              = vsoftcavity                                                                     
 integral of density        =      4.102752252    

%%%% ELECTRONS %%%%%%%%%%%%%%%%%%%%%%%%%%%%%%%%%%%%%%%%%%%%%%%%%%%%%%%%%%%%%%%%%
 number of electrons        =          8
 total electronic charge    =      8.0000000
 number of spin components  =  1

%%%% BOUNDARY %%%%%%%%%%%%%%%%%%%%%%%%%%%%%%%%%%%%%%%%%%%%%%%%%%%%%%%%%%%%%%%%%%
 boundary label             = solvent              
 boundary mode              = electronic           
 boundary is built as a function of a smooth density
 function type              =  2 
 using the modified SCCS function with parameters 
 rhomax                     =      0.0155000 
 rhomin                     =      0.0024000 
 volume of the QM region    =    185.1838548 
 surface of the QM region   =    159.9838563 

%%%% DIELECTRIC %%%%%%%%%%%%%%%%%%%%%%%%%%%%%%%%%%%%%%%%%%%%%%%%%%%%%%%%%%%%%%%%%
 dielectric build on homogeneous background
 environment bulk permitt.  =     78.3000000 
 dielectric flags
 need gradient              =  F 
 need factor depend. sqrt   =  T 
 total dielectric charge    =     -0.9849757

%%%% DENSITY %%%%%%%%%%%%%%%%%%%%%%%%%%%%%%%%%%%%%%%%%%%%%%%%%%%%%%%%%%%%%%%%%%%
 density label              = vreference                                                                      
 integral of density        =     0.2778353679E-12

%%%% DENSITY %%%%%%%%%%%%%%%%%%%%%%%%%%%%%%%%%%%%%%%%%%%%%%%%%%%%%%%%%%%%%%%%%%%
 density label              = velectrostatic                                                                  
 integral of density        =     0.1338517774E-12

%%%% CHARGES %%%%%%%%%%%%%%%%%%%%%%%%%%%%%%%%%%%%%%%%%%%%%%%%%%%%%%%%%%%%%%%%%%%
 total number of charges    =         12
 total charge               =      1.0000000

%%%% DENSITY %%%%%%%%%%%%%%%%%%%%%%%%%%%%%%%%%%%%%%%%%%%%%%%%%%%%%%%%%%%%%%%%%%%
 density label              = vsoftcavity                                                                     
 integral of density        =      4.102752252    
