
     Program PWSCF v.6.1 (svn rev. 13369) starts on  7Nov2017 at 17: 2:53 

     This program is part of the open-source Quantum ESPRESSO suite
     for quantum simulation of materials; please cite
         "P. Giannozzi et al., J. Phys.:Condens. Matter 21 395502 (2009);
          URL http://www.quantum-espresso.org", 
     in publications or presentations arising from this work. More details at
     http://www.quantum-espresso.org/quote

     Serial version
     Reading input from anion.in

     Current dimensions of program PWSCF are:
     Max number of different atomic species (ntypx) = 10
     Max number of k-points (npk) =  40000
     Max angular momentum in pseudopotentials (lmaxx) =  3
               file C.pbe-rrkjus.UPF: wavefunction(s)  2S 2P renormalized
               file H.pbe-rrkjus.UPF: wavefunction(s)  1S renormalized
               file N.pbe-rrkjus.UPF: wavefunction(s)  2S renormalized
               file O.pbe-rrkjus.UPF: wavefunction(s)  2S renormalized

     gamma-point specific algorithms are used

     G-vector sticks info
     --------------------
     sticks:   dense  smooth     PW     G-vecs:    dense   smooth      PW
     Sum        9549    3809    949               701475   177509   22119



     bravais-lattice index     =            1
     lattice parameter (alat)  =      20.0000  a.u.
     unit-cell volume          =    8000.0000 (a.u.)^3
     number of atoms/cell      =            8
     number of atomic types    =            4
     number of electrons       =        24.00
     number of Kohn-Sham states=           12
     kinetic-energy cutoff     =      30.0000  Ry
     charge density cutoff     =     300.0000  Ry
     convergence threshold     =      5.0E-03
     mixing beta               =       0.7000
     number of iterations used =            8  plain     mixing
     Exchange-correlation      =  SLA  PW   PBE  PBE ( 1  4  3  4 0 0)


     Environ Module
     ==============

     Plese cite
         O. Andreussi, I. Dabo and N. Marzari, J. Chem. Phys. 136, 064102 (2012)         
     in publications or presentations arising from this work.

     compensation onset threshold      =               0.1000E+03 
     static permittivity               =                    78.30 
     epsilon calculation mode          =               electronic 
     external pressure in input (GPa)  =                     0.45 
     external pressure in inter. units =               0.3059E-04 

     Electrostatic Setup
     -------------------
     electrostatic problem to solve    = generalized              
     numerical solver adopted          = cg                       
     type of auxiliary density adopted = none                     
     type of core tool for poisson     = fft                      
     type of core tool for s(r) deriv  = analytic                 



     celldm(1)=  20.000000  celldm(2)=   0.000000  celldm(3)=   0.000000
     celldm(4)=   0.000000  celldm(5)=   0.000000  celldm(6)=   0.000000

     crystal axes: (cart. coord. in units of alat)
               a(1) = (   1.000000   0.000000   0.000000 )  
               a(2) = (   0.000000   1.000000   0.000000 )  
               a(3) = (   0.000000   0.000000   1.000000 )  

     reciprocal axes: (cart. coord. in units 2 pi/alat)
               b(1) = (  1.000000  0.000000  0.000000 )  
               b(2) = (  0.000000  1.000000  0.000000 )  
               b(3) = (  0.000000  0.000000  1.000000 )  


     PseudoPot. # 1 for C  read from file:
     /Users/oliviero/PWSCF/espresso-6.1-Environ-1.0/Environ/tests/../..//pseudo/C.pbe-rrkjus.UPF
     MD5 check sum: 00fb224312de0c5b6853bd333518df6f
     Pseudo is Ultrasoft, Zval =  4.0
     Generated by new atomic code, or converted to UPF format
     Using radial grid of  627 points,  4 beta functions with: 
                l(1) =   0
                l(2) =   0
                l(3) =   1
                l(4) =   1
     Q(r) pseudized with 0 coefficients 


     PseudoPot. # 2 for H  read from file:
     /Users/oliviero/PWSCF/espresso-6.1-Environ-1.0/Environ/tests/../..//pseudo/H.pbe-rrkjus.UPF
     MD5 check sum: 7cc9d459525c9a0585f487a71c3c9563
     Pseudo is Ultrasoft, Zval =  1.0
     Generated by new atomic code, or converted to UPF format
     Using radial grid of 1061 points,  2 beta functions with: 
                l(1) =   0
                l(2) =   0
     Q(r) pseudized with 0 coefficients 


     PseudoPot. # 3 for N  read from file:
     /Users/oliviero/PWSCF/espresso-6.1-Environ-1.0/Environ/tests/../..//pseudo/N.pbe-rrkjus.UPF
     MD5 check sum: 0c3fbe5807a93f9ba59d5a7019aa238b
     Pseudo is Ultrasoft, Zval =  5.0
     Generated by new atomic code, or converted to UPF format
     Using radial grid of 1257 points,  4 beta functions with: 
                l(1) =   0
                l(2) =   0
                l(3) =   1
                l(4) =   1
     Q(r) pseudized with 0 coefficients 


     PseudoPot. # 4 for O  read from file:
     /Users/oliviero/PWSCF/espresso-6.1-Environ-1.0/Environ/tests/../..//pseudo/O.pbe-rrkjus.UPF
     MD5 check sum: 390ba29e75625707450f3bd3f0eb6be9
     Pseudo is Ultrasoft, Zval =  6.0
     Generated by new atomic code, or converted to UPF format
     Using radial grid of 1269 points,  4 beta functions with: 
                l(1) =   0
                l(2) =   0
                l(3) =   1
                l(4) =   1
     Q(r) pseudized with 0 coefficients 


     atomic species   valence    mass     pseudopotential
        C              4.00    12.00000     C ( 1.00)
        H              1.00     1.00000     H ( 1.00)
        N              5.00    14.00000     N ( 1.00)
        O              6.00    16.00000     O ( 1.00)

     No symmetry found



   Cartesian axes

     site n.     atom                  positions (alat units)
         1           C   tau(   1) = (   0.0000000   0.0000000   0.0000000  )
         2           C   tau(   2) = (   0.0000000   0.0000000   0.1455089  )
         3           N   tau(   3) = (   0.1170969   0.0000000  -0.0545024  )
         4           H   tau(   4) = (   0.0476617  -0.0825466   0.1792090  )
         5           H   tau(   5) = (  -0.0953183  -0.0000030   0.1792090  )
         6           H   tau(   6) = (   0.0476566   0.0825496   0.1792090  )
         7           O   tau(   7) = (  -0.0984002  -0.0000019  -0.0641310  )
         8           H   tau(   8) = (   0.1944645   0.0000134  -0.0025716  )

     number of k points=     1
                       cart. coord. in units 2pi/alat
        k(    1) = (   0.0000000   0.0000000   0.0000000), wk =   2.0000000

     Dense  grid:   350738 G-vectors     FFT dimensions: ( 120, 120, 120)

     Smooth grid:    88755 G-vectors     FFT dimensions: (  72,  72,  72)

     Estimated max dynamical RAM per process >     298.30MB

     Initial potential from superposition of free atoms
     Check: negative starting charge=   -0.000561

     starting charge   22.61507, renormalised to   24.00000

     negative rho (up, down):  5.954E-04 0.000E+00
     Starting wfc are   20 randomized atomic wfcs

     total cpu time spent up to now is        7.7 secs

     Self-consistent Calculation

     iteration #  1     ecut=    30.00 Ry     beta=0.70
     Davidson diagonalization with overlap
     ethr =  1.00E-02,  avg # of iterations =  2.0

     negative rho (up, down):  1.758E-04 0.000E+00

     add environment contribution to local potential
     polarization accuracy = 6.7E-05, # of iterations =  23

     total cpu time spent up to now is       17.5 secs

     total energy              =     -78.45501890 Ry
     Harris-Foulkes estimate   =     -80.30749154 Ry
     estimated scf accuracy    <       2.43325747 Ry
     electrostatic embedding   =      -0.00222918 Ry
     PV energy                 =       0.01075335 Ry
     correction to one-el term =       0.00000000 Ry

     iteration #  2     ecut=    30.00 Ry     beta=0.70
     Davidson diagonalization with overlap
     ethr =  1.00E-02,  avg # of iterations =  4.0

     negative rho (up, down):  3.153E-03 0.000E+00

     add environment contribution to local potential
     polarization accuracy = 4.6E-05, # of iterations =  27

     total cpu time spent up to now is       29.0 secs

     total energy              =     -78.95261575 Ry
     Harris-Foulkes estimate   =     -81.92593018 Ry
     estimated scf accuracy    <       2.14089021 Ry
     electrostatic embedding   =      -0.10140318 Ry
     PV energy                 =       0.01097736 Ry
     correction to one-el term =       1.96177396 Ry

     iteration #  3     ecut=    30.00 Ry     beta=0.70
     Davidson diagonalization with overlap
     ethr =  8.92E-03,  avg # of iterations =  5.0

     negative rho (up, down):  2.949E-02 0.000E+00

     add environment contribution to local potential
     polarization accuracy = 6.0E-05, # of iterations =  23

     total cpu time spent up to now is       40.7 secs

     total energy              =     -79.87975855 Ry
     Harris-Foulkes estimate   =    -107.86372171 Ry
     estimated scf accuracy    <      20.71022484 Ry
     electrostatic embedding   =      11.43787774 Ry
     PV energy                 =       0.01096835 Ry
     correction to one-el term =      16.43916237 Ry

     iteration #  4     ecut=    30.00 Ry     beta=0.70
     Davidson diagonalization with overlap
     ethr =  8.92E-03,  avg # of iterations =  4.0

     negative rho (up, down):  6.318E-03 0.000E+00

     add environment contribution to local potential
     polarization accuracy = 9.0E-05, # of iterations =  27

     total cpu time spent up to now is       51.8 secs

     total energy              =     -79.72739717 Ry
     Harris-Foulkes estimate   =     -81.70701280 Ry
     estimated scf accuracy    <       0.13281387 Ry
     electrostatic embedding   =      -0.40680026 Ry
     PV energy                 =       0.01079880 Ry
     correction to one-el term =       2.31382565 Ry

     iteration #  5     ecut=    30.00 Ry     beta=0.70
     Davidson diagonalization with overlap
     ethr =  5.53E-04,  avg # of iterations =  5.0

     negative rho (up, down):  5.885E-04 0.000E+00

     add environment contribution to local potential
     polarization accuracy = 4.0E-05, # of iterations =  24

     total cpu time spent up to now is       62.5 secs

     total energy              =     -85.49333735 Ry
     Harris-Foulkes estimate   =     -76.91574048 Ry
     estimated scf accuracy    <       1.52799138 Ry
     electrostatic embedding   =      -5.00293187 Ry
     PV energy                 =       0.01090541 Ry
     correction to one-el term =      -3.66321867 Ry

     iteration #  6     ecut=    30.00 Ry     beta=0.70
     Davidson diagonalization with overlap
     ethr =  5.53E-04,  avg # of iterations =  4.0

     negative rho (up, down):  5.119E-04 0.000E+00

     add environment contribution to local potential
     polarization accuracy = 3.7E-05, # of iterations =  24

     total cpu time spent up to now is       72.9 secs

     total energy              =     -79.51761164 Ry
     Harris-Foulkes estimate   =     -82.14509467 Ry
     estimated scf accuracy    <       0.01933140 Ry
     electrostatic embedding   =      -0.17650071 Ry
     PV energy                 =       0.01110407 Ry
     correction to one-el term =       2.78994427 Ry

     iteration #  7     ecut=    30.00 Ry     beta=0.70
     Davidson diagonalization with overlap
     ethr =  8.05E-05,  avg # of iterations =  2.0

     negative rho (up, down):  1.252E-03 0.000E+00

     add environment contribution to local potential
     polarization accuracy = 4.0E-05, # of iterations =  24

     total cpu time spent up to now is       83.1 secs

     total energy              =     -79.52082751 Ry
     Harris-Foulkes estimate   =     -82.39832194 Ry
     estimated scf accuracy    <       0.01347448 Ry
     electrostatic embedding   =      -0.19591261 Ry
     PV energy                 =       0.01117227 Ry
     correction to one-el term =       3.06084229 Ry

     iteration #  8     ecut=    30.00 Ry     beta=0.70
     Davidson diagonalization with overlap
     ethr =  5.61E-05,  avg # of iterations =  1.0

     negative rho (up, down):  1.500E-03 0.000E+00

     add environment contribution to local potential
     polarization accuracy = 3.9E-05, # of iterations =  24

     total cpu time spent up to now is       93.2 secs

     total energy              =     -79.52907661 Ry
     Harris-Foulkes estimate   =     -82.52958932 Ry
     estimated scf accuracy    <       0.01128217 Ry
     electrostatic embedding   =      -0.20879741 Ry
     PV energy                 =       0.01118978 Ry
     correction to one-el term =       3.19784985 Ry

     iteration #  9     ecut=    30.00 Ry     beta=0.70
     Davidson diagonalization with overlap
     ethr =  4.70E-05,  avg # of iterations =  1.0

     negative rho (up, down):  1.419E-03 0.000E+00

     add environment contribution to local potential
     polarization accuracy = 4.0E-05, # of iterations =  24

     total cpu time spent up to now is      103.4 secs

     total energy              =     -79.53044561 Ry
     Harris-Foulkes estimate   =     -82.58660689 Ry
     estimated scf accuracy    <       0.01006354 Ry
     electrostatic embedding   =      -0.21298103 Ry
     PV energy                 =       0.01118811 Ry
     correction to one-el term =       3.25784421 Ry

     iteration # 10     ecut=    30.00 Ry     beta=0.70
     Davidson diagonalization with overlap
     ethr =  4.19E-05,  avg # of iterations =  1.0

     negative rho (up, down):  1.155E-03 0.000E+00

     add environment contribution to local potential
     polarization accuracy = 3.9E-05, # of iterations =  24

     total cpu time spent up to now is      113.6 secs

     total energy              =     -79.53080929 Ry
     Harris-Foulkes estimate   =     -82.63989676 Ry
     estimated scf accuracy    <       0.00897223 Ry
     electrostatic embedding   =      -0.21577492 Ry
     PV energy                 =       0.01119008 Ry
     correction to one-el term =       3.31367970 Ry

     iteration # 11     ecut=    30.00 Ry     beta=0.70
     Davidson diagonalization with overlap
     ethr =  3.74E-05,  avg # of iterations =  1.0

     negative rho (up, down):  1.060E-03 0.000E+00

     add environment contribution to local potential
     polarization accuracy = 3.8E-05, # of iterations =  24

     total cpu time spent up to now is      123.6 secs

     total energy              =     -79.53177231 Ry
     Harris-Foulkes estimate   =     -82.70321562 Ry
     estimated scf accuracy    <       0.00787150 Ry
     electrostatic embedding   =      -0.21771774 Ry
     PV energy                 =       0.01119037 Ry
     correction to one-el term =       3.37801952 Ry

     iteration # 12     ecut=    30.00 Ry     beta=0.70
     Davidson diagonalization with overlap
     ethr =  3.28E-05,  avg # of iterations =  1.0

     negative rho (up, down):  6.079E-04 0.000E+00

     add environment contribution to local potential
     polarization accuracy = 5.8E-05, # of iterations =  29

     total cpu time spent up to now is      134.5 secs

     total energy              =     -79.52819285 Ry
     Harris-Foulkes estimate   =     -82.73190461 Ry
     estimated scf accuracy    <       0.00751978 Ry
     electrostatic embedding   =      -0.22215051 Ry
     PV energy                 =       0.01119677 Ry
     correction to one-el term =       3.41597793 Ry

     iteration # 13     ecut=    30.00 Ry     beta=0.70
     Davidson diagonalization with overlap
     ethr =  3.13E-05,  avg # of iterations =  6.0

     negative rho (up, down):  4.286E-03 0.000E+00

     add environment contribution to local potential
     polarization accuracy = 4.0E-05, # of iterations =  28

     total cpu time spent up to now is      145.9 secs

     total energy              =     -84.54689078 Ry
     Harris-Foulkes estimate   =     -78.02893330 Ry
     estimated scf accuracy    <       1.15153661 Ry
     electrostatic embedding   =      -4.38783427 Ry
     PV energy                 =       0.01119239 Ry
     correction to one-el term =      -2.14120138 Ry

     iteration # 14     ecut=    30.00 Ry     beta=0.70
     Davidson diagonalization with overlap
     ethr =  3.13E-05,  avg # of iterations = 17.0

     negative rho (up, down):  8.276E-03 0.000E+00

     add environment contribution to local potential
     polarization accuracy = 5.6E-05, # of iterations =  31

     total cpu time spent up to now is      158.2 secs

     total energy              =     -88.37211883 Ry
     Harris-Foulkes estimate   =     -75.21057856 Ry
     estimated scf accuracy    <       3.97589759 Ry
     electrostatic embedding   =      -7.05458426 Ry
     PV energy                 =       0.01119150 Ry
     correction to one-el term =      -6.10922064 Ry

     iteration # 15     ecut=    30.00 Ry     beta=0.70
     Davidson diagonalization with overlap
     WARNING:     6 eigenvalues not converged in regterg
     WARNING:     1 eigenvalues not converged in regterg
     c_bands:  1 eigenvalues not converged
     ethr =  3.13E-05,  avg # of iterations = 40.0

     negative rho (up, down):  3.874E-02 0.000E+00

     add environment contribution to local potential
     polarization accuracy = 4.2E-05, # of iterations =  37

     total cpu time spent up to now is      173.4 secs

     total energy              =    -128.41184869 Ry
     Harris-Foulkes estimate   =     -67.74983662 Ry
     estimated scf accuracy    <      61.60659525 Ry
     electrostatic embedding   =     -24.25737160 Ry
     PV energy                 =       0.01119765 Ry
     correction to one-el term =     -36.07253199 Ry

     iteration # 16     ecut=    30.00 Ry     beta=0.70
     Davidson diagonalization with overlap
     WARNING:    12 eigenvalues not converged in regterg
     WARNING:     7 eigenvalues not converged in regterg
     WARNING:     8 eigenvalues not converged in regterg
     WARNING:     5 eigenvalues not converged in regterg
     c_bands:  5 eigenvalues not converged
     ethr =  3.13E-05,  avg # of iterations = 80.0

     negative rho (up, down):  5.139E-02 0.000E+00

     total cpu time spent up to now is      185.7 secs

     total energy              =    -648.12581577 Ry
     Harris-Foulkes estimate   =     -64.62679022 Ry
     estimated scf accuracy    <     132.23935274 Ry
     electrostatic embedding   =    -141.04096300 Ry
     PV energy                 =       0.01120372 Ry
     correction to one-el term =    -442.32227711 Ry

     iteration # 17     ecut=    30.00 Ry     beta=0.70
     Davidson diagonalization with overlap
     WARNING:     5 eigenvalues not converged in regterg
     c_bands:  5 eigenvalues not converged
     ethr =  3.13E-05,  avg # of iterations = 20.0

     negative rho (up, down):  5.524E-02 0.000E+00

     total cpu time spent up to now is      191.9 secs

     total energy              =    -648.61047629 Ry
     Harris-Foulkes estimate   =     -65.15550870 Ry
     estimated scf accuracy    <     135.76605159 Ry
     electrostatic embedding   =    -141.04009752 Ry
     PV energy                 =       0.01120537 Ry
     correction to one-el term =    -442.38388287 Ry

     iteration # 18     ecut=    30.00 Ry     beta=0.70
     Davidson diagonalization with overlap
     WARNING:     5 eigenvalues not converged in regterg
     c_bands:  5 eigenvalues not converged
     ethr =  3.13E-05,  avg # of iterations = 20.0

     negative rho (up, down):  5.644E-02 0.000E+00

     total cpu time spent up to now is      198.1 secs

     total energy              =    -648.80371556 Ry
     Harris-Foulkes estimate   =     -65.36179623 Ry
     estimated scf accuracy    <     137.36768432 Ry
     electrostatic embedding   =    -141.04031619 Ry
     PV energy                 =       0.01120591 Ry
     correction to one-el term =    -442.40040525 Ry

     iteration # 19     ecut=    30.00 Ry     beta=0.70
     Davidson diagonalization with overlap
     WARNING:     5 eigenvalues not converged in regterg
     c_bands:  5 eigenvalues not converged
     ethr =  3.13E-05,  avg # of iterations = 20.0

     negative rho (up, down):  5.722E-02 0.000E+00

     total cpu time spent up to now is      204.4 secs

     total energy              =    -648.99058246 Ry
     Harris-Foulkes estimate   =     -65.44740204 Ry
     estimated scf accuracy    <     138.02952272 Ry
     electrostatic embedding   =    -141.04438008 Ry
     PV energy                 =       0.01120683 Ry
     correction to one-el term =    -442.49447931 Ry

     iteration # 20     ecut=    30.00 Ry     beta=0.70
     Davidson diagonalization with overlap
     WARNING:     5 eigenvalues not converged in regterg
     c_bands:  5 eigenvalues not converged
     ethr =  3.13E-05,  avg # of iterations = 20.0

     negative rho (up, down):  5.126E-02 0.000E+00

     total cpu time spent up to now is      210.4 secs

     total energy              =    -642.01883175 Ry
     Harris-Foulkes estimate   =     -65.53772626 Ry
     estimated scf accuracy    <     138.39133007 Ry
     electrostatic embedding   =    -140.98460554 Ry
     PV energy                 =       0.01116409 Ry
     correction to one-el term =    -435.87413933 Ry

     iteration # 21     ecut=    30.00 Ry     beta=0.70
     Davidson diagonalization with overlap
     WARNING:     3 eigenvalues not converged in regterg
     c_bands:  3 eigenvalues not converged
     ethr =  3.13E-05,  avg # of iterations = 20.0

     negative rho (up, down):  3.621E-01 0.000E+00

     total cpu time spent up to now is      216.3 secs

     total energy              =    -681.82139231 Ry
     Harris-Foulkes estimate   =     -65.19921945 Ry
     estimated scf accuracy    <     138.09256666 Ry
     electrostatic embedding   =    -149.50852343 Ry
     PV energy                 =       0.01213206 Ry
     correction to one-el term =    -466.11680755 Ry

     iteration # 22     ecut=    30.00 Ry     beta=0.70
     Davidson diagonalization with overlap
     WARNING:     4 eigenvalues not converged in regterg
     c_bands:  4 eigenvalues not converged
     ethr =  3.13E-05,  avg # of iterations = 20.0

     negative rho (up, down):  1.892E+00 0.000E+00

     total cpu time spent up to now is      222.8 secs

     total energy              =    -622.66913056 Ry
     Harris-Foulkes estimate   =     -66.25762141 Ry
     estimated scf accuracy    <     138.87794704 Ry
     electrostatic embedding   =    -164.16434430 Ry
     PV energy                 =       0.01229823 Ry
     correction to one-el term =    -394.66621139 Ry

     iteration # 23     ecut=    30.00 Ry     beta=0.70
     Davidson diagonalization with overlap
     WARNING:    12 eigenvalues not converged in regterg
     WARNING:     6 eigenvalues not converged in regterg
     WARNING:     6 eigenvalues not converged in regterg
     WARNING:     5 eigenvalues not converged in regterg
     c_bands:  5 eigenvalues not converged
     ethr =  3.13E-05,  avg # of iterations = 80.0

     negative rho (up, down):  7.680E+00 0.000E+00

     total cpu time spent up to now is      234.7 secs

     total energy              =    -321.14231829 Ry
     Harris-Foulkes estimate   =     -64.17508736 Ry
     estimated scf accuracy    <     137.50076381 Ry
     electrostatic embedding   =    -192.80206626 Ry
     PV energy                 =       0.03266220 Ry
     correction to one-el term =     -94.56915328 Ry

     iteration # 24     ecut=    30.00 Ry     beta=0.70
     Davidson diagonalization with overlap
     WARNING:    12 eigenvalues not converged in regterg
     WARNING:    12 eigenvalues not converged in regterg
     WARNING:    12 eigenvalues not converged in regterg
     WARNING:    12 eigenvalues not converged in regterg
     WARNING:    12 eigenvalues not converged in regterg
     WARNING:    10 eigenvalues not converged in regterg

 %%%%%%%%%%%%%%%%%%%%%%%%%%%%%%%%%%%%%%%%%%%%%%%%%%%%%%%%%%%%%%%%%%%%%%%%%%%%%%
     Error in routine c_bands (1):
     too many bands are not converged
 %%%%%%%%%%%%%%%%%%%%%%%%%%%%%%%%%%%%%%%%%%%%%%%%%%%%%%%%%%%%%%%%%%%%%%%%%%%%%%

     stopping ...

%%%% IONS %%%%%%%%%%%%%%%%%%%%%%%%%%%%%%%%%%%%%%%%%%%%%%%%%%%%%%%%%%%%%%%%%%%%%%
 number of ions             =          8
 ionic center of charge     =      0.0082412     0.0000001     0.0199910
 total ionic charge         =    -23.0000000
 ionic dipole               =      0.0000000     0.0000000     0.0000000
 ionic quadrupole (pc)      =    -70.6147067    -5.4513517   -84.5532413
 ionic quadrupole (gauss)   =    -73.4897067    -8.3263517   -87.4282413
 ion   1 type =  1 coordinates =      0.0000000     0.0000000     0.0000000
 ion   2 type =  1 coordinates =      0.0000000     0.0000000     2.9101782
 ion   3 type =  3 coordinates =      2.3419379     0.0000000    -1.0900479
 ion   4 type =  2 coordinates =      0.9532347    -1.6509323     3.5841800
 ion   5 type =  2 coordinates =     -1.9063663    -0.0000596     3.5841809
 ion   6 type =  2 coordinates =      0.9531315     1.6509919     3.5841800
 ion   7 type =  4 coordinates =     -1.9680045    -0.0000375    -1.2826193
 ion   8 type =  2 coordinates =      3.8892907     0.0002681    -0.0514326

%%%% SYSTEM %%%%%%%%%%%%%%%%%%%%%%%%%%%%%%%%%%%%%%%%%%%%%%%%%%%%%%%%%%%%%%%%%%%%
 system is built from all present ionic types
 system defined dimension   =  0 
 system defined axis        =  3 
 system center              =      0.0082412     0.0000001     0.0199910 
 system width               =      0.4368498 

%%%% ELECTRONS %%%%%%%%%%%%%%%%%%%%%%%%%%%%%%%%%%%%%%%%%%%%%%%%%%%%%%%%%%%%%%%%%
 number of electrons        =         24
 total electronic charge    =     24.0000000
 number of spin components  =  1

%%%% BOUNDARY %%%%%%%%%%%%%%%%%%%%%%%%%%%%%%%%%%%%%%%%%%%%%%%%%%%%%%%%%%%%%%%%%%
 boundary mode              = electronic           
 boundary is built as a function of a smooth density
 function type              =  2 
 using the modified SCCS function with parameters 
 rhomax                     =      0.0155000 
 rhomin                     =      0.0024000 
 volume of the QM region    =    351.5270604 
 surface of the QM region   =    268.3313119 

%%%% DIELECTRIC %%%%%%%%%%%%%%%%%%%%%%%%%%%%%%%%%%%%%%%%%%%%%%%%%%%%%%%%%%%%%%%%%
 dielectric build on homogeneous background
 environment bulk permitt.  =     78.3000000 
 dielectric flags
 need gradient              =  F 
 need factor depend. sqrt   =  T 
 need gradient of logarithm =  T 

%%%% COMPUTE ELECTROSTATIC POTENTIAL %%%%%%%%%%%%%%%%%%%%%%%%%%%%%%%%%%%%%%%%%%%
 Iteration #          1
  pAp =    93.153242160822828       rzold =    91.253872095954407       alpha =   0.97961026346684443     
 delta_qm =   0.463868E-01 delta_en =   0.371819E+04 tol =   0.100000E-03
 Iteration #          2
  pAp =    339.98989967054041       rzold =    22.770757437436874       alpha =    6.6974805603055756E-002
 delta_qm =   0.137680E-01 delta_en =   0.327557E+03 tol =   0.100000E-03
 Iteration #          3
  pAp =    11.639254503087582       rzold =    1.2162065978359260       alpha =   0.10449179520159982     
 delta_qm =   0.519839E-02 delta_en =   0.466962E+02 tol =   0.100000E-03
 Iteration #          4
  pAp =    2.8690079761984291       rzold =   0.28329657999939334       alpha =    9.8743740815518635E-002
 delta_qm =   0.345612E-02 delta_en =   0.206406E+02 tol =   0.100000E-03
 Iteration #          5
  pAp =   0.11488646334776385       rzold =    1.8107226864536904E-002  alpha =   0.15760975085224732     
 delta_qm =   0.288401E-02 delta_en =   0.143726E+02 tol =   0.100000E-03
 Iteration #          6
  pAp =    2.1360233382610422E-002  rzold =    4.6560042735365450E-003  alpha =   0.21797534653001704     
 delta_qm =   0.239055E-02 delta_en =   0.987504E+01 tol =   0.100000E-03
 Iteration #          7
  pAp =    2.1062926559958738E-002  rzold =    4.3311960270974456E-003  alpha =   0.20563125521840733     
 delta_qm =   0.181424E-02 delta_en =   0.568765E+01 tol =   0.100000E-03
 Iteration #          8
  pAp =    9.6271869238301142E-003  rzold =    2.4876361678445569E-003  alpha =   0.25839699462850640     
 delta_qm =   0.139854E-02 delta_en =   0.337982E+01 tol =   0.100000E-03
 Iteration #          9
  pAp =    3.2150881117738155E-003  rzold =    1.3709041621690595E-003  alpha =   0.42639707358213264     
 delta_qm =   0.109289E-02 delta_en =   0.206393E+01 tol =   0.100000E-03
 Iteration #         10
  pAp =    3.3730158757299066E-003  rzold =    1.2964607390707809E-003  alpha =   0.38436247762700854     
 delta_qm =   0.724107E-03 delta_en =   0.906043E+00 tol =   0.100000E-03
 Iteration #         11
  pAp =    3.9140767306129007E-003  rzold =    1.1900510181158111E-003  alpha =   0.30404386526409827     
 delta_qm =   0.415757E-03 delta_en =   0.298692E+00 tol =   0.100000E-03
 Iteration #         12
  pAp =    2.4236367196018805E-003  rzold =    5.3894703858961307E-004  alpha =   0.22237121356955813     
 delta_qm =   0.236646E-03 delta_en =   0.967704E-01 tol =   0.100000E-03
 Iteration #         13
  pAp =    2.5030015098198257E-004  rzold =    7.2046921589485316E-005  alpha =   0.28784210199965676     
 delta_qm =   0.198530E-03 delta_en =   0.681079E-01 tol =   0.100000E-03
 Iteration #         14
  pAp =    6.0449876823086174E-005  rzold =    1.6578269125797700E-005  alpha =   0.27424818704454923     
 delta_qm =   0.154014E-03 delta_en =   0.409887E-01 tol =   0.100000E-03
 Iteration #         15
  pAp =    5.2726396124970997E-005  rzold =    1.2545007208720394E-005  alpha =   0.23792650608978624     
 delta_qm =   0.115854E-03 delta_en =   0.231936E-01 tol =   0.100000E-03
 Iteration #         16
  pAp =    2.1149908539983539E-005  rzold =    7.5818288443147176E-006  alpha =   0.35848045536373835     
 delta_qm =   0.888266E-04 delta_en =   0.136342E-01 tol =   0.100000E-03
 Iteration #         17
  pAp =    1.9923945814205278E-005  rzold =    6.2316451577343166E-006  alpha =   0.31277163749819620     
 delta_qm =   0.566596E-04 delta_en =   0.554742E-02 tol =   0.100000E-03
 Iteration #         18
  pAp =    7.1348306160167170E-006  rzold =    2.6386940243027031E-006  alpha =   0.36983274955108209     
 delta_qm =   0.444543E-04 delta_en =   0.341484E-02 tol =   0.100000E-03
 Iteration #         19
  pAp =    2.9574158599525867E-006  rzold =    1.0559200364161411E-006  alpha =   0.35704144645828390     
 delta_qm =   0.261574E-04 delta_en =   0.118231E-02 tol =   0.100000E-03
 Iteration #         20
  pAp =    1.1347570072169392E-006  rzold =    4.3133678523039506E-007  alpha =   0.38011378866765039     
 delta_qm =   0.143847E-04 delta_en =   0.357558E-03 tol =   0.100000E-03
 Iteration #         21
  pAp =    2.7963502304463443E-007  rzold =    1.0390984591326706E-007  alpha =   0.37159095731968206     
 delta_qm =   0.927683E-05 delta_en =   0.148711E-03 tol =   0.100000E-03
 Iteration #         22
  pAp =    1.6869996577849763E-007  rzold =    4.0087597937263286E-008  alpha =   0.23762659199290020     
 delta_qm =   0.807252E-05 delta_en =   0.112606E-03 tol =   0.100000E-03
 Iteration #         23
  pAp =    5.0664406880084692E-007  rzold =    7.3354566788004172E-008  alpha =   0.14478520781191379     
 delta_qm =   0.623488E-05 delta_en =   0.671737E-04 tol =   0.100000E-03
 Charges are converged, EXIT

%%%% ELECTRONS %%%%%%%%%%%%%%%%%%%%%%%%%%%%%%%%%%%%%%%%%%%%%%%%%%%%%%%%%%%%%%%%%
 number of electrons        =         24
 total electronic charge    =     24.0000000
 number of spin components  =  1

%%%% BOUNDARY %%%%%%%%%%%%%%%%%%%%%%%%%%%%%%%%%%%%%%%%%%%%%%%%%%%%%%%%%%%%%%%%%%
 boundary mode              = electronic           
 boundary is built as a function of a smooth density
 function type              =  2 
 using the modified SCCS function with parameters 
 rhomax                     =      0.0155000 
 rhomin                     =      0.0024000 
 volume of the QM region    =    358.8499988 
 surface of the QM region   =    272.6115033 

%%%% DIELECTRIC %%%%%%%%%%%%%%%%%%%%%%%%%%%%%%%%%%%%%%%%%%%%%%%%%%%%%%%%%%%%%%%%%
 dielectric build on homogeneous background
 environment bulk permitt.  =     78.3000000 
 dielectric flags
 need gradient              =  F 
 need factor depend. sqrt   =  T 
 need gradient of logarithm =  T 

%%%% COMPUTE ELECTROSTATIC POTENTIAL %%%%%%%%%%%%%%%%%%%%%%%%%%%%%%%%%%%%%%%%%%%
 Warning: bad guess with residual norm =   0.186011E+05, reset to no guess
 Iteration #          1
  pAp =    87.548228319046117       rzold =    90.566709193629634       alpha =    1.0344779207134092     
 delta_qm =   0.893025E-01 delta_en =   0.137807E+05 tol =   0.100000E-03
 Iteration #          2
  pAp =    380.55501816811801       rzold =    30.739917828623625       alpha =    8.0776540476582642E-002
 delta_qm =   0.751666E-01 delta_en =   0.976324E+04 tol =   0.100000E-03
 Iteration #          3
  pAp =    10.506832547779679       rzold =    5.4659359878030047       alpha =   0.52022681078686039     
 delta_qm =   0.795087E-01 delta_en =   0.109238E+05 tol =   0.100000E-03
 Iteration #          4
  pAp =    111.91888187276828       rzold =    25.860058605832450       alpha =   0.23106073053187490     
 delta_qm =   0.813991E-01 delta_en =   0.114494E+05 tol =   0.100000E-03
 Iteration #          5
  pAp =    130.35578309724346       rzold =    31.631322647520644       alpha =   0.24265377335752072     
 delta_qm =   0.288432E-01 delta_en =   0.143758E+04 tol =   0.100000E-03
 Iteration #          6
  pAp =    33.320489821211702       rzold =    5.3156642984333109       alpha =   0.15953139725603249     
 delta_qm =   0.104823E-01 delta_en =   0.189872E+03 tol =   0.100000E-03
 Iteration #          7
  pAp =    2.9346767801682345       rzold =   0.38335344613831984       alpha =   0.13062884769079869     
 delta_qm =   0.658389E-02 delta_en =   0.749047E+02 tol =   0.100000E-03
 Iteration #          8
  pAp =   0.65287066383884218       rzold =    9.1518225708884418E-002  alpha =   0.14017818655039957     
 delta_qm =   0.503124E-02 delta_en =   0.437415E+02 tol =   0.100000E-03
 Iteration #          9
  pAp =    9.9700267522941893E-002  rzold =    2.8875655329020533E-002  alpha =   0.28962465243512003     
 delta_qm =   0.248071E-02 delta_en =   0.106340E+02 tol =   0.100000E-03
 Iteration #         10
  pAp =    2.6484944374471388E-002  rzold =    7.7573796255426750E-003  alpha =   0.29289771259704617     
 delta_qm =   0.155387E-02 delta_en =   0.417225E+01 tol =   0.100000E-03
 Iteration #         11
  pAp =    6.5102823625677103E-003  rzold =    2.0001519035482032E-003  alpha =   0.30722967025954406     
 delta_qm =   0.119020E-02 delta_en =   0.244784E+01 tol =   0.100000E-03
 Iteration #         12
  pAp =    1.6774079595914284E-003  rzold =    6.6817771504471067E-004  alpha =   0.39833942078554396     
 delta_qm =   0.111105E-02 delta_en =   0.213309E+01 tol =   0.100000E-03
 Iteration #         13
  pAp =    2.0236273410905270E-003  rzold =    8.5565484188829927E-004  alpha =   0.42283222039646357     
 delta_qm =   0.788770E-03 delta_en =   0.107509E+01 tol =   0.100000E-03
 Iteration #         14
  pAp =    3.3068234508314490E-003  rzold =    9.9242320009454931E-004  alpha =   0.30011375413616959     
 delta_qm =   0.568016E-03 delta_en =   0.557525E+00 tol =   0.100000E-03
 Iteration #         15
  pAp =    3.1939743827107273E-003  rzold =    6.7975241583607190E-004  alpha =   0.21282337751850275     
 delta_qm =   0.439172E-03 delta_en =   0.333283E+00 tol =   0.100000E-03
 Iteration #         16
  pAp =    7.5885561275838571E-004  rzold =    1.7377685456939693E-004  alpha =   0.22899857581303318     
 delta_qm =   0.328459E-03 delta_en =   0.186426E+00 tol =   0.100000E-03
 Iteration #         17
  pAp =    2.8242675492984613E-004  rzold =    6.0818168962254249E-005  alpha =   0.21534138639719624     
 delta_qm =   0.254832E-03 delta_en =   0.112216E+00 tol =   0.100000E-03
 Iteration #         18
  pAp =    6.2099570852958521E-005  rzold =    2.0486815256446763E-005  alpha =   0.32990268652509919     
 delta_qm =   0.147750E-03 delta_en =   0.377225E-01 tol =   0.100000E-03
 Iteration #         19
  pAp =    1.7933523057783171E-005  rzold =    7.5002878927215346E-006  alpha =   0.41822724227442865     
 delta_qm =   0.922970E-04 delta_en =   0.147204E-01 tol =   0.100000E-03
 Iteration #         20
  pAp =    9.1135460919671080E-006  rzold =    3.7643030588600285E-006  alpha =   0.41304482589691111     
 delta_qm =   0.645944E-04 delta_en =   0.720996E-02 tol =   0.100000E-03
 Iteration #         21
  pAp =    2.9308738627994005E-006  rzold =    1.6250554248850215E-006  alpha =   0.55446105870037787     
 delta_qm =   0.463363E-04 delta_en =   0.371010E-02 tol =   0.100000E-03
 Iteration #         22
  pAp =    2.3806619267235500E-006  rzold =    1.0519947446866069E-006  alpha =   0.44189169947975054     
 delta_qm =   0.276371E-04 delta_en =   0.131986E-02 tol =   0.100000E-03
 Iteration #         23
  pAp =    2.1102107483459526E-006  rzold =    4.6357139036514180E-007  alpha =   0.21968013892854216     
 delta_qm =   0.212262E-04 delta_en =   0.778556E-03 tol =   0.100000E-03
 Iteration #         24
  pAp =    3.6818121719031940E-006  rzold =    4.1382640911051640E-007  alpha =   0.11239747977056695     
 delta_qm =   0.164163E-04 delta_en =   0.465686E-03 tol =   0.100000E-03
 Iteration #         25
  pAp =    8.8805488176573550E-007  rzold =    1.6194909834898030E-007  alpha =   0.18236383997684241     
 delta_qm =   0.126025E-04 delta_en =   0.274446E-03 tol =   0.100000E-03
 Iteration #         26
  pAp =    1.2230460567781758E-007  rzold =    4.8056727351125101E-008  alpha =   0.39292655484879391     
 delta_qm =   0.822180E-05 delta_en =   0.116809E-03 tol =   0.100000E-03
 Iteration #         27
  pAp =    5.7743396297656017E-008  rzold =    2.9188125921021543E-008  alpha =   0.50547989540764815     
 delta_qm =   0.514028E-05 delta_en =   0.456580E-04 tol =   0.100000E-03
 Charges are converged, EXIT

%%%% ELECTRONS %%%%%%%%%%%%%%%%%%%%%%%%%%%%%%%%%%%%%%%%%%%%%%%%%%%%%%%%%%%%%%%%%
 number of electrons        =         24
 total electronic charge    =     24.0000000
 number of spin components  =  1

%%%% BOUNDARY %%%%%%%%%%%%%%%%%%%%%%%%%%%%%%%%%%%%%%%%%%%%%%%%%%%%%%%%%%%%%%%%%%
 boundary mode              = electronic           
 boundary is built as a function of a smooth density
 function type              =  2 
 using the modified SCCS function with parameters 
 rhomax                     =      0.0155000 
 rhomin                     =      0.0024000 
 volume of the QM region    =    358.5553845 
 surface of the QM region   =    273.1639702 

%%%% DIELECTRIC %%%%%%%%%%%%%%%%%%%%%%%%%%%%%%%%%%%%%%%%%%%%%%%%%%%%%%%%%%%%%%%%%
 dielectric build on homogeneous background
 environment bulk permitt.  =     78.3000000 
 dielectric flags
 need gradient              =  F 
 need factor depend. sqrt   =  T 
 need gradient of logarithm =  T 

%%%% COMPUTE ELECTROSTATIC POTENTIAL %%%%%%%%%%%%%%%%%%%%%%%%%%%%%%%%%%%%%%%%%%%
 Warning: bad guess with residual norm =   0.144995E+05, reset to no guess
 Iteration #          1
  pAp =    91.871067645211014       rzold =    89.913822630916400       alpha =   0.97869574105905544     
 delta_qm =   0.486233E-01 delta_en =   0.408538E+04 tol =   0.100000E-03
 Iteration #          2
  pAp =    343.94889988894477       rzold =    23.986992675430422       alpha =    6.9739989525116702E-002
 delta_qm =   0.107612E-01 delta_en =   0.200109E+03 tol =   0.100000E-03
 Iteration #          3
  pAp =    6.1781701901605102       rzold =   0.62824790457475732       alpha =   0.10168834545466532     
 delta_qm =   0.389201E-02 delta_en =   0.261753E+02 tol =   0.100000E-03
 Iteration #          4
  pAp =    1.8629315976781708       rzold =   0.16791868758283268       alpha =    9.0136797181450429E-002
 delta_qm =   0.351938E-02 delta_en =   0.214031E+02 tol =   0.100000E-03
 Iteration #          5
  pAp =    6.4238824506612752E-002  rzold =    1.1611993650862065E-002  alpha =   0.18076286015580384     
 delta_qm =   0.294598E-02 delta_en =   0.149970E+02 tol =   0.100000E-03
 Iteration #          6
  pAp =    8.2398279691874472E-003  rzold =    3.0022930413056460E-003  alpha =   0.36436355862435688     
 delta_qm =   0.224399E-02 delta_en =   0.870131E+01 tol =   0.100000E-03
 Iteration #          7
  pAp =    2.0080990829676522E-002  rzold =    4.0923653360751223E-003  alpha =   0.20379299860180480     
 delta_qm =   0.174977E-02 delta_en =   0.529063E+01 tol =   0.100000E-03
 Iteration #          8
  pAp =    1.3975270140328226E-002  rzold =    2.7355049721249627E-003  alpha =   0.19573896924046980     
 delta_qm =   0.148983E-02 delta_en =   0.383546E+01 tol =   0.100000E-03
 Iteration #          9
  pAp =    2.3802213089369390E-003  rzold =    1.3164700408102603E-003  alpha =   0.55308724271451282     
 delta_qm =   0.104918E-02 delta_en =   0.190215E+01 tol =   0.100000E-03
 Iteration #         10
  pAp =    3.3590657829223663E-003  rzold =    1.4113910022522296E-003  alpha =   0.42017367133082106     
 delta_qm =   0.527260E-03 delta_en =   0.480390E+00 tol =   0.100000E-03
 Iteration #         11
  pAp =    2.3231936473863827E-003  rzold =    6.3261089461819748E-004  alpha =   0.27230226603360913     
 delta_qm =   0.316949E-03 delta_en =   0.173589E+00 tol =   0.100000E-03
 Iteration #         12
  pAp =    6.2416524663503985E-004  rzold =    1.1964831713957094E-004  alpha =   0.19169333407236525     
 delta_qm =   0.225946E-03 delta_en =   0.882168E-01 tol =   0.100000E-03
 Iteration #         13
  pAp =    1.3400789833182072E-004  rzold =    3.3790311183739008E-005  alpha =   0.25215163885392688     
 delta_qm =   0.190883E-03 delta_en =   0.629620E-01 tol =   0.100000E-03
 Iteration #         14
  pAp =    4.7716456378996059E-005  rzold =    1.4183451696694408E-005  alpha =   0.29724444715759973     
 delta_qm =   0.163041E-03 delta_en =   0.459345E-01 tol =   0.100000E-03
 Iteration #         15
  pAp =    4.1429399151985430E-005  rzold =    1.2993177790450050E-005  alpha =   0.31362216340101989     
 delta_qm =   0.105956E-03 delta_en =   0.193997E-01 tol =   0.100000E-03
 Iteration #         16
  pAp =    3.5639787029880790E-005  rzold =    9.6806475959320243E-006  alpha =   0.27162473187103120     
 delta_qm =   0.776181E-04 delta_en =   0.104105E-01 tol =   0.100000E-03
 Iteration #         17
  pAp =    2.1250798637799991E-005  rzold =    5.7685884129901993E-006  alpha =   0.27145278214293961     
 delta_qm =   0.692571E-04 delta_en =   0.828843E-02 tol =   0.100000E-03
 Iteration #         18
  pAp =    6.5810515190628172E-006  rzold =    2.4696839100721038E-006  alpha =   0.37527193077251614     
 delta_qm =   0.388294E-04 delta_en =   0.260535E-02 tol =   0.100000E-03
 Iteration #         19
  pAp =    2.4283477046302174E-006  rzold =    8.7801444395390297E-007  alpha =   0.36156866756756517     
 delta_qm =   0.210386E-04 delta_en =   0.764853E-03 tol =   0.100000E-03
 Iteration #         20
  pAp =    8.7528722250898107E-007  rzold =    3.0308456258133265E-007  alpha =   0.34626869304975233     
 delta_qm =   0.144169E-04 delta_en =   0.359160E-03 tol =   0.100000E-03
 Iteration #         21
  pAp =    1.6501698927738928E-007  rzold =    6.8373736750307525E-008  alpha =   0.41434362031277305     
 delta_qm =   0.966197E-05 delta_en =   0.161315E-03 tol =   0.100000E-03
 Iteration #         22
  pAp =    8.9267986420649298E-008  rzold =    3.5837466564457960E-008  alpha =   0.40145933611165341     
 delta_qm =   0.776657E-05 delta_en =   0.104232E-03 tol =   0.100000E-03
 Iteration #         23
  pAp =    7.4737795929100613E-007  rzold =    8.0122872521076598E-008  alpha =   0.10720529221531297     
 delta_qm =   0.590135E-05 delta_en =   0.601792E-04 tol =   0.100000E-03
 Charges are converged, EXIT

%%%% ELECTRONS %%%%%%%%%%%%%%%%%%%%%%%%%%%%%%%%%%%%%%%%%%%%%%%%%%%%%%%%%%%%%%%%%
 number of electrons        =         24
 total electronic charge    =     24.0000000
 number of spin components  =  1

%%%% BOUNDARY %%%%%%%%%%%%%%%%%%%%%%%%%%%%%%%%%%%%%%%%%%%%%%%%%%%%%%%%%%%%%%%%%%
 boundary mode              = electronic           
 boundary is built as a function of a smooth density
 function type              =  2 
 using the modified SCCS function with parameters 
 rhomax                     =      0.0155000 
 rhomin                     =      0.0024000 
 volume of the QM region    =    353.0127829 
 surface of the QM region   =    273.3878086 

%%%% DIELECTRIC %%%%%%%%%%%%%%%%%%%%%%%%%%%%%%%%%%%%%%%%%%%%%%%%%%%%%%%%%%%%%%%%%
 dielectric build on homogeneous background
 environment bulk permitt.  =     78.3000000 
 dielectric flags
 need gradient              =  F 
 need factor depend. sqrt   =  T 
 need gradient of logarithm =  T 

%%%% COMPUTE ELECTROSTATIC POTENTIAL %%%%%%%%%%%%%%%%%%%%%%%%%%%%%%%%%%%%%%%%%%%
 Warning: bad guess with residual norm =   0.187593E+06, reset to no guess
 Iteration #          1
  pAp =    75.461314798475840       rzold =    90.171017669933107       alpha =    1.1949303813581893     
 delta_qm =   0.326260E+00 delta_en =   0.183938E+06 tol =   0.100000E-03
 Iteration #          2
  pAp =    485.71957868912506       rzold =    114.71377216469604       alpha =   0.23617283963370200     
 delta_qm =   0.546142E+00 delta_en =   0.515412E+06 tol =   0.100000E-03
 Iteration #          3
  pAp =   -2939.0045053544254       rzold =    409.81252362322249       alpha =  -0.13943922946582951     
 delta_qm =   0.609131E-01 delta_en =   0.641157E+04 tol =   0.100000E-03
 Iteration #          4
  pAp =    244.45822473554131       rzold =    23.007737506475753       alpha =    9.4117256767964660E-002
 delta_qm =   0.218070E-01 delta_en =   0.821740E+03 tol =   0.100000E-03
 Iteration #          5
  pAp =    61.547851388002535       rzold =    4.6862367789915167       alpha =    7.6139729873738543E-002
 delta_qm =   0.774740E-02 delta_en =   0.103718E+03 tol =   0.100000E-03
 Iteration #          6
  pAp =    1.9055367337075997       rzold =   0.27934088873712204       alpha =   0.14659433418195456     
 delta_qm =   0.421337E-02 delta_en =   0.306764E+02 tol =   0.100000E-03
 Iteration #          7
  pAp =   0.13972300303679727       rzold =    2.2602367146510958E-002  alpha =   0.16176554078613975     
 delta_qm =   0.358009E-02 delta_en =   0.221479E+02 tol =   0.100000E-03
 Iteration #          8
  pAp =    6.0106430228544665E-002  rzold =    1.0633509369228630E-002  alpha =   0.17691134424048285     
 delta_qm =   0.310972E-02 delta_en =   0.167104E+02 tol =   0.100000E-03
 Iteration #          9
  pAp =    2.1833213991715405E-002  rzold =    6.9901714611629836E-003  alpha =   0.32016227495481875     
 delta_qm =   0.244575E-02 delta_en =   0.103363E+02 tol =   0.100000E-03
 Iteration #         10
  pAp =    6.9342326937750403E-003  rzold =    3.1109426422205218E-003  alpha =   0.44863545537104044     
 delta_qm =   0.211282E-02 delta_en =   0.771379E+01 tol =   0.100000E-03
 Iteration #         11
  pAp =    5.1153788231408440E-003  rzold =    2.5766714290102557E-003  alpha =   0.50371077452836210     
 delta_qm =   0.150052E-02 delta_en =   0.389071E+01 tol =   0.100000E-03
 Iteration #         12
  pAp =    7.5612721624998226E-003  rzold =    2.7411577019064927E-003  alpha =   0.36252599337731578     
 delta_qm =   0.924597E-03 delta_en =   0.147723E+01 tol =   0.100000E-03
 Iteration #         13
  pAp =    9.6848554520164044E-003  rzold =    2.0026402013753287E-003  alpha =   0.20678059794463691     
 delta_qm =   0.520265E-03 delta_en =   0.467728E+00 tol =   0.100000E-03
 Iteration #         14
  pAp =    1.7329625649752513E-003  rzold =    4.2064476573679582E-004  alpha =   0.24273159399886005     
 delta_qm =   0.362057E-03 delta_en =   0.226516E+00 tol =   0.100000E-03
 Iteration #         15
  pAp =    5.7960126306319840E-004  rzold =    1.1450888810116968E-004  alpha =   0.19756493886157023     
 delta_qm =   0.330135E-03 delta_en =   0.188333E+00 tol =   0.100000E-03
 Iteration #         16
  pAp =    1.5281269762123799E-004  rzold =    4.0242256318007304E-005  alpha =   0.26334366806187720     
 delta_qm =   0.261562E-03 delta_en =   0.118221E+00 tol =   0.100000E-03
 Iteration #         17
  pAp =    1.2183536994124283E-004  rzold =    3.0850860811881348E-005  alpha =   0.25321760689658263     
 delta_qm =   0.173164E-03 delta_en =   0.518157E-01 tol =   0.100000E-03
 Iteration #         18
  pAp =    5.2647367592324255E-005  rzold =    2.0449791667209588E-005  alpha =   0.38842951893744965     
 delta_qm =   0.132276E-03 delta_en =   0.302345E-01 tol =   0.100000E-03
 Iteration #         19
  pAp =    2.9754580147461938E-005  rzold =    1.2005289503900183E-005  alpha =   0.40347702586972090     
 delta_qm =   0.105475E-03 delta_en =   0.192240E-01 tol =   0.100000E-03
 Iteration #         20
  pAp =    1.3676362023598383E-005  rzold =    5.0534056208191362E-006  alpha =   0.36949925807020545     
 delta_qm =   0.749714E-04 delta_en =   0.971260E-02 tol =   0.100000E-03
 Iteration #         21
  pAp =    5.2142084444763778E-006  rzold =    2.1512459156088198E-006  alpha =   0.41257382371963319     
 delta_qm =   0.425739E-04 delta_en =   0.313207E-02 tol =   0.100000E-03
 Iteration #         22
  pAp =    1.7596927942999833E-006  rzold =    7.0160187578454712E-007  alpha =   0.39870702321290613     
 delta_qm =   0.244547E-04 delta_en =   0.103340E-02 tol =   0.100000E-03
 Iteration #         23
  pAp =    1.5549926181654681E-006  rzold =    2.8418328379571598E-007  alpha =   0.18275539091046397     
 delta_qm =   0.209070E-04 delta_en =   0.755310E-03 tol =   0.100000E-03
 Iteration #         24
  pAp =    2.6904190873009262E-006  rzold =    4.3238278475635574E-007  alpha =   0.16071205664472499     
 delta_qm =   0.176193E-04 delta_en =   0.536439E-03 tol =   0.100000E-03
 Iteration #         25
  pAp =    2.8522200532894437E-007  rzold =    1.2176689226107809E-007  alpha =   0.42691969759011145     
 delta_qm =   0.131933E-04 delta_en =   0.300783E-03 tol =   0.100000E-03
 Iteration #         26
  pAp =    5.1518453042011601E-007  rzold =    1.3516566572400155E-007  alpha =   0.26236359545535731     
 delta_qm =   0.962395E-05 delta_en =   0.160048E-03 tol =   0.100000E-03
 Iteration #         27
  pAp =    1.6073684149107119E-007  rzold =    5.4323433038812080E-008  alpha =   0.33796503984327519     
 delta_qm =   0.722875E-05 delta_en =   0.902964E-04 tol =   0.100000E-03
 Charges are converged, EXIT

%%%% ELECTRONS %%%%%%%%%%%%%%%%%%%%%%%%%%%%%%%%%%%%%%%%%%%%%%%%%%%%%%%%%%%%%%%%%
 number of electrons        =         24
 total electronic charge    =     24.0000000
 number of spin components  =  1

%%%% BOUNDARY %%%%%%%%%%%%%%%%%%%%%%%%%%%%%%%%%%%%%%%%%%%%%%%%%%%%%%%%%%%%%%%%%%
 boundary mode              = electronic           
 boundary is built as a function of a smooth density
 function type              =  2 
 using the modified SCCS function with parameters 
 rhomax                     =      0.0155000 
 rhomin                     =      0.0024000 
 volume of the QM region    =    356.4980991 
 surface of the QM region   =    276.7598982 

%%%% DIELECTRIC %%%%%%%%%%%%%%%%%%%%%%%%%%%%%%%%%%%%%%%%%%%%%%%%%%%%%%%%%%%%%%%%%
 dielectric build on homogeneous background
 environment bulk permitt.  =     78.3000000 
 dielectric flags
 need gradient              =  F 
 need factor depend. sqrt   =  T 
 need gradient of logarithm =  T 

%%%% COMPUTE ELECTROSTATIC POTENTIAL %%%%%%%%%%%%%%%%%%%%%%%%%%%%%%%%%%%%%%%%%%%
 Warning: bad guess with residual norm =   0.204409E+05, reset to no guess
 Iteration #          1
  pAp =    92.880651911980792       rzold =    90.134403847407924       alpha =   0.97043250657655400     
 delta_qm =   0.560357E-01 delta_en =   0.542593E+04 tol =   0.100000E-03
 Iteration #          2
  pAp =    477.82743090337090       rzold =    33.244137681894237       alpha =    6.9573522849124714E-002
 delta_qm =   0.125718E-01 delta_en =   0.273109E+03 tol =   0.100000E-03
 Iteration #          3
  pAp =    11.893690605846276       rzold =    1.0843371241285404       alpha =    9.1169104701238887E-002
 delta_qm =   0.488497E-02 delta_en =   0.412351E+02 tol =   0.100000E-03
 Iteration #          4
  pAp =    2.8070844208722976       rzold =   0.26273016434331820       alpha =    9.3595391143126067E-002
 delta_qm =   0.335368E-02 delta_en =   0.194351E+02 tol =   0.100000E-03
 Iteration #          5
  pAp =   0.10152353193392395       rzold =    1.7944492194240536E-002  alpha =   0.17675204804655154     
 delta_qm =   0.275394E-02 delta_en =   0.131055E+02 tol =   0.100000E-03
 Iteration #          6
  pAp =    9.5237181975134713E-003  rzold =    3.3798280852039694E-003  alpha =   0.35488535203471289     
 delta_qm =   0.215811E-02 delta_en =   0.804803E+01 tol =   0.100000E-03
 Iteration #          7
  pAp =    1.0889351435440254E-002  rzold =    3.3794718804845058E-003  alpha =   0.31034647935833420     
 delta_qm =   0.157176E-02 delta_en =   0.426892E+01 tol =   0.100000E-03
 Iteration #          8
  pAp =    1.6680261985910598E-002  rzold =    2.5919262388542229E-003  alpha =   0.15538882069379717     
 delta_qm =   0.144230E-02 delta_en =   0.359463E+01 tol =   0.100000E-03
 Iteration #          9
  pAp =    4.1270326697614521E-003  rzold =    1.6572557029942768E-003  alpha =   0.40156108167907195     
 delta_qm =   0.108847E-02 delta_en =   0.204728E+01 tol =   0.100000E-03
 Iteration #         10
  pAp =    3.1583959338766028E-003  rzold =    1.3442344294648278E-003  alpha =   0.42560668694089904     
 delta_qm =   0.676096E-03 delta_en =   0.789880E+00 tol =   0.100000E-03
 Iteration #         11
  pAp =    4.1889739910302244E-003  rzold =    1.0469193901704828E-003  alpha =   0.24992262840787094     
 delta_qm =   0.368092E-03 delta_en =   0.234130E+00 tol =   0.100000E-03
 Iteration #         12
  pAp =    1.1896793210750996E-003  rzold =    2.5119689339742139E-004  alpha =   0.21114672580037588     
 delta_qm =   0.302947E-03 delta_en =   0.158591E+00 tol =   0.100000E-03
 Iteration #         13
  pAp =    2.2674215651924824E-004  rzold =    5.8545241617827968E-005  alpha =   0.25820183823142762     
 delta_qm =   0.270267E-03 delta_en =   0.126221E+00 tol =   0.100000E-03
 Iteration #         14
  pAp =    1.0572757632300645E-004  rzold =    3.0745905961262062E-005  alpha =   0.29080309064619803     
 delta_qm =   0.204864E-03 delta_en =   0.725227E-01 tol =   0.100000E-03
 Iteration #         15
  pAp =    4.2172562274052705E-005  rzold =    2.1397204826782856E-005  alpha =   0.50737265352140593     
 delta_qm =   0.134954E-03 delta_en =   0.314715E-01 tol =   0.100000E-03
 Iteration #         16
  pAp =    1.2722221522175534E-004  rzold =    2.5075217685630802E-005  alpha =   0.19709779178049458     
 delta_qm =   0.110378E-03 delta_en =   0.210529E-01 tol =   0.100000E-03
 Iteration #         17
  pAp =    5.3093369749906326E-005  rzold =    1.3407595312728154E-005  alpha =   0.25252861846750291     
 delta_qm =   0.807757E-04 delta_en =   0.112747E-01 tol =   0.100000E-03
 Iteration #         18
  pAp =    1.0524791123988048E-005  rzold =    4.0244545691136295E-006  alpha =   0.38237856900942330     
 delta_qm =   0.519834E-04 delta_en =   0.466953E-02 tol =   0.100000E-03
 Iteration #         19
  pAp =    3.9783871747197673E-006  rzold =    1.5089788487695716E-006  alpha =   0.37929411656015161     
 delta_qm =   0.306005E-04 delta_en =   0.161808E-02 tol =   0.100000E-03
 Iteration #         20
  pAp =    1.7455441152496946E-006  rzold =    6.5026211096459088E-007  alpha =   0.37252688447325372     
 delta_qm =   0.239738E-04 delta_en =   0.993156E-03 tol =   0.100000E-03
 Iteration #         21
  pAp =    4.8363199764861785E-007  rzold =    2.2042431077710297E-007  alpha =   0.45576866677306149     
 delta_qm =   0.172792E-04 delta_en =   0.515930E-03 tol =   0.100000E-03
 Iteration #         22
  pAp =    2.6395790571192967E-007  rzold =    1.3853386746338537E-007  alpha =   0.52483318160045656     
 delta_qm =   0.108048E-04 delta_en =   0.201733E-03 tol =   0.100000E-03
 Iteration #         23
  pAp =    2.4359589319672683E-006  rzold =    2.2412737016974506E-007  alpha =    9.2007860735460315E-002
 delta_qm =   0.984559E-05 delta_en =   0.167505E-03 tol =   0.100000E-03
 Iteration #         24
  pAp =    3.1414756680268527E-007  rzold =    9.4537418778286882E-008  alpha =   0.30093315616117894     
 delta_qm =   0.479977E-05 delta_en =   0.398093E-04 tol =   0.100000E-03
 Charges are converged, EXIT

%%%% ELECTRONS %%%%%%%%%%%%%%%%%%%%%%%%%%%%%%%%%%%%%%%%%%%%%%%%%%%%%%%%%%%%%%%%%
 number of electrons        =         24
 total electronic charge    =     24.0000000
 number of spin components  =  1

%%%% BOUNDARY %%%%%%%%%%%%%%%%%%%%%%%%%%%%%%%%%%%%%%%%%%%%%%%%%%%%%%%%%%%%%%%%%%
 boundary mode              = electronic           
 boundary is built as a function of a smooth density
 function type              =  2 
 using the modified SCCS function with parameters 
 rhomax                     =      0.0155000 
 rhomin                     =      0.0024000 
 volume of the QM region    =    362.9920450 
 surface of the QM region   =    279.0902393 

%%%% DIELECTRIC %%%%%%%%%%%%%%%%%%%%%%%%%%%%%%%%%%%%%%%%%%%%%%%%%%%%%%%%%%%%%%%%%
 dielectric build on homogeneous background
 environment bulk permitt.  =     78.3000000 
 dielectric flags
 need gradient              =  F 
 need factor depend. sqrt   =  T 
 need gradient of logarithm =  T 

%%%% COMPUTE ELECTROSTATIC POTENTIAL %%%%%%%%%%%%%%%%%%%%%%%%%%%%%%%%%%%%%%%%%%%
 Warning: bad guess with residual norm =   0.359270E+04, reset to no guess
 Iteration #          1
  pAp =    93.821611971070766       rzold =    90.895358696327222       alpha =   0.96881045621294770     
 delta_qm =   0.574089E-01 delta_en =   0.569510E+04 tol =   0.100000E-03
 Iteration #          2
  pAp =    485.92739653257985       rzold =    34.542697562302024       alpha =    7.1086128933638026E-002
 delta_qm =   0.128662E-01 delta_en =   0.286053E+03 tol =   0.100000E-03
 Iteration #          3
  pAp =    12.160109118653954       rzold =    1.1388808761475608       alpha =    9.3657126349342132E-002
 delta_qm =   0.468712E-02 delta_en =   0.379626E+02 tol =   0.100000E-03
 Iteration #          4
  pAp =    2.8185020797460809       rzold =   0.26290918481897635       alpha =    9.3279755480138532E-002
 delta_qm =   0.345255E-02 delta_en =   0.205980E+02 tol =   0.100000E-03
 Iteration #          5
  pAp =   0.11478387087702836       rzold =    2.0307086916087940E-002  alpha =   0.17691585726224177     
 delta_qm =   0.275657E-02 delta_en =   0.131305E+02 tol =   0.100000E-03
 Iteration #          6
  pAp =    9.8517492530402866E-003  rzold =    3.6095570553979260E-003  alpha =   0.36638742650539985     
 delta_qm =   0.214856E-02 delta_en =   0.797696E+01 tol =   0.100000E-03
 Iteration #          7
  pAp =    8.3883171942235376E-003  rzold =    3.1757405077686043E-003  alpha =   0.37859089424461922     
 delta_qm =   0.155343E-02 delta_en =   0.416992E+01 tol =   0.100000E-03
 Iteration #          8
  pAp =    3.6942701742695688E-003  rzold =    1.5572304924521584E-003  alpha =   0.42152588170139832     
 delta_qm =   0.127583E-02 delta_en =   0.281273E+01 tol =   0.100000E-03
 Iteration #          9
  pAp =    9.2839657886937821E-003  rzold =    1.9628739835744744E-003  alpha =   0.21142624049357286     
 delta_qm =   0.105491E-02 delta_en =   0.192298E+01 tol =   0.100000E-03
 Iteration #         10
  pAp =    7.1300905193840206E-003  rzold =    1.8594644211154209E-003  alpha =   0.26079113807324605     
 delta_qm =   0.654637E-03 delta_en =   0.740535E+00 tol =   0.100000E-03
 Iteration #         11
  pAp =    5.3133398830447513E-003  rzold =    1.1651586060052704E-003  alpha =   0.21928930421397944     
 delta_qm =   0.386024E-03 delta_en =   0.257497E+00 tol =   0.100000E-03
 Iteration #         12
  pAp =    1.6178534686246532E-003  rzold =    3.2438364359653883E-004  alpha =   0.20050248671302678     
 delta_qm =   0.284362E-03 delta_en =   0.139729E+00 tol =   0.100000E-03
 Iteration #         13
  pAp =    2.1589222044803881E-004  rzold =    5.9510469702958383E-005  alpha =   0.27564897697312551     
 delta_qm =   0.258889E-03 delta_en =   0.115816E+00 tol =   0.100000E-03
 Iteration #         14
  pAp =    8.5193122935973978E-005  rzold =    2.7125992514706237E-005  alpha =   0.31840589451207818     
 delta_qm =   0.190730E-03 delta_en =   0.628609E-01 tol =   0.100000E-03
 Iteration #         15
  pAp =    3.4522304360368315E-005  rzold =    1.8481371567485887E-005  alpha =   0.53534582670276620     
 delta_qm =   0.127777E-03 delta_en =   0.282132E-01 tol =   0.100000E-03
 Iteration #         16
  pAp =    8.6420243586228556E-005  rzold =    1.9998699617285956E-005  alpha =   0.23141221069727275     
 delta_qm =   0.103262E-03 delta_en =   0.184259E-01 tol =   0.100000E-03
 Iteration #         17
  pAp =    6.1341107777706079E-005  rzold =    1.3262958250616971E-005  alpha =   0.21621647751587042     
 delta_qm =   0.779200E-04 delta_en =   0.104916E-01 tol =   0.100000E-03
 Iteration #         18
  pAp =    1.1124826363556350E-005  rzold =    4.1095930480598274E-006  alpha =   0.36940738792313926     
 delta_qm =   0.523442E-04 delta_en =   0.473458E-02 tol =   0.100000E-03
 Iteration #         19
  pAp =    4.2264071188801228E-006  rzold =    1.5726794458434281E-006  alpha =   0.37210789249762177     
 delta_qm =   0.308401E-04 delta_en =   0.164352E-02 tol =   0.100000E-03
 Iteration #         20
  pAp =    1.6112598432342407E-006  rzold =    6.4453215691611558E-007  alpha =   0.40001751401087654     
 delta_qm =   0.240369E-04 delta_en =   0.998390E-03 tol =   0.100000E-03
 Iteration #         21
  pAp =    5.0810686252277758E-007  rzold =    2.2882313486385327E-007  alpha =   0.45034450770401768     
 delta_qm =   0.174373E-04 delta_en =   0.525416E-03 tol =   0.100000E-03
 Iteration #         22
  pAp =    3.3101281560993820E-007  rzold =    1.4167819180016705E-007  alpha =   0.42801421914467219     
 delta_qm =   0.140119E-04 delta_en =   0.339266E-03 tol =   0.100000E-03
 Iteration #         23
  pAp =    3.5727113177094201E-006  rzold =    3.5044163561092692E-007  alpha =    9.8088427652645138E-002
 delta_qm =   0.892261E-05 delta_en =   0.137571E-03 tol =   0.100000E-03
 Iteration #         24
  pAp =    1.9920869907774927E-007  rzold =    7.3801584440239182E-008  alpha =   0.37047370311592226     
 delta_qm =   0.460342E-05 delta_en =   0.366189E-04 tol =   0.100000E-03
 Charges are converged, EXIT

%%%% ELECTRONS %%%%%%%%%%%%%%%%%%%%%%%%%%%%%%%%%%%%%%%%%%%%%%%%%%%%%%%%%%%%%%%%%
 number of electrons        =         24
 total electronic charge    =     24.0000000
 number of spin components  =  1

%%%% BOUNDARY %%%%%%%%%%%%%%%%%%%%%%%%%%%%%%%%%%%%%%%%%%%%%%%%%%%%%%%%%%%%%%%%%%
 boundary mode              = electronic           
 boundary is built as a function of a smooth density
 function type              =  2 
 using the modified SCCS function with parameters 
 rhomax                     =      0.0155000 
 rhomin                     =      0.0024000 
 volume of the QM region    =    365.2216476 
 surface of the QM region   =    279.9593470 

%%%% DIELECTRIC %%%%%%%%%%%%%%%%%%%%%%%%%%%%%%%%%%%%%%%%%%%%%%%%%%%%%%%%%%%%%%%%%
 dielectric build on homogeneous background
 environment bulk permitt.  =     78.3000000 
 dielectric flags
 need gradient              =  F 
 need factor depend. sqrt   =  T 
 need gradient of logarithm =  T 

%%%% COMPUTE ELECTROSTATIC POTENTIAL %%%%%%%%%%%%%%%%%%%%%%%%%%%%%%%%%%%%%%%%%%%
 Warning: bad guess with residual norm =   0.368157E+04, reset to no guess
 Iteration #          1
  pAp =    94.014194737364136       rzold =    90.823748073855214       alpha =   0.96606420261938442     
 delta_qm =   0.598177E-01 delta_en =   0.618305E+04 tol =   0.100000E-03
 Iteration #          2
  pAp =    512.88878714268878       rzold =    36.959019167740934       alpha =    7.2060493608449100E-002
 delta_qm =   0.134956E-01 delta_en =   0.314724E+03 tol =   0.100000E-03
 Iteration #          3
  pAp =    13.076059668119143       rzold =    1.2456036546852269       alpha =    9.5258333649405433E-002
 delta_qm =   0.475622E-02 delta_en =   0.390902E+02 tol =   0.100000E-03
 Iteration #          4
  pAp =    3.0777558426656060       rzold =   0.28300467800745388       alpha =    9.1951633746992431E-002
 delta_qm =   0.354492E-02 delta_en =   0.217148E+02 tol =   0.100000E-03
 Iteration #          5
  pAp =   0.13287097467783329       rzold =    2.3452006676355792E-002  alpha =   0.17650210464112945     
 delta_qm =   0.276173E-02 delta_en =   0.131798E+02 tol =   0.100000E-03
 Iteration #          6
  pAp =    1.0947944589263521E-002  rzold =    3.8868455397455602E-003  alpha =   0.35502970517016769     
 delta_qm =   0.216522E-02 delta_en =   0.810116E+01 tol =   0.100000E-03
 Iteration #          7
  pAp =    8.5957422121551632E-003  rzold =    3.1864219643499342E-003  alpha =   0.37069771122778006     
 delta_qm =   0.160683E-02 delta_en =   0.446155E+01 tol =   0.100000E-03
 Iteration #          8
  pAp =    9.5824403376850997E-003  rzold =    2.0842987731826829E-003  alpha =   0.21751231416340883     
 delta_qm =   0.142310E-02 delta_en =   0.349956E+01 tol =   0.100000E-03
 Iteration #          9
  pAp =    9.2284237114956032E-003  rzold =    2.3337025876963642E-003  alpha =   0.25288203713374502     
 delta_qm =   0.113765E-02 delta_en =   0.223646E+01 tol =   0.100000E-03
 Iteration #         10
  pAp =    3.6882872338070095E-003  rzold =    1.4089925773915482E-003  alpha =   0.38201812604958141     
 delta_qm =   0.714980E-03 delta_en =   0.883348E+00 tol =   0.100000E-03
 Iteration #         11
  pAp =    5.2435622064077340E-003  rzold =    1.2435617410995544E-003  alpha =   0.23715971931827146     
 delta_qm =   0.403843E-03 delta_en =   0.281819E+00 tol =   0.100000E-03
 Iteration #         12
  pAp =    1.7532074605939912E-003  rzold =    3.7393225290701396E-004  alpha =   0.21328465758429110     
 delta_qm =   0.280876E-03 delta_en =   0.136324E+00 tol =   0.100000E-03
 Iteration #         13
  pAp =    2.1840094854442272E-004  rzold =    6.2382080956883152E-005  alpha =   0.28563099827469224     
 delta_qm =   0.253589E-03 delta_en =   0.111123E+00 tol =   0.100000E-03
 Iteration #         14
  pAp =    8.2560394254405472E-005  rzold =    2.5925340495768140E-005  alpha =   0.31401667506432418     
 delta_qm =   0.189179E-03 delta_en =   0.618430E-01 tol =   0.100000E-03
 Iteration #         15
  pAp =    3.2090341449217153E-005  rzold =    1.7362332329269681E-005  alpha =   0.54104542193000682     
 delta_qm =   0.127077E-03 delta_en =   0.279047E-01 tol =   0.100000E-03
 Iteration #         16
  pAp =    6.3302603620839833E-005  rzold =    1.7531738696794962E-005  alpha =   0.27695130522282885     
 delta_qm =   0.974854E-04 delta_en =   0.164219E-01 tol =   0.100000E-03
 Iteration #         17
  pAp =    6.7716932769401378E-005  rzold =    1.3038011065447550E-005  alpha =   0.19253694064741980     
 delta_qm =   0.759928E-04 delta_en =   0.997905E-02 tol =   0.100000E-03
 Iteration #         18
  pAp =    1.3097986966797560E-005  rzold =    4.4604108517602394E-006  alpha =   0.34054170790267657     
 delta_qm =   0.538850E-04 delta_en =   0.501741E-02 tol =   0.100000E-03
 Iteration #         19
  pAp =    4.4446717574103196E-006  rzold =    1.6418920014397054E-006  alpha =   0.36940680685863536     
 delta_qm =   0.322838E-04 delta_en =   0.180100E-02 tol =   0.100000E-03
 Iteration #         20
  pAp =    1.5936077735914304E-006  rzold =    6.6222582926072879E-007  alpha =   0.41555132965265668     
 delta_qm =   0.245974E-04 delta_en =   0.104549E-02 tol =   0.100000E-03
 Iteration #         21
  pAp =    5.5477674679519305E-007  rzold =    2.4532617483101617E-007  alpha =   0.44220702516499533     
 delta_qm =   0.184927E-04 delta_en =   0.590941E-03 tol =   0.100000E-03
 Iteration #         22
  pAp =    3.2880097639506339E-007  rzold =    1.4387624149504013E-007  alpha =   0.43757851047914431     
 delta_qm =   0.115643E-04 delta_en =   0.231089E-03 tol =   0.100000E-03
 Iteration #         23
  pAp =    3.5777870654655169E-006  rzold =    3.4963035143794313E-007  alpha =    9.7722515353901210E-002
 delta_qm =   0.993694E-05 delta_en =   0.170627E-03 tol =   0.100000E-03
 Iteration #         24
  pAp =    2.0745905378669891E-007  rzold =    7.7465190165619849E-008  alpha =   0.37339990109694832     
 delta_qm =   0.482296E-05 delta_en =   0.401950E-04 tol =   0.100000E-03
 Charges are converged, EXIT

%%%% ELECTRONS %%%%%%%%%%%%%%%%%%%%%%%%%%%%%%%%%%%%%%%%%%%%%%%%%%%%%%%%%%%%%%%%%
 number of electrons        =         24
 total electronic charge    =     24.0000000
 number of spin components  =  1

%%%% BOUNDARY %%%%%%%%%%%%%%%%%%%%%%%%%%%%%%%%%%%%%%%%%%%%%%%%%%%%%%%%%%%%%%%%%%
 boundary mode              = electronic           
 boundary is built as a function of a smooth density
 function type              =  2 
 using the modified SCCS function with parameters 
 rhomax                     =      0.0155000 
 rhomin                     =      0.0024000 
 volume of the QM region    =    365.7939954 
 surface of the QM region   =    279.9620299 

%%%% DIELECTRIC %%%%%%%%%%%%%%%%%%%%%%%%%%%%%%%%%%%%%%%%%%%%%%%%%%%%%%%%%%%%%%%%%
 dielectric build on homogeneous background
 environment bulk permitt.  =     78.3000000 
 dielectric flags
 need gradient              =  F 
 need factor depend. sqrt   =  T 
 need gradient of logarithm =  T 

%%%% COMPUTE ELECTROSTATIC POTENTIAL %%%%%%%%%%%%%%%%%%%%%%%%%%%%%%%%%%%%%%%%%%%
 Warning: bad guess with residual norm =   0.438755E+04, reset to no guess
 Iteration #          1
  pAp =    94.165588737397471       rzold =    90.899289681671107       alpha =   0.96531324128567608     
 delta_qm =   0.605268E-01 delta_en =   0.633051E+04 tol =   0.100000E-03
 Iteration #          2
  pAp =    518.97126285829393       rzold =    37.594261057468891       alpha =    7.2439966811291584E-002
 delta_qm =   0.136877E-01 delta_en =   0.323747E+03 tol =   0.100000E-03
 Iteration #          3
  pAp =    13.164564729489308       rzold =    1.2669948708855321       alpha =    9.6242822829333496E-002
 delta_qm =   0.473251E-02 delta_en =   0.387015E+02 tol =   0.100000E-03
 Iteration #          4
  pAp =    3.1472285250780732       rzold =   0.28583185506745012       alpha =    9.0820178067736443E-002
 delta_qm =   0.357529E-02 delta_en =   0.220885E+02 tol =   0.100000E-03
 Iteration #          5
  pAp =   0.13780674884319291       rzold =    2.4251625900692034E-002  alpha =   0.17598286081248019     
 delta_qm =   0.276759E-02 delta_en =   0.132357E+02 tol =   0.100000E-03
 Iteration #          6
  pAp =    1.1163903488123954E-002  rzold =    3.9444886331876086E-003  alpha =   0.35332521795657901     
 delta_qm =   0.217548E-02 delta_en =   0.817815E+01 tol =   0.100000E-03
 Iteration #          7
  pAp =    9.0744051578325949E-003  rzold =    3.2281878101673490E-003  alpha =   0.35574649291264354     
 delta_qm =   0.164186E-02 delta_en =   0.465816E+01 tol =   0.100000E-03
 Iteration #          8
  pAp =    1.4453801251049073E-002  rzold =    2.5283668717055664E-003  alpha =   0.17492746909897178     
 delta_qm =   0.146752E-02 delta_en =   0.372145E+01 tol =   0.100000E-03
 Iteration #          9
  pAp =    6.3981863042327346E-003  rzold =    2.0456907594650765E-003  alpha =   0.31972978937980362     
 delta_qm =   0.115298E-02 delta_en =   0.229715E+01 tol =   0.100000E-03
 Iteration #         10
  pAp =    3.5167618008572492E-003  rzold =    1.3857245811356811E-003  alpha =   0.39403424502560724     
 delta_qm =   0.722085E-03 delta_en =   0.900990E+00 tol =   0.100000E-03
 Iteration #         11
  pAp =    5.3092722932059711E-003  rzold =    1.2571457486438868E-003  alpha =   0.23678306163588517     
 delta_qm =   0.406250E-03 delta_en =   0.285187E+00 tol =   0.100000E-03
 Iteration #         12
  pAp =    1.7853881990559587E-003  rzold =    3.8448052480766405E-004  alpha =   0.21534841835011670     
 delta_qm =   0.280406E-03 delta_en =   0.135868E+00 tol =   0.100000E-03
 Iteration #         13
  pAp =    2.0450989597152209E-004  rzold =    6.0753797073761106E-005  alpha =   0.29707020672594270     
 delta_qm =   0.250731E-03 delta_en =   0.108632E+00 tol =   0.100000E-03
 Iteration #         14
  pAp =    7.7455958136005319E-005  rzold =    2.4569784635553506E-005  alpha =   0.31720974379286992     
 delta_qm =   0.186403E-03 delta_en =   0.600411E-01 tol =   0.100000E-03
 Iteration #         15
  pAp =    3.3530622727167269E-005  rzold =    1.7511945125624978E-005  alpha =   0.52226722026955985     
 delta_qm =   0.126818E-03 delta_en =   0.277912E-01 tol =   0.100000E-03
 Iteration #         16
  pAp =    5.7528344665665632E-005  rzold =    1.6819658226383581E-005  alpha =   0.29237167041974665     
 delta_qm =   0.949182E-04 delta_en =   0.155683E-01 tol =   0.100000E-03
 Iteration #         17
  pAp =    6.4883754993805872E-005  rzold =    1.2231657058355043E-005  alpha =   0.18851647934868657     
 delta_qm =   0.745032E-04 delta_en =   0.959166E-02 tol =   0.100000E-03
 Iteration #         18
  pAp =    1.4161634867038491E-005  rzold =    4.5823914262188322E-006  alpha =   0.32357785448094317     
 delta_qm =   0.540167E-04 delta_en =   0.504196E-02 tol =   0.100000E-03
 Iteration #         19
  pAp =    4.4777969876265976E-006  rzold =    1.6485000724049248E-006  alpha =   0.36814980155647753     
 delta_qm =   0.324070E-04 delta_en =   0.181477E-02 tol =   0.100000E-03
 Iteration #         20
  pAp =    1.5808857689261706E-006  rzold =    6.5968752512891129E-007  alpha =   0.41728981188628789     
 delta_qm =   0.247558E-04 delta_en =   0.105900E-02 tol =   0.100000E-03
 Iteration #         21
  pAp =    5.4234654488248725E-007  rzold =    2.4314951578566778E-007  alpha =   0.44832868961735917     
 delta_qm =   0.182745E-04 delta_en =   0.577076E-03 tol =   0.100000E-03
 Iteration #         22
  pAp =    2.1708595778613490E-007  rzold =    1.3618605404215697E-007  alpha =   0.62733700249890167     
 delta_qm =   0.107786E-04 delta_en =   0.200758E-03 tol =   0.100000E-03
 Iteration #         23
  pAp =    3.6567570163002559E-007  rzold =    9.4416076397575627E-008  alpha =   0.25819619946501565     
 delta_qm =   0.826125E-05 delta_en =   0.117933E-03 tol =   0.100000E-03
 Iteration #         24
  pAp =    1.3750046722045942E-006  rzold =    1.4429217743045668E-007  alpha =   0.10493940882332266     
 delta_qm =   0.472528E-05 delta_en =   0.385832E-04 tol =   0.100000E-03
 Charges are converged, EXIT

%%%% ELECTRONS %%%%%%%%%%%%%%%%%%%%%%%%%%%%%%%%%%%%%%%%%%%%%%%%%%%%%%%%%%%%%%%%%
 number of electrons        =         24
 total electronic charge    =     24.0000000
 number of spin components  =  1

%%%% BOUNDARY %%%%%%%%%%%%%%%%%%%%%%%%%%%%%%%%%%%%%%%%%%%%%%%%%%%%%%%%%%%%%%%%%%
 boundary mode              = electronic           
 boundary is built as a function of a smooth density
 function type              =  2 
 using the modified SCCS function with parameters 
 rhomax                     =      0.0155000 
 rhomin                     =      0.0024000 
 volume of the QM region    =    365.7394612 
 surface of the QM region   =    279.6772397 

%%%% DIELECTRIC %%%%%%%%%%%%%%%%%%%%%%%%%%%%%%%%%%%%%%%%%%%%%%%%%%%%%%%%%%%%%%%%%
 dielectric build on homogeneous background
 environment bulk permitt.  =     78.3000000 
 dielectric flags
 need gradient              =  F 
 need factor depend. sqrt   =  T 
 need gradient of logarithm =  T 

%%%% COMPUTE ELECTROSTATIC POTENTIAL %%%%%%%%%%%%%%%%%%%%%%%%%%%%%%%%%%%%%%%%%%%
 Warning: bad guess with residual norm =   0.450029E+04, reset to no guess
 Iteration #          1
  pAp =    94.255973180872743       rzold =    90.953738789483069       alpha =   0.96496525068970596     
 delta_qm =   0.609622E-01 delta_en =   0.642192E+04 tol =   0.100000E-03
 Iteration #          2
  pAp =    521.06798068835315       rzold =    37.866303407059526       alpha =    7.2670562787290283E-002
 delta_qm =   0.138061E-01 delta_en =   0.329373E+03 tol =   0.100000E-03
 Iteration #          3
  pAp =    13.128251652776296       rzold =    1.2748098555678953       alpha =    9.7104312842624788E-002
 delta_qm =   0.469456E-02 delta_en =   0.380832E+02 tol =   0.100000E-03
 Iteration #          4
  pAp =    3.1906970658801601       rzold =   0.28572758513096336       alpha =    8.9550207754412692E-002
 delta_qm =   0.359319E-02 delta_en =   0.223103E+02 tol =   0.100000E-03
 Iteration #          5
  pAp =   0.14047157220483408       rzold =    2.4585504003452902E-002  alpha =   0.17502120619539016     
 delta_qm =   0.277279E-02 delta_en =   0.132855E+02 tol =   0.100000E-03
 Iteration #          6
  pAp =    1.1151873234890556E-002  rzold =    3.9476204104160108E-003  alpha =   0.35398720262217476     
 delta_qm =   0.218301E-02 delta_en =   0.823482E+01 tol =   0.100000E-03
 Iteration #          7
  pAp =    9.6922840569408746E-003  rzold =    3.2868963353862883E-003  alpha =   0.33912505205957760     
 delta_qm =   0.167111E-02 delta_en =   0.482563E+01 tol =   0.100000E-03
 Iteration #          8
  pAp =    1.8186918047786941E-002  rzold =    2.9059106531136958E-003  alpha =   0.15978026873372858     
 delta_qm =   0.149168E-02 delta_en =   0.384501E+01 tol =   0.100000E-03
 Iteration #          9
  pAp =    5.0704501123985442E-003  rzold =    1.8615918083614031E-003  alpha =   0.36714527647345080     
 delta_qm =   0.116237E-02 delta_en =   0.233472E+01 tol =   0.100000E-03
 Iteration #         10
  pAp =    3.4512813460782586E-003  rzold =    1.3862322961068093E-003  alpha =   0.40165728525204275     
 delta_qm =   0.718857E-03 delta_en =   0.892954E+00 tol =   0.100000E-03
 Iteration #         11
  pAp =    5.3661886821302629E-003  rzold =    1.2560436253565253E-003  alpha =   0.23406624324247627     
 delta_qm =   0.406677E-03 delta_en =   0.285788E+00 tol =   0.100000E-03
 Iteration #         12
  pAp =    1.8038601256925740E-003  rzold =    3.8768584933758618E-004  alpha =   0.21492012812730593     
 delta_qm =   0.282262E-03 delta_en =   0.137673E+00 tol =   0.100000E-03
 Iteration #         13
  pAp =    1.8878776537367600E-004  rzold =    5.8349076020538510E-005  alpha =   0.30907233795074379     
 delta_qm =   0.249158E-03 delta_en =   0.107273E+00 tol =   0.100000E-03
 Iteration #         14
  pAp =    7.0023962281720416E-005  rzold =    2.3109647313350228E-005  alpha =   0.33002484521477793     
 delta_qm =   0.183400E-03 delta_en =   0.581224E-01 tol =   0.100000E-03
 Iteration #         15
  pAp =    3.6481989135366332E-005  rzold =    1.8087177886851071E-005  alpha =   0.49578376386601730     
 delta_qm =   0.126821E-03 delta_en =   0.277925E-01 tol =   0.100000E-03
 Iteration #         16
  pAp =    5.3980995493473911E-005  rzold =    1.6373086117062341E-005  alpha =   0.30331204468138762     
 delta_qm =   0.925844E-04 delta_en =   0.148122E-01 tol =   0.100000E-03
 Iteration #         17
  pAp =    5.9198462467599899E-005  rzold =    1.1137780169844257E-005  alpha =   0.18814306496456917     
 delta_qm =   0.732648E-04 delta_en =   0.927543E-02 tol =   0.100000E-03
 Iteration #         18
  pAp =    1.5499407983025976E-005  rzold =    4.7013512864875396E-006  alpha =   0.30332457159887516     
 delta_qm =   0.541219E-04 delta_en =   0.506162E-02 tol =   0.100000E-03
 Iteration #         19
  pAp =    4.5247727048251900E-006  rzold =    1.6577305142025980E-006  alpha =   0.36636768791387120     
 delta_qm =   0.324095E-04 delta_en =   0.181505E-02 tol =   0.100000E-03
 Iteration #         20
  pAp =    1.5845171583679300E-006  rzold =    6.6067241063429782E-007  alpha =   0.41695503715137905     
 delta_qm =   0.249983E-04 delta_en =   0.107985E-02 tol =   0.100000E-03
 Iteration #         21
[...]
 delta_qm =   0.150875E-02 delta_en =   0.393348E+01 tol =   0.100000E-03
 Iteration #         15
  pAp =    1.8055063593675508E-002  rzold =    4.0730983258169167E-003  alpha =   0.22559313096209080     
 delta_qm =   0.117003E-02 delta_en =   0.236560E+01 tol =   0.100000E-03
 Iteration #         16
  pAp =    2.7136554274826124E-003  rzold =    7.2743568458430625E-004  alpha =   0.26806486822799364     
 delta_qm =   0.903117E-03 delta_en =   0.140939E+01 tol =   0.100000E-03
 Iteration #         17
  pAp =    1.2511751584881098E-003  rzold =    3.0564301509470693E-004  alpha =   0.24428475343455400     
 delta_qm =   0.676089E-03 delta_en =   0.789862E+00 tol =   0.100000E-03
 Iteration #         18
  pAp =    9.4481858338104924E-004  rzold =    2.3442048743600689E-004  alpha =   0.24811163916476878     
 delta_qm =   0.452355E-03 delta_en =   0.353592E+00 tol =   0.100000E-03
 Iteration #         19
  pAp =    2.6012718211006756E-004  rzold =    1.1278573917468257E-004  alpha =   0.43357921405906580     
 delta_qm =   0.306627E-03 delta_en =   0.162467E+00 tol =   0.100000E-03
 Iteration #         20
  pAp =    1.5795369536027710E-004  rzold =    6.8469600121922681E-005  alpha =   0.43347893802516074     
 delta_qm =   0.261373E-03 delta_en =   0.118050E+00 tol =   0.100000E-03
 Iteration #         21
  pAp =    6.3751070501572022E-005  rzold =    3.0916288227626696E-005  alpha =   0.48495324053992689     
 delta_qm =   0.167239E-03 delta_en =   0.483300E-01 tol =   0.100000E-03
 Iteration #         22
  pAp =    1.3582411154404786E-004  rzold =    1.9125312652256065E-005  alpha =   0.14080940736397685     
 delta_qm =   0.138100E-03 delta_en =   0.329557E-01 tol =   0.100000E-03
 Iteration #         23
  pAp =    1.0422573885589365E-004  rzold =    1.9901422764659863E-005  alpha =   0.19094537475216466     
 delta_qm =   0.837845E-04 delta_en =   0.121303E-01 tol =   0.100000E-03
 Iteration #         24
  pAp =    6.2603300073551077E-006  rzold =    2.8237848974930106E-006  alpha =   0.45106007098274614     
 delta_qm =   0.621882E-04 delta_en =   0.668282E-02 tol =   0.100000E-03
 Iteration #         25
  pAp =    2.2566760499612144E-006  rzold =    1.2282237243739964E-006  alpha =   0.54426231199427400     
 delta_qm =   0.447297E-04 delta_en =   0.345728E-02 tol =   0.100000E-03
 Iteration #         26
  pAp =    2.9467111963468732E-006  rzold =    1.0800144721558636E-006  alpha =   0.36651520973442875     
 delta_qm =   0.336043E-04 delta_en =   0.195135E-02 tol =   0.100000E-03
 Iteration #         27
  pAp =    3.4097350668951051E-006  rzold =    9.7926486464815481E-007  alpha =   0.28719676028667840     
 delta_qm =   0.247724E-04 delta_en =   0.106042E-02 tol =   0.100000E-03
 Iteration #         28
  pAp =    9.4440241411095494E-007  rzold =    2.8833335760693584E-007  alpha =   0.30530773036869902     
 delta_qm =   0.182109E-04 delta_en =   0.573067E-03 tol =   0.100000E-03
 Iteration #         29
  pAp =    7.3585998222910284E-007  rzold =    1.2807325356442626E-007  alpha =   0.17404568349601038     
 delta_qm =   0.138109E-04 delta_en =   0.329601E-03 tol =   0.100000E-03
 Iteration #         30
  pAp =    5.3901967670356299E-007  rzold =    9.7847787026794946E-008  alpha =   0.18152915608794540     
 delta_qm =   0.967613E-05 delta_en =   0.161788E-03 tol =   0.100000E-03
 Iteration #         31
  pAp =    6.8711684766278578E-008  rzold =    2.7148634781516742E-008  alpha =   0.39510943260760206     
 delta_qm =   0.570000E-05 delta_en =   0.561427E-04 tol =   0.100000E-03
 Charges are converged, EXIT

%%%% ELECTRONS %%%%%%%%%%%%%%%%%%%%%%%%%%%%%%%%%%%%%%%%%%%%%%%%%%%%%%%%%%%%%%%%%
 number of electrons        =         24
 total electronic charge    =     24.0000000
 number of spin components  =  1

%%%% BOUNDARY %%%%%%%%%%%%%%%%%%%%%%%%%%%%%%%%%%%%%%%%%%%%%%%%%%%%%%%%%%%%%%%%%%
 boundary mode              = electronic           
 boundary is built as a function of a smooth density
 function type              =  2 
 using the modified SCCS function with parameters 
 rhomax                     =      0.0155000 
 rhomin                     =      0.0024000 
 volume of the QM region    =    366.0513401 
 surface of the QM region   =    278.5086819 

%%%% DIELECTRIC %%%%%%%%%%%%%%%%%%%%%%%%%%%%%%%%%%%%%%%%%%%%%%%%%%%%%%%%%%%%%%%%%
 dielectric build on homogeneous background
 environment bulk permitt.  =     78.3000000 
 dielectric flags
 need gradient              =  F 
 need factor depend. sqrt   =  T 
 need gradient of logarithm =  T 

%%%% COMPUTE ELECTROSTATIC POTENTIAL %%%%%%%%%%%%%%%%%%%%%%%%%%%%%%%%%%%%%%%%%%%
 Warning: bad guess with residual norm =   0.117285E+05, reset to no guess
 Iteration #          1
  pAp =    88.426911979836646       rzold =    91.442805731866386       alpha =    1.0341060621083029     
 delta_qm =   0.118462E+00 delta_en =   0.242496E+05 tol =   0.100000E-03
 Iteration #          2
  pAp =    589.83749415886109       rzold =    51.280692969828372       alpha =    8.6940375065436129E-002
 delta_qm =   0.102729E+00 delta_en =   0.182359E+05 tol =   0.100000E-03
 Iteration #          3
  pAp =    18.196013791442194       rzold =    10.184920988624260       alpha =   0.55973363756265959     
 delta_qm =   0.127518E+00 delta_en =   0.280987E+05 tol =   0.100000E-03
 Iteration #          4
  pAp =    126.28941347026996       rzold =    57.351760386440930       alpha =   0.45412959653931895     
 delta_qm =   0.236823E+00 delta_en =   0.969150E+05 tol =   0.100000E-03
 Iteration #          5
  pAp =   -90.079859808479668       rzold =    308.68731656259661       alpha =   -3.4268183500607350     
 delta_qm =   0.171662E+01 delta_en =   0.509203E+07 tol =   0.100000E-03
 Iteration #          6
  pAp =    321446.99809993117       rzold =    15195.429052900063       alpha =    4.7271958185081946E-002
 delta_qm =   0.159795E+00 delta_en =   0.441237E+05 tol =   0.100000E-03
 Iteration #          7
  pAp =    1103.1991862195675       rzold =    114.19480655617529       alpha =   0.10351241007301408     
 delta_qm =   0.107386E+00 delta_en =   0.199270E+05 tol =   0.100000E-03
 Iteration #          8
  pAp =    135.68675222092898       rzold =    22.057438915608376       alpha =   0.16256147748082167     
 delta_qm =   0.740806E-01 delta_en =   0.948314E+04 tol =   0.100000E-03
 Iteration #          9
  pAp =    12.341683024875225       rzold =    4.4477091194854017       alpha =   0.36038108502064437     
 delta_qm =   0.455328E-01 delta_en =   0.358255E+04 tol =   0.100000E-03
 Iteration #         10
  pAp =    6.3338608035219774       rzold =    1.8016173689877484       alpha =   0.28444221066335235     
 delta_qm =   0.382960E-01 delta_en =   0.253426E+04 tol =   0.100000E-03
 Iteration #         11
  pAp =    3.3846048514275346       rzold =   0.83994973080830382       alpha =   0.24816773823805038     
 delta_qm =   0.348633E-01 delta_en =   0.210030E+04 tol =   0.100000E-03
 Iteration #         12
  pAp =    1.2157917618045648       rzold =   0.49892383586299383       alpha =   0.41036948228901921     
 delta_qm =   0.282215E-01 delta_en =   0.137627E+04 tol =   0.100000E-03
 Iteration #         13
  pAp =   0.83358173491740006       rzold =   0.51180287885166986       alpha =   0.61398043816589221     
 delta_qm =   0.159012E-01 delta_en =   0.436921E+03 tol =   0.100000E-03
 Iteration #         14
  pAp =    1.2163736495133606       rzold =   0.38766483908668253       alpha =   0.31870539060244946     
 delta_qm =   0.893010E-02 delta_en =   0.137802E+03 tol =   0.100000E-03
 Iteration #         15
  pAp =   0.55388724230336450       rzold =   0.12505455167819030       alpha =   0.22577619076067798     
 delta_qm =   0.682914E-02 delta_en =   0.805890E+02 tol =   0.100000E-03
 Iteration #         16
  pAp =   0.10124050487550000       rzold =    2.5245277780665040E-002  alpha =   0.24935946152886429     
 delta_qm =   0.514513E-02 delta_en =   0.457442E+02 tol =   0.100000E-03
 Iteration #         17
  pAp =    4.7230262800929998E-002  rzold =    1.0658259715504347E-002  alpha =   0.22566589901114159     
 delta_qm =   0.384614E-02 delta_en =   0.255619E+02 tol =   0.100000E-03
 Iteration #         18
  pAp =    2.6807411642878767E-002  rzold =    6.8351444905319315E-003  alpha =   0.25497219133230448     
 delta_qm =   0.264121E-02 delta_en =   0.120545E+02 tol =   0.100000E-03
 Iteration #         19
  pAp =    7.8253080588393531E-003  rzold =    3.1949460970838693E-003  alpha =   0.40828374717783861     
 delta_qm =   0.163857E-02 delta_en =   0.463954E+01 tol =   0.100000E-03
 Iteration #         20
  pAp =    4.1486733538645317E-003  rzold =    1.8373003995377660E-003  alpha =   0.44286456002285690     
 delta_qm =   0.141597E-02 delta_en =   0.346460E+01 tol =   0.100000E-03
 Iteration #         21
  pAp =    1.6964191307651279E-003  rzold =    8.8105163408787931E-004  alpha =   0.51935964297366932     
 delta_qm =   0.953937E-03 delta_en =   0.157247E+01 tol =   0.100000E-03
 Iteration #         22
  pAp =    9.1626770966571694E-004  rzold =    4.0610837617845570E-004  alpha =   0.44322022035090236     
 delta_qm =   0.571403E-03 delta_en =   0.564194E+00 tol =   0.100000E-03
 Iteration #         23
  pAp =    7.9296957187973902E-004  rzold =    1.3655916696811031E-004  alpha =   0.17221236704505066     
 delta_qm =   0.493137E-03 delta_en =   0.420223E+00 tol =   0.100000E-03
 Iteration #         24
  pAp =    1.1145648309434898E-003  rzold =    1.7723990272965312E-004  alpha =   0.15902161795255809     
 delta_qm =   0.380500E-03 delta_en =   0.250180E+00 tol =   0.100000E-03
 Iteration #         25
  pAp =    8.4729539086375469E-005  rzold =    3.9863936244985172E-005  alpha =   0.47048451667306784     
 delta_qm =   0.278673E-03 delta_en =   0.134194E+00 tol =   0.100000E-03
 Iteration #         26
  pAp =    7.9340416401110772E-005  rzold =    3.2691674823532316E-005  alpha =   0.41204314656299978     
 delta_qm =   0.197589E-03 delta_en =   0.674635E-01 tol =   0.100000E-03
 Iteration #         27
  pAp =    8.3295805081164611E-005  rzold =    2.5381850403108375E-005  alpha =   0.30471943188946837     
 delta_qm =   0.164182E-03 delta_en =   0.465795E-01 tol =   0.100000E-03
 Iteration #         28
  pAp =    6.9869963387336422E-005  rzold =    1.4480001729689380E-005  alpha =   0.20724215424898601     
 delta_qm =   0.130619E-03 delta_en =   0.294821E-01 tol =   0.100000E-03
 Iteration #         29
  pAp =    5.7636311480110817E-005  rzold =    8.0625726277933391E-006  alpha =   0.13988703337783123     
 delta_qm =   0.107635E-03 delta_en =   0.200194E-01 tol =   0.100000E-03
 Iteration #         30
  pAp =    1.0679012823499262E-005  rzold =    3.2401871190597555E-006  alpha =   0.30341635248622373     
 delta_qm =   0.636589E-04 delta_en =   0.700265E-02 tol =   0.100000E-03
 Iteration #         31
  pAp =    1.9588867449984788E-006  rzold =    8.6104889556504415E-007  alpha =   0.43956032566125347     
 delta_qm =   0.340096E-04 delta_en =   0.199870E-02 tol =   0.100000E-03
 Iteration #         32
  pAp =    1.0707922765219782E-006  rzold =    4.1808143853857973E-007  alpha =   0.39044121600927378     
 delta_qm =   0.229990E-04 delta_en =   0.914029E-03 tol =   0.100000E-03
 Iteration #         33
  pAp =    9.3785136895153970E-007  rzold =    2.7529156336352074E-007  alpha =   0.29353431948527176     
 delta_qm =   0.210437E-04 delta_en =   0.765219E-03 tol =   0.100000E-03
 Iteration #         34
  pAp =    4.7006829339145212E-007  rzold =    1.2881667110822559E-007  alpha =   0.27403820448905020     
 delta_qm =   0.180065E-04 delta_en =   0.560278E-03 tol =   0.100000E-03
 Iteration #         35
  pAp =    9.4153093014972342E-007  rzold =    1.4887092947672019E-007  alpha =   0.15811581405301953     
 delta_qm =   0.146752E-04 delta_en =   0.372145E-03 tol =   0.100000E-03
 Iteration #         36
  pAp =    1.1391119529150009E-007  rzold =    4.5889237890908236E-008  alpha =   0.40285099083963727     
 delta_qm =   0.928290E-05 delta_en =   0.148906E-03 tol =   0.100000E-03
 Iteration #         37
  pAp =    3.0811493129727065E-008  rzold =    1.6944813740731616E-008  alpha =   0.54995107408096311     
 delta_qm =   0.490083E-05 delta_en =   0.415033E-04 tol =   0.100000E-03
 Charges are converged, EXIT

%%%% ELECTRONS %%%%%%%%%%%%%%%%%%%%%%%%%%%%%%%%%%%%%%%%%%%%%%%%%%%%%%%%%%%%%%%%%
 number of electrons        =         24
 total electronic charge    =     24.0000000
 number of spin components  =  1

%%%% BOUNDARY %%%%%%%%%%%%%%%%%%%%%%%%%%%%%%%%%%%%%%%%%%%%%%%%%%%%%%%%%%%%%%%%%%
 boundary mode              = electronic           
 boundary is built as a function of a smooth density
 function type              =  2 
 using the modified SCCS function with parameters 
 rhomax                     =      0.0155000 
 rhomin                     =      0.0024000 
 volume of the QM region    =    366.2497551 
 surface of the QM region   =    278.7956193 

%%%% DIELECTRIC %%%%%%%%%%%%%%%%%%%%%%%%%%%%%%%%%%%%%%%%%%%%%%%%%%%%%%%%%%%%%%%%%
 dielectric build on homogeneous background
 environment bulk permitt.  =     78.3000000 
 dielectric flags
 need gradient              =  F 
 need factor depend. sqrt   =  T 
 need gradient of logarithm =  T 

%%%% ELECTRONS %%%%%%%%%%%%%%%%%%%%%%%%%%%%%%%%%%%%%%%%%%%%%%%%%%%%%%%%%%%%%%%%%
 number of electrons        =         24
 total electronic charge    =     24.0000000
 number of spin components  =  1

%%%% BOUNDARY %%%%%%%%%%%%%%%%%%%%%%%%%%%%%%%%%%%%%%%%%%%%%%%%%%%%%%%%%%%%%%%%%%
 boundary mode              = electronic           
 boundary is built as a function of a smooth density
 function type              =  2 
 using the modified SCCS function with parameters 
 rhomax                     =      0.0155000 
 rhomin                     =      0.0024000 
 volume of the QM region    =    366.3038404 
 surface of the QM region   =    278.8923620 

%%%% DIELECTRIC %%%%%%%%%%%%%%%%%%%%%%%%%%%%%%%%%%%%%%%%%%%%%%%%%%%%%%%%%%%%%%%%%
 dielectric build on homogeneous background
 environment bulk permitt.  =     78.3000000 
 dielectric flags
 need gradient              =  F 
 need factor depend. sqrt   =  T 
 need gradient of logarithm =  T 

%%%% ELECTRONS %%%%%%%%%%%%%%%%%%%%%%%%%%%%%%%%%%%%%%%%%%%%%%%%%%%%%%%%%%%%%%%%%
 number of electrons        =         24
 total electronic charge    =     24.0000000
 number of spin components  =  1

%%%% BOUNDARY %%%%%%%%%%%%%%%%%%%%%%%%%%%%%%%%%%%%%%%%%%%%%%%%%%%%%%%%%%%%%%%%%%
 boundary mode              = electronic           
 boundary is built as a function of a smooth density
 function type              =  2 
 using the modified SCCS function with parameters 
 rhomax                     =      0.0155000 
 rhomin                     =      0.0024000 
 volume of the QM region    =    366.3214142 
 surface of the QM region   =    278.9230006 

%%%% DIELECTRIC %%%%%%%%%%%%%%%%%%%%%%%%%%%%%%%%%%%%%%%%%%%%%%%%%%%%%%%%%%%%%%%%%
 dielectric build on homogeneous background
 environment bulk permitt.  =     78.3000000 
 dielectric flags
 need gradient              =  F 
 need factor depend. sqrt   =  T 
 need gradient of logarithm =  T 

%%%% ELECTRONS %%%%%%%%%%%%%%%%%%%%%%%%%%%%%%%%%%%%%%%%%%%%%%%%%%%%%%%%%%%%%%%%%
 number of electrons        =         24
 total electronic charge    =     24.0000000
 number of spin components  =  1

%%%% BOUNDARY %%%%%%%%%%%%%%%%%%%%%%%%%%%%%%%%%%%%%%%%%%%%%%%%%%%%%%%%%%%%%%%%%%
 boundary mode              = electronic           
 boundary is built as a function of a smooth density
 function type              =  2 
 using the modified SCCS function with parameters 
 rhomax                     =      0.0155000 
 rhomin                     =      0.0024000 
 volume of the QM region    =    366.3514966 
 surface of the QM region   =    278.9639000 

%%%% DIELECTRIC %%%%%%%%%%%%%%%%%%%%%%%%%%%%%%%%%%%%%%%%%%%%%%%%%%%%%%%%%%%%%%%%%
 dielectric build on homogeneous background
 environment bulk permitt.  =     78.3000000 
 dielectric flags
 need gradient              =  F 
 need factor depend. sqrt   =  T 
 need gradient of logarithm =  T 

%%%% ELECTRONS %%%%%%%%%%%%%%%%%%%%%%%%%%%%%%%%%%%%%%%%%%%%%%%%%%%%%%%%%%%%%%%%%
 number of electrons        =         24
 total electronic charge    =     24.0000000
 number of spin components  =  1

%%%% BOUNDARY %%%%%%%%%%%%%%%%%%%%%%%%%%%%%%%%%%%%%%%%%%%%%%%%%%%%%%%%%%%%%%%%%%
 boundary mode              = electronic           
 boundary is built as a function of a smooth density
 function type              =  2 
 using the modified SCCS function with parameters 
 rhomax                     =      0.0155000 
 rhomin                     =      0.0024000 
 volume of the QM region    =    364.9542068 
 surface of the QM region   =    279.0887255 

%%%% DIELECTRIC %%%%%%%%%%%%%%%%%%%%%%%%%%%%%%%%%%%%%%%%%%%%%%%%%%%%%%%%%%%%%%%%%
 dielectric build on homogeneous background
 environment bulk permitt.  =     78.3000000 
 dielectric flags
 need gradient              =  F 
 need factor depend. sqrt   =  T 
 need gradient of logarithm =  T 

%%%% ELECTRONS %%%%%%%%%%%%%%%%%%%%%%%%%%%%%%%%%%%%%%%%%%%%%%%%%%%%%%%%%%%%%%%%%
 number of electrons        =         24
 total electronic charge    =     24.0000000
 number of spin components  =  1

%%%% BOUNDARY %%%%%%%%%%%%%%%%%%%%%%%%%%%%%%%%%%%%%%%%%%%%%%%%%%%%%%%%%%%%%%%%%%
 boundary mode              = electronic           
 boundary is built as a function of a smooth density
 function type              =  2 
 using the modified SCCS function with parameters 
 rhomax                     =      0.0155000 
 rhomin                     =      0.0024000 
 volume of the QM region    =    396.5970962 
 surface of the QM region   =    292.4478002 

%%%% DIELECTRIC %%%%%%%%%%%%%%%%%%%%%%%%%%%%%%%%%%%%%%%%%%%%%%%%%%%%%%%%%%%%%%%%%
 dielectric build on homogeneous background
 environment bulk permitt.  =     78.3000000 
 dielectric flags
 need gradient              =  F 
 need factor depend. sqrt   =  T 
 need gradient of logarithm =  T 

%%%% ELECTRONS %%%%%%%%%%%%%%%%%%%%%%%%%%%%%%%%%%%%%%%%%%%%%%%%%%%%%%%%%%%%%%%%%
 number of electrons        =         24
 total electronic charge    =     24.0000000
 number of spin components  =  1

%%%% BOUNDARY %%%%%%%%%%%%%%%%%%%%%%%%%%%%%%%%%%%%%%%%%%%%%%%%%%%%%%%%%%%%%%%%%%
 boundary mode              = electronic           
 boundary is built as a function of a smooth density
 function type              =  2 
 using the modified SCCS function with parameters 
 rhomax                     =      0.0155000 
 rhomin                     =      0.0024000 
 volume of the QM region    =    402.0294298 
 surface of the QM region   =    306.7573895 

%%%% DIELECTRIC %%%%%%%%%%%%%%%%%%%%%%%%%%%%%%%%%%%%%%%%%%%%%%%%%%%%%%%%%%%%%%%%%
 dielectric build on homogeneous background
 environment bulk permitt.  =     78.3000000 
 dielectric flags
 need gradient              =  F 
 need factor depend. sqrt   =  T 
 need gradient of logarithm =  T 

%%%% ELECTRONS %%%%%%%%%%%%%%%%%%%%%%%%%%%%%%%%%%%%%%%%%%%%%%%%%%%%%%%%%%%%%%%%%
 number of electrons        =         24
 total electronic charge    =     24.0000000
 number of spin components  =  1

%%%% BOUNDARY %%%%%%%%%%%%%%%%%%%%%%%%%%%%%%%%%%%%%%%%%%%%%%%%%%%%%%%%%%%%%%%%%%
 boundary mode              = electronic           
 boundary is built as a function of a smooth density
 function type              =  2 
 using the modified SCCS function with parameters 
 rhomax                     =      0.0155000 
 rhomin                     =      0.0024000 
 volume of the QM region    =   1067.7276823 
 surface of the QM region   =   1236.6593470 

%%%% DIELECTRIC %%%%%%%%%%%%%%%%%%%%%%%%%%%%%%%%%%%%%%%%%%%%%%%%%%%%%%%%%%%%%%%%%
 dielectric build on homogeneous background
 environment bulk permitt.  =     78.3000000 
 dielectric flags
 need gradient              =  F 
 need factor depend. sqrt   =  T 
 need gradient of logarithm =  T 
