
     Program PWSCF v.6.1 (svn rev. 13369) starts on 10Oct2017 at 12:37:54 

     This program is part of the open-source Quantum ESPRESSO suite
     for quantum simulation of materials; please cite
         "P. Giannozzi et al., J. Phys.:Condens. Matter 21 395502 (2009);
          URL http://www.quantum-espresso.org", 
     in publications or presentations arising from this work. More details at
     http://www.quantum-espresso.org/quote

     Serial version
     Reading input from cation.in

     Current dimensions of program PWSCF are:
     Max number of different atomic species (ntypx) = 10
     Max number of k-points (npk) =  40000
     Max angular momentum in pseudopotentials (lmaxx) =  3
               file C.pbe-rrkjus.UPF: wavefunction(s)  2S 2P renormalized
               file H.pbe-rrkjus.UPF: wavefunction(s)  1S renormalized
               file N.pbe-rrkjus.UPF: wavefunction(s)  2S renormalized
               file O.pbe-rrkjus.UPF: wavefunction(s)  2S renormalized

     gamma-point specific algorithms are used

     G-vector sticks info
     --------------------
     sticks:   dense  smooth     PW     G-vecs:    dense   smooth      PW
     Sum        9549    3809    949               701475   177509   22119



     bravais-lattice index     =            1
     lattice parameter (alat)  =      20.0000  a.u.
     unit-cell volume          =    8000.0000 (a.u.)^3
     number of atoms/cell      =           10
     number of atomic types    =            4
     number of electrons       =        24.00
     number of Kohn-Sham states=           12
     kinetic-energy cutoff     =      30.0000  Ry
     charge density cutoff     =     300.0000  Ry
     convergence threshold     =      5.0E-03
     mixing beta               =       0.7000
     number of iterations used =            8  plain     mixing
     Exchange-correlation      =  SLA  PW   PBE  PBE ( 1  4  3  4 0 0)


     Environ Module
     ==============

     Plese cite
         O. Andreussi, I. Dabo and N. Marzari, J. Chem. Phys. 136, 064102 (2012)         
     in publications or presentations arising from this work.

     compensation onset threshold      =               0.1000E+03 
     static permittivity               =                    78.30 
     epsilon calculation mode          =               electronic 
     surface tension in input (dyn/cm) =                     5.00 
     surface tension in internal units =               0.6423E-05 
     external pressure in input (GPa)  =                     0.12 
     external pressure in inter. units =               0.8497E-05 

     Electrostatic Setup
     -------------------
     electrostatic problem to solve    = generalized              
     numerical solver adopted          = cg                       
     type of auxiliary density adopted = none                     
     type of core tool for poisson     = fft                      
     type of core tool for s(r) deriv  = analytic                 



     celldm(1)=  20.000000  celldm(2)=   0.000000  celldm(3)=   0.000000
     celldm(4)=   0.000000  celldm(5)=   0.000000  celldm(6)=   0.000000

     crystal axes: (cart. coord. in units of alat)
               a(1) = (   1.000000   0.000000   0.000000 )  
               a(2) = (   0.000000   1.000000   0.000000 )  
               a(3) = (   0.000000   0.000000   1.000000 )  

     reciprocal axes: (cart. coord. in units 2 pi/alat)
               b(1) = (  1.000000  0.000000  0.000000 )  
               b(2) = (  0.000000  1.000000  0.000000 )  
               b(3) = (  0.000000  0.000000  1.000000 )  


     PseudoPot. # 1 for C  read from file:
     /Users/oliviero/PWSCF/espresso-6.1-Environ-1.0/Environ/tests/../..//pseudo/C.pbe-rrkjus.UPF
     MD5 check sum: 00fb224312de0c5b6853bd333518df6f
     Pseudo is Ultrasoft, Zval =  4.0
     Generated by new atomic code, or converted to UPF format
     Using radial grid of  627 points,  4 beta functions with: 
                l(1) =   0
                l(2) =   0
                l(3) =   1
                l(4) =   1
     Q(r) pseudized with 0 coefficients 


     PseudoPot. # 2 for H  read from file:
     /Users/oliviero/PWSCF/espresso-6.1-Environ-1.0/Environ/tests/../..//pseudo/H.pbe-rrkjus.UPF
     MD5 check sum: 7cc9d459525c9a0585f487a71c3c9563
     Pseudo is Ultrasoft, Zval =  1.0
     Generated by new atomic code, or converted to UPF format
     Using radial grid of 1061 points,  2 beta functions with: 
                l(1) =   0
                l(2) =   0
     Q(r) pseudized with 0 coefficients 


     PseudoPot. # 3 for N  read from file:
     /Users/oliviero/PWSCF/espresso-6.1-Environ-1.0/Environ/tests/../..//pseudo/N.pbe-rrkjus.UPF
     MD5 check sum: 0c3fbe5807a93f9ba59d5a7019aa238b
     Pseudo is Ultrasoft, Zval =  5.0
     Generated by new atomic code, or converted to UPF format
     Using radial grid of 1257 points,  4 beta functions with: 
                l(1) =   0
                l(2) =   0
                l(3) =   1
                l(4) =   1
     Q(r) pseudized with 0 coefficients 


     PseudoPot. # 4 for O  read from file:
     /Users/oliviero/PWSCF/espresso-6.1-Environ-1.0/Environ/tests/../..//pseudo/O.pbe-rrkjus.UPF
     MD5 check sum: 390ba29e75625707450f3bd3f0eb6be9
     Pseudo is Ultrasoft, Zval =  6.0
     Generated by new atomic code, or converted to UPF format
     Using radial grid of 1269 points,  4 beta functions with: 
                l(1) =   0
                l(2) =   0
                l(3) =   1
                l(4) =   1
     Q(r) pseudized with 0 coefficients 


     atomic species   valence    mass     pseudopotential
        C              4.00    12.00000     C ( 1.00)
        H              1.00     1.00000     H ( 1.00)
        N              5.00    14.00000     N ( 1.00)
        O              6.00    16.00000     O ( 1.00)

     No symmetry found



   Cartesian axes

     site n.     atom                  positions (alat units)
         1           C   tau(   1) = (   0.0000000   0.0000000   0.0000000  )
         2           C   tau(   2) = (   0.0000000   0.0000000   0.1455089  )
         3           N   tau(   3) = (   0.1170969   0.0000000  -0.0545024  )
         4           H   tau(   4) = (   0.0476617  -0.0825466   0.1792090  )
         5           H   tau(   5) = (  -0.0953183  -0.0000030   0.1792090  )
         6           H   tau(   6) = (   0.0476566   0.0825496   0.1792090  )
         7           O   tau(   7) = (  -0.0984002  -0.0000019  -0.0641310  )
         8           H   tau(   8) = (   0.1263131  -0.0000015  -0.1475548  )
         9           H   tau(   9) = (   0.1944645   0.0000134  -0.0025716  )
        10           H   tau(  10) = (  -0.0770366  -0.0000045  -0.1522861  )

     number of k points=     1
                       cart. coord. in units 2pi/alat
        k(    1) = (   0.0000000   0.0000000   0.0000000), wk =   2.0000000

     Dense  grid:   350738 G-vectors     FFT dimensions: ( 120, 120, 120)

     Smooth grid:    88755 G-vectors     FFT dimensions: (  72,  72,  72)

     Estimated max dynamical RAM per process >     298.98MB

     Initial potential from superposition of free atoms
     Check: negative starting charge=   -0.000452

     starting charge   24.42266, renormalised to   24.00000

     negative rho (up, down):  4.438E-04 0.000E+00
     Starting wfc are   22 randomized atomic wfcs

     total cpu time spent up to now is       27.8 secs

     Self-consistent Calculation

     iteration #  1     ecut=    30.00 Ry     beta=0.70
     Davidson diagonalization with overlap
     ethr =  1.00E-02,  avg # of iterations =  2.0

     negative rho (up, down):  1.277E-04 0.000E+00

     add environment contribution to local potential
     polarization accuracy = 8.0E-05, # of iterations =  14

     total cpu time spent up to now is       37.9 secs

     total energy              =     -80.22763403 Ry
     Harris-Foulkes estimate   =     -83.01879009 Ry
     estimated scf accuracy    <       3.73442311 Ry
     electrostatic embedding   =       0.00242302 Ry
     cavitation energy         =       0.00265722 Ry
     PV energy                 =       0.00631753 Ry
     correction to one-el term =       0.00000000 Ry

     iteration #  2     ecut=    30.00 Ry     beta=0.70
     Davidson diagonalization with overlap
     ethr =  1.00E-02,  avg # of iterations =  4.0

     negative rho (up, down):  6.931E-04 0.000E+00

     add environment contribution to local potential
     polarization accuracy = 5.7E-05, # of iterations =  17

     total cpu time spent up to now is       49.1 secs

     total energy              =     -80.97668541 Ry
     Harris-Foulkes estimate   =     -76.67511156 Ry
     estimated scf accuracy    <       1.54610067 Ry
     electrostatic embedding   =      -0.15786007 Ry
     cavitation energy         =       0.00259634 Ry
     PV energy                 =       0.00597410 Ry
     correction to one-el term =      -4.97968597 Ry

     iteration #  3     ecut=    30.00 Ry     beta=0.70
     Davidson diagonalization with overlap
     ethr =  6.44E-03,  avg # of iterations =  3.0

     negative rho (up, down):  3.265E-04 0.000E+00

     add environment contribution to local potential
     polarization accuracy = 5.6E-05, # of iterations =  18

     total cpu time spent up to now is       60.6 secs

     total energy              =     -81.31873309 Ry
     Harris-Foulkes estimate   =     -77.07862273 Ry
     estimated scf accuracy    <       0.24531086 Ry
     electrostatic embedding   =      -0.13226215 Ry
     cavitation energy         =       0.00251945 Ry
     PV energy                 =       0.00563354 Ry
     correction to one-el term =      -4.24667979 Ry

     iteration #  4     ecut=    30.00 Ry     beta=0.70
     Davidson diagonalization with overlap
     ethr =  1.02E-03,  avg # of iterations =  4.0

     negative rho (up, down):  8.603E-05 0.000E+00

     add environment contribution to local potential
     polarization accuracy = 6.7E-05, # of iterations =  19

     total cpu time spent up to now is       71.8 secs

     total energy              =     -81.36922744 Ry
     Harris-Foulkes estimate   =     -77.27454392 Ry
     estimated scf accuracy    <       0.02092123 Ry
     electrostatic embedding   =      -0.11951412 Ry
     cavitation energy         =       0.00247831 Ry
     PV energy                 =       0.00544180 Ry
     correction to one-el term =      -3.99370701 Ry

     iteration #  5     ecut=    30.00 Ry     beta=0.70
     Davidson diagonalization with overlap
     ethr =  8.72E-05,  avg # of iterations =  4.0

     negative rho (up, down):  2.765E-04 0.000E+00

     total cpu time spent up to now is       77.7 secs

     End of self-consistent calculation

          k = 0.0000 0.0000 0.0000 ( 11060 PWs)   bands (ev):

   -28.9702 -23.2315 -18.7073 -16.0446 -14.7522 -13.4788 -11.7326 -10.9900
    -9.6262  -9.6125  -9.3803  -7.4672

     highest occupied level (ev):    -7.4672

!    total energy              =     -81.37356360 Ry
     Harris-Foulkes estimate   =     -77.50474664 Ry
     estimated scf accuracy    <       0.00249123 Ry

     The total energy is the sum of the following terms:

     one-electron contribution =    -242.01196595 Ry
     hartree contribution      =     123.14803487 Ry
     xc contribution           =     -22.94679661 Ry
     ewald contribution        =      64.30784006 Ry
     electrostatic embedding   =      -0.11898457 Ry
     cavitation energy         =       0.00247831 Ry
     PV energy                 =       0.00544180 Ry
     correction to one-el term =      -3.75961150 Ry

     convergence has been achieved in   5 iterations

     Forces acting on atoms (cartesian axes, Ry/au):

     atom    1 type  1   force =     0.21854534    0.00000686    0.10005910
     atom    2 type  1   force =    -0.03330160   -0.00001180   -0.08050967
     atom    3 type  3   force =    -0.13907750   -0.00000803    0.04511960
     atom    4 type  2   force =     0.01750415   -0.02819542    0.00845136
     atom    5 type  2   force =    -0.03248907    0.00000166    0.01181096
     atom    6 type  2   force =     0.01750855    0.02821157    0.00845373
     atom    7 type  4   force =    -0.08317902   -0.00003978   -0.01078727
     atom    8 type  2   force =     0.00510392    0.00001063   -0.04771516
     atom    9 type  2   force =     0.03807319    0.00001465    0.03875706
     atom   10 type  2   force =    -0.00868795    0.00000965   -0.07363971

     Total force =     0.328744     Total SCF correction =     0.121275
     SCF correction compared to forces is large: reduce conv_thr to get better values

     Writing output data file pwscf.save

     init_run     :     26.89s CPU     27.52s WALL (       1 calls)
     electrons    :     45.57s CPU     50.12s WALL (       1 calls)
     forces       :      3.45s CPU      3.82s WALL (       1 calls)

     Called by init_run:
     wfcinit      :      0.26s CPU      0.25s WALL (       1 calls)
     potinit      :      1.97s CPU      2.09s WALL (       1 calls)

     Called by electrons:
     c_bands      :      2.30s CPU      2.16s WALL (       5 calls)
     sum_band     :      7.17s CPU      7.17s WALL (       5 calls)
     v_of_rho     :      7.89s CPU      8.47s WALL (       6 calls)
     newd         :      3.75s CPU      5.32s WALL (       6 calls)
     mix_rho      :      0.65s CPU      0.72s WALL (       5 calls)

     Called by c_bands:
     init_us_2    :      0.09s CPU      0.12s WALL (      11 calls)
     regterg      :      2.17s CPU      2.00s WALL (       5 calls)

     Called by sum_band:
     sum_band:bec :      0.00s CPU      0.00s WALL (       5 calls)
     addusdens    :      5.67s CPU      5.63s WALL (       5 calls)

     Called by *egterg:
     h_psi        :      2.00s CPU      1.92s WALL (      23 calls)
     s_psi        :      0.11s CPU      0.04s WALL (      23 calls)
     g_psi        :      0.02s CPU      0.02s WALL (      17 calls)
     rdiaghg      :      0.01s CPU      0.01s WALL (      22 calls)

     Called by h_psi:
     h_psi:pot    :      1.98s CPU      1.90s WALL (      23 calls)
     h_psi:calbec :      0.05s CPU      0.05s WALL (      23 calls)
     vloc_psi     :      1.80s CPU      1.80s WALL (      23 calls)
     add_vuspsi   :      0.12s CPU      0.04s WALL (      23 calls)

     General routines
     calbec       :      0.08s CPU      0.08s WALL (      32 calls)
     fft          :     18.80s CPU     18.93s WALL (     315 calls)
     ffts         :      0.11s CPU      0.11s WALL (      11 calls)
     fftw         :      1.48s CPU      1.48s WALL (     244 calls)
     interpolate  :      0.89s CPU      0.97s WALL (      11 calls)
     davcio       :      0.01s CPU      0.01s WALL (       1 calls)


     Environ routines
     calc_eelect  :      0.02s CPU      0.02s WALL (      10 calls)
     calc_velect  :     14.95s CPU     16.72s WALL (       8 calls)
     dielectric   :      0.53s CPU      0.67s WALL (       6 calls)
     calc_felect  :      0.95s CPU      1.00s WALL (       1 calls)

     PWSCF        :  1m16.20s CPU     1m22.01s WALL


   This run was terminated on:  12:39:16  10Oct2017            

=------------------------------------------------------------------------------=
   JOB DONE.
=------------------------------------------------------------------------------=

%%%% IONS %%%%%%%%%%%%%%%%%%%%%%%%%%%%%%%%%%%%%%%%%%%%%%%%%%%%%%%%%%%%%%%%%%%%%%
 number of ions             =         10
 ionic center of charge     =      0.0095530    -0.0000002     0.0063981
 total ionic charge         =    -25.0000000
 ionic dipole               =      0.0000000     0.0000000     0.0000000
 ionic quadrupole (pc)      =    -79.0828058    -5.4513517  -105.8059629
 ionic quadrupole (gauss)   =    -82.2078058    -8.5763517  -108.9309629
 ion   1 type =  1 coordinates =      0.0000000     0.0000000     0.0000000
 ion   2 type =  1 coordinates =      0.0000000     0.0000000     2.9101782
 ion   3 type =  3 coordinates =      2.3419379     0.0000000    -1.0900479
 ion   4 type =  2 coordinates =      0.9532347    -1.6509323     3.5841800
 ion   5 type =  2 coordinates =     -1.9063663    -0.0000596     3.5841809
 ion   6 type =  2 coordinates =      0.9531315     1.6509919     3.5841800
 ion   7 type =  4 coordinates =     -1.9680045    -0.0000375    -1.2826193
 ion   8 type =  2 coordinates =      2.5262613    -0.0000303    -2.9510950
 ion   9 type =  2 coordinates =      3.8892907     0.0002681    -0.0514326
 ion  10 type =  2 coordinates =     -1.5407317    -0.0000890    -3.0457220

%%%% SYSTEM %%%%%%%%%%%%%%%%%%%%%%%%%%%%%%%%%%%%%%%%%%%%%%%%%%%%%%%%%%%%%%%%%%%%
 system is built from all present ionic types
 system defined dimension   =  0 
 system defined axis        =  3 
 system center              =      0.0095530    -0.0000002     0.0063981 
 system width               =      0.5223840 

%%%% ELECTRONS %%%%%%%%%%%%%%%%%%%%%%%%%%%%%%%%%%%%%%%%%%%%%%%%%%%%%%%%%%%%%%%%%
 number of electrons        =         24
 total electronic charge    =     24.0000000
 number of spin components  =  1

%%%% BOUNDARY %%%%%%%%%%%%%%%%%%%%%%%%%%%%%%%%%%%%%%%%%%%%%%%%%%%%%%%%%%%%%%%%%%
 boundary mode              = electronic           
 boundary is built as a function of a smooth density
 function type              =  2 
 using the modified SCCS function with parameters 
 rhomax                     =      0.0035000 
 rhomin                     =      0.0002000 

%%%% DIELECTRIC %%%%%%%%%%%%%%%%%%%%%%%%%%%%%%%%%%%%%%%%%%%%%%%%%%%%%%%%%%%%%%%%%
 dielectric build on homogeneous background
 environment bulk permitt.  =     78.3000000 
 dielectric flags
 need gradient              =  F 
 need factor depend. sqrt   =  T 
 need gradient of logarithm =  T 

%%%% COMPUTE ELECTROSTATIC POTENTIAL %%%%%%%%%%%%%%%%%%%%%%%%%%%%%%%%%%%%%%%%%%%
 Iteration #          1
  pAp =  92.62506483223565  rzold =  89.1130412800685  alpha =  0.9620834429802754
 delta_qm =   0.220350E-01 delta_en =   0.839014E+03 tol =   0.100000E-03
 Iteration #          2
  pAp =  250.9984234213093  rzold =  27.058586016203694  alpha =  0.10780380867486546
 delta_qm =   0.409867E-02 delta_en =   0.290289E+02 tol =   0.100000E-03
 Iteration #          3
  pAp =  1.6500525844099598  rzold =  0.2950858371334466  alpha =  0.17883420196512462
 delta_qm =   0.172624E-02 delta_en =   0.514929E+01 tol =   0.100000E-03
 Iteration #          4
  pAp =  0.19443286020050163  rzold =  0.033177372310263555  alpha =  0.17063665203531247
 delta_qm =   0.127132E-02 delta_en =   0.279289E+01 tol =   0.100000E-03
 Iteration #          5
  pAp =  0.017206594190836585  rzold =  0.00507389494625748  alpha =  0.2948808398677523
 delta_qm =   0.834449E-03 delta_en =   0.120322E+01 tol =   0.100000E-03
 Iteration #          6
  pAp =  0.005080956633552672  rzold =  0.0020422396806135373  alpha =  0.40193999435605815
 delta_qm =   0.401672E-03 delta_en =   0.278796E+00 tol =   0.100000E-03
 Iteration #          7
  pAp =  0.0014607373070491692  rzold =  0.0005667749398408123  alpha =  0.3880060686515583
 delta_qm =   0.262627E-03 delta_en =   0.119185E+00 tol =   0.100000E-03
 Iteration #          8
  pAp =  0.001286860989812383  rzold =  0.00034476746514404394  alpha =  0.26791352591573164
 delta_qm =   0.179812E-03 delta_en =   0.558704E-01 tol =   0.100000E-03
 Iteration #          9
  pAp =  0.0006176940949679967  rzold =  0.00022541716515363106  alpha =  0.3649333334897918
 delta_qm =   0.102912E-03 delta_en =   0.183009E-01 tol =   0.100000E-03
 Iteration #         10
  pAp =  0.00023387310607512018  rzold =  0.00008792043057759854  alpha =  0.3759321969639316
 delta_qm =   0.428483E-04 delta_en =   0.317256E-02 tol =   0.100000E-03
 Iteration #         11
  pAp =  0.000026550191727207784  rzold =  0.000010473066266896428  alpha =  0.3944629242041957
 delta_qm =   0.228817E-04 delta_en =   0.904732E-03 tol =   0.100000E-03
 Iteration #         12
  pAp =  0.0000028117141401143572  rzold =  0.0000012039979332184043  alpha =  0.428207802507774
 delta_qm =   0.158960E-04 delta_en =   0.436634E-03 tol =   0.100000E-03
 Iteration #         13
  pAp =  0.0000012278683604712605  rzold =  5.183758146249427E-7  alpha =  0.4221753986933812
 delta_qm =   0.101158E-04 delta_en =   0.176825E-03 tol =   0.100000E-03
 Iteration #         14
  pAp =  0.000001092496169343733  rzold =  4.0404700163643604E-7  alpha =  0.3698383692083321
 delta_qm =   0.681973E-05 delta_en =   0.803671E-04 tol =   0.100000E-03
 Charges are converged, EXIT

%%%% ELECTRONS %%%%%%%%%%%%%%%%%%%%%%%%%%%%%%%%%%%%%%%%%%%%%%%%%%%%%%%%%%%%%%%%%
 number of electrons        =         24
 total electronic charge    =     24.0000000
 number of spin components  =  1

%%%% BOUNDARY %%%%%%%%%%%%%%%%%%%%%%%%%%%%%%%%%%%%%%%%%%%%%%%%%%%%%%%%%%%%%%%%%%
 boundary mode              = electronic           
 boundary is built as a function of a smooth density
 function type              =  2 
 using the modified SCCS function with parameters 
 rhomax                     =      0.0035000 
 rhomin                     =      0.0002000 

%%%% DIELECTRIC %%%%%%%%%%%%%%%%%%%%%%%%%%%%%%%%%%%%%%%%%%%%%%%%%%%%%%%%%%%%%%%%%
 dielectric build on homogeneous background
 environment bulk permitt.  =     78.3000000 
 dielectric flags
 need gradient              =  F 
 need factor depend. sqrt   =  T 
 need gradient of logarithm =  T 

%%%% COMPUTE ELECTROSTATIC POTENTIAL %%%%%%%%%%%%%%%%%%%%%%%%%%%%%%%%%%%%%%%%%%%
 Warning: bad guess with residual norm =   0.179462E+04, reset to no guess
 Iteration #          1
  pAp =  95.99654251433073  rzold =  92.7115828215607  alpha =  0.965780437433154
 delta_qm =   0.289622E-01 delta_en =   0.144946E+04 tol =   0.100000E-03
 Iteration #          2
  pAp =  309.1160894800724  rzold =  29.39936438806519  alpha =  0.09510784261509772
 delta_qm =   0.507145E-02 delta_en =   0.444435E+02 tol =   0.100000E-03
 Iteration #          3
  pAp =  2.095817031152048  rzold =  0.30118505374696364  alpha =  0.14370770409352265
 delta_qm =   0.222212E-02 delta_en =   0.853254E+01 tol =   0.100000E-03
 Iteration #          4
  pAp =  0.2057444542183534  rzold =  0.03071158118163305  alpha =  0.14927051763465432
 delta_qm =   0.175166E-02 delta_en =   0.530204E+01 tol =   0.100000E-03
 Iteration #          5
  pAp =  0.0152259820441701  rzold =  0.004715752478025092  alpha =  0.30971745955990493
 delta_qm =   0.118522E-02 delta_en =   0.242742E+01 tol =   0.100000E-03
 Iteration #          6
  pAp =  0.0065436297552261624  rzold =  0.0023855638659586237  alpha =  0.36456278169671186
 delta_qm =   0.654768E-03 delta_en =   0.740830E+00 tol =   0.100000E-03
 Iteration #          7
  pAp =  0.002073175818068793  rzold =  0.0008166084552766519  alpha =  0.3938925238079132
 delta_qm =   0.456901E-03 delta_en =   0.360735E+00 tol =   0.100000E-03
 Iteration #          8
  pAp =  0.0011199204330075469  rzold =  0.0004620512328346018  alpha =  0.4125750537417761
 delta_qm =   0.268605E-03 delta_en =   0.124673E+00 tol =   0.100000E-03
 Iteration #          9
  pAp =  0.0020009483866713145  rzold =  0.0004625368467962882  alpha =  0.23115880943123335
 delta_qm =   0.203671E-03 delta_en =   0.716804E-01 tol =   0.100000E-03
 Iteration #         10
  pAp =  0.0008184898426330002  rzold =  0.0002497789469437563  alpha =  0.3051704907421237
 delta_qm =   0.829385E-04 delta_en =   0.118866E-01 tol =   0.100000E-03
 Iteration #         11
  pAp =  0.00008451687719989203  rzold =  0.00002973992462212714  alpha =  0.35188148932418356
 delta_qm =   0.489037E-04 delta_en =   0.413264E-02 tol =   0.100000E-03
 Iteration #         12
  pAp =  0.00001993411707686748  rzold =  0.000005774882395313095  alpha =  0.28969842873124035
 delta_qm =   0.358896E-04 delta_en =   0.222578E-02 tol =   0.100000E-03
 Iteration #         13
  pAp =  0.000003728943744042906  rzold =  0.0000016333957297451205  alpha =  0.43803174353448393
 delta_qm =   0.236076E-04 delta_en =   0.963043E-03 tol =   0.100000E-03
 Iteration #         14
  pAp =  0.0000027636522729236246  rzold =  0.0000010836102950331097  alpha =  0.392093573294145
 delta_qm =   0.168411E-04 delta_en =   0.490100E-03 tol =   0.100000E-03
 Iteration #         15
  pAp =  0.0000017202593722894094  rzold =  6.278453758970777E-7  alpha =  0.3649713444441281
 delta_qm =   0.121103E-04 delta_en =   0.253429E-03 tol =   0.100000E-03
 Iteration #         16
  pAp =  9.315015431868875E-7  rzold =  3.0546060019033666E-7  alpha =  0.32792280638127935
 delta_qm =   0.848833E-05 delta_en =   0.124505E-03 tol =   0.100000E-03
 Iteration #         17
  pAp =  5.62754685886285E-7  rzold =  1.5374612971291833E-7  alpha =  0.27320275347113787
 delta_qm =   0.576141E-05 delta_en =   0.573590E-04 tol =   0.100000E-03
 Charges are converged, EXIT

%%%% ELECTRONS %%%%%%%%%%%%%%%%%%%%%%%%%%%%%%%%%%%%%%%%%%%%%%%%%%%%%%%%%%%%%%%%%
 number of electrons        =         24
 total electronic charge    =     24.0000000
 number of spin components  =  1

%%%% BOUNDARY %%%%%%%%%%%%%%%%%%%%%%%%%%%%%%%%%%%%%%%%%%%%%%%%%%%%%%%%%%%%%%%%%%
 boundary mode              = electronic           
 boundary is built as a function of a smooth density
 function type              =  2 
 using the modified SCCS function with parameters 
 rhomax                     =      0.0035000 
 rhomin                     =      0.0002000 

%%%% DIELECTRIC %%%%%%%%%%%%%%%%%%%%%%%%%%%%%%%%%%%%%%%%%%%%%%%%%%%%%%%%%%%%%%%%%
 dielectric build on homogeneous background
 environment bulk permitt.  =     78.3000000 
 dielectric flags
 need gradient              =  F 
 need factor depend. sqrt   =  T 
 need gradient of logarithm =  T 

%%%% COMPUTE ELECTROSTATIC POTENTIAL %%%%%%%%%%%%%%%%%%%%%%%%%%%%%%%%%%%%%%%%%%%
 Warning: bad guess with residual norm =   0.223443E+04, reset to no guess
 Iteration #          1
  pAp =  96.45141005453787  rzold =  93.37537808953132  alpha =  0.9681079627216728
 delta_qm =   0.349229E-01 delta_en =   0.210748E+04 tol =   0.100000E-03
 Iteration #          2
  pAp =  380.93620167732337  rzold =  31.788536405494465  alpha =  0.08344845217000754
 delta_qm =   0.580378E-02 delta_en =   0.582057E+02 tol =   0.100000E-03
 Iteration #          3
  pAp =  2.1502791888554045  rzold =  0.3204908598902637  alpha =  0.1490461617967206
 delta_qm =   0.238982E-02 delta_en =   0.986899E+01 tol =   0.100000E-03
 Iteration #          4
  pAp =  0.16504607813983965  rzold =  0.023958122553819343  alpha =  0.14516020510054284
 delta_qm =   0.189616E-02 delta_en =   0.621287E+01 tol =   0.100000E-03
 Iteration #          5
  pAp =  0.025029092371212987  rzold =  0.005537792804779299  alpha =  0.22125423977213604
 delta_qm =   0.141713E-02 delta_en =   0.347025E+01 tol =   0.100000E-03
 Iteration #          6
  pAp =  0.007617942420923347  rzold =  0.0025132686949081422  alpha =  0.32991437267958723
 delta_qm =   0.861247E-03 delta_en =   0.128174E+01 tol =   0.100000E-03
 Iteration #          7
  pAp =  0.0029686711074473587  rzold =  0.0010783539842829759  alpha =  0.3632446792700486
 delta_qm =   0.592052E-03 delta_en =   0.605707E+00 tol =   0.100000E-03
 Iteration #          8
  pAp =  0.0013177466071110616  rzold =  0.0005509951333305083  alpha =  0.4181343593351932
 delta_qm =   0.377547E-03 delta_en =   0.246312E+00 tol =   0.100000E-03
 Iteration #          9
  pAp =  0.0013939923925436212  rzold =  0.000450865782009979  alpha =  0.3234348942086285
 delta_qm =   0.306358E-03 delta_en =   0.162182E+00 tol =   0.100000E-03
 Iteration #         10
  pAp =  0.0024812485792859115  rzold =  0.0005036214805669622  alpha =  0.20297098999726237
 delta_qm =   0.142733E-03 delta_en =   0.352042E-01 tol =   0.100000E-03
 Iteration #         11
  pAp =  0.00037407383831836573  rzold =  0.00010458773012660987  alpha =  0.2795911379335692
 delta_qm =   0.889791E-04 delta_en =   0.136811E-01 tol =   0.100000E-03
 Iteration #         12
  pAp =  0.0001375406990703337  rzold =  0.0000309178360770509  alpha =  0.2247904531969883
 delta_qm =   0.620857E-04 delta_en =   0.666081E-02 tol =   0.100000E-03
 Iteration #         13
  pAp =  0.000014721504294002152  rzold =  0.000005028893971896878  alpha =  0.3416019091164314
 delta_qm =   0.431058E-04 delta_en =   0.321082E-02 tol =   0.100000E-03
 Iteration #         14
  pAp =  0.000005516502677969549  rzold =  0.000002231210324262868  alpha =  0.404461024404706
 delta_qm =   0.316863E-04 delta_en =   0.173494E-02 tol =   0.100000E-03
 Iteration #         15
  pAp =  0.0000025837572569065905  rzold =  0.000001208914346840899  alpha =  0.46789006343741235
 delta_qm =   0.186856E-04 delta_en =   0.603335E-03 tol =   0.100000E-03
 Iteration #         16
  pAp =  0.0000017450718176702053  rzold =  6.61502726613286E-7  alpha =  0.3790690560211093
 delta_qm =   0.128059E-04 delta_en =   0.283379E-03 tol =   0.100000E-03
 Iteration #         17
  pAp =  5.301499681260082E-7  rzold =  2.0835009745374432E-7  alpha =  0.3930021880228102
 delta_qm =   0.811934E-05 delta_en =   0.113916E-03 tol =   0.100000E-03
 Iteration #         18
  pAp =  5.388583190740136E-7  rzold =  1.1402195616996218E-7  alpha =  0.21159913864909816
 delta_qm =   0.571760E-05 delta_en =   0.564900E-04 tol =   0.100000E-03
 Charges are converged, EXIT

%%%% ELECTRONS %%%%%%%%%%%%%%%%%%%%%%%%%%%%%%%%%%%%%%%%%%%%%%%%%%%%%%%%%%%%%%%%%
 number of electrons        =         24
 total electronic charge    =     24.0000000
 number of spin components  =  1

%%%% BOUNDARY %%%%%%%%%%%%%%%%%%%%%%%%%%%%%%%%%%%%%%%%%%%%%%%%%%%%%%%%%%%%%%%%%%
 boundary mode              = electronic           
 boundary is built as a function of a smooth density
 function type              =  2 
 using the modified SCCS function with parameters 
 rhomax                     =      0.0035000 
 rhomin                     =      0.0002000 

%%%% DIELECTRIC %%%%%%%%%%%%%%%%%%%%%%%%%%%%%%%%%%%%%%%%%%%%%%%%%%%%%%%%%%%%%%%%%
 dielectric build on homogeneous background
 environment bulk permitt.  =     78.3000000 
 dielectric flags
 need gradient              =  F 
 need factor depend. sqrt   =  T 
 need gradient of logarithm =  T 

%%%% COMPUTE ELECTROSTATIC POTENTIAL %%%%%%%%%%%%%%%%%%%%%%%%%%%%%%%%%%%%%%%%%%%
 Warning: bad guess with residual norm =   0.323602E+04, reset to no guess
 Iteration #          1
  pAp =  96.34980758431848  rzold =  93.26199402090191  alpha =  0.9679520526212329
 delta_qm =   0.421983E-01 delta_en =   0.307705E+04 tol =   0.100000E-03
 Iteration #          2
  pAp =  442.163828964716  rzold =  34.35362922196595  alpha =  0.07769434533440166
 delta_qm =   0.691033E-02 delta_en =   0.825166E+02 tol =   0.100000E-03
 Iteration #          3
  pAp =  2.9744484918086416  rzold =  0.40982109818582857  alpha =  0.13778053286666025
 delta_qm =   0.264905E-02 delta_en =   0.121261E+02 tol =   0.100000E-03
 Iteration #          4
  pAp =  0.2184604747092766  rzold =  0.02982083558372195  alpha =  0.13650448953480945
 delta_qm =   0.213064E-02 delta_en =   0.784444E+01 tol =   0.100000E-03
 Iteration #          5
  pAp =  0.03410223706113919  rzold =  0.006624758268144203  alpha =  0.1942616918728
 delta_qm =   0.161396E-02 delta_en =   0.450119E+01 tol =   0.100000E-03
 Iteration #          6
  pAp =  0.00864222628937367  rzold =  0.002670988737510902  alpha =  0.3090625780992455
 delta_qm =   0.104454E-02 delta_en =   0.188536E+01 tol =   0.100000E-03
 Iteration #          7
  pAp =  0.0037513086393541097  rzold =  0.0012630082135888772  alpha =  0.33668469726509587
 delta_qm =   0.765841E-03 delta_en =   0.101349E+01 tol =   0.100000E-03
 Iteration #          8
  pAp =  0.0021841997988267165  rzold =  0.0006693488591882762  alpha =  0.3064503803854526
 delta_qm =   0.501429E-03 delta_en =   0.434473E+00 tol =   0.100000E-03
 Iteration #          9
  pAp =  0.0029465681344460737  rzold =  0.0006720916266724591  alpha =  0.22809302076390162
 delta_qm =   0.469789E-03 delta_en =   0.381372E+00 tol =   0.100000E-03
 Iteration #         10
  pAp =  0.0014357126960423217  rzold =  0.0005167435578254758  alpha =  0.35992128456475203
 delta_qm =   0.221976E-03 delta_en =   0.851441E-01 tol =   0.100000E-03
 Iteration #         11
  pAp =  0.0006465967950182135  rzold =  0.00018931837750496637  alpha =  0.29279201345195904
 delta_qm =   0.138493E-03 delta_en =   0.331438E-01 tol =   0.100000E-03
 Iteration #         12
  pAp =  0.0002991002087934751  rzold =  0.00006556964035894695  alpha =  0.21922298424145187
 delta_qm =   0.989576E-04 delta_en =   0.169216E-01 tol =   0.100000E-03
 Iteration #         13
  pAp =  0.00003716459722627597  rzold =  0.00001123769328258605  alpha =  0.30237629683339656
 delta_qm =   0.721720E-04 delta_en =   0.900081E-02 tol =   0.100000E-03
 Iteration #         14
  pAp =  0.000012449943297534506  rzold =  0.000004733890334003105  alpha =  0.38023388708449535
 delta_qm =   0.561024E-04 delta_en =   0.543885E-02 tol =   0.100000E-03
 Iteration #         15
  pAp =  0.000005614398339309001  rzold =  0.0000026740890130920918  alpha =  0.4762912874153508
 delta_qm =   0.326982E-04 delta_en =   0.184753E-02 tol =   0.100000E-03
 Iteration #         16
  pAp =  0.000004762750817437037  rzold =  0.0000017934204814074486  alpha =  0.37655139858283326
 delta_qm =   0.226194E-04 delta_en =   0.884110E-03 tol =   0.100000E-03
 Iteration #         17
  pAp =  0.0000014475975420082248  rzold =  5.599468682970403E-7  alpha =  0.3868111488502782
 delta_qm =   0.148536E-04 delta_en =   0.381247E-03 tol =   0.100000E-03
 Iteration #         18
  pAp =  0.0000013809762846726443  rzold =  2.825517367279777E-7  alpha =  0.20460288845217617
 delta_qm =   0.106544E-04 delta_en =   0.196156E-03 tol =   0.100000E-03
 Iteration #         19
  pAp =  4.2160722061263585E-7  rzold =  1.3451054729208034E-7  alpha =  0.3190423235556155
 delta_qm =   0.620969E-05 delta_en =   0.666321E-04 tol =   0.100000E-03
 Charges are converged, EXIT

%%%% ELECTRONS %%%%%%%%%%%%%%%%%%%%%%%%%%%%%%%%%%%%%%%%%%%%%%%%%%%%%%%%%%%%%%%%%
 number of electrons        =         24
 total electronic charge    =     24.0000000
 number of spin components  =  1

%%%% BOUNDARY %%%%%%%%%%%%%%%%%%%%%%%%%%%%%%%%%%%%%%%%%%%%%%%%%%%%%%%%%%%%%%%%%%
 boundary mode              = electronic           
 boundary is built as a function of a smooth density
 function type              =  2 
 using the modified SCCS function with parameters 
 rhomax                     =      0.0035000 
 rhomin                     =      0.0002000 

%%%% DIELECTRIC %%%%%%%%%%%%%%%%%%%%%%%%%%%%%%%%%%%%%%%%%%%%%%%%%%%%%%%%%%%%%%%%%
 dielectric build on homogeneous background
 environment bulk permitt.  =     78.3000000 
 dielectric flags
 need gradient              =  F 
 need factor depend. sqrt   =  T 
 need gradient of logarithm =  T 
