
     Program PWSCF v.6.7MaX starts on  1Oct2021 at 21: 4:47 

     This program is part of the open-source Quantum ESPRESSO suite
     for quantum simulation of materials; please cite
         "P. Giannozzi et al., J. Phys.:Condens. Matter 21 395502 (2009);
         "P. Giannozzi et al., J. Phys.:Condens. Matter 29 465901 (2017);
          URL http://www.quantum-espresso.org", 
     in publications or presentations arising from this work. More details at
     http://www.quantum-espresso.org/quote

     Parallel version (MPI), running on     1 processors

     MPI processes distributed on     1 nodes
     Reading input from neutral.in

     Current dimensions of program PWSCF are:
     Max number of different atomic species (ntypx) = 10
     Max number of k-points (npk) =  40000
     Max angular momentum in pseudopotentials (lmaxx) =  3

     Reading input from environ.in

     ================================================================================

     Reading ENVIRON namelist

     Reading BOUNDARY namelist

     Checking boundary derivatives
     derivatives               = chain          ! SCCS default

     Setting up water environment (solvent mode = electronic)
     env_static_permittivity   = 78.3D0         
     env_optical_permittivity  = 1.D0           
     env_surface_tension       = 50.D0          
     env_pressure              = -0.35D0        
     rhomax                    = 0.005          
     rhomin                    = 0.0001         

     Reading ELECTROSTATIC namelist

     Setting up electrostatic problem
     problem                   = generalized    
     solver                    = cg             

     Checking PBC correction
     pbc_correction            = none           ! default

     ================================================================================
 
     file C.pbe-rrkjus.UPF: wavefunction(s)  2S 2P renormalized
     file H.pbe-rrkjus.UPF: wavefunction(s)  1S renormalized
     file N.pbe-rrkjus.UPF: wavefunction(s)  2S renormalized
     file O.pbe-rrkjus.UPF: wavefunction(s)  2S renormalized

     gamma-point specific algorithms are used

     Subspace diagonalization in iterative solution of the eigenvalue problem:
     a serial algorithm will be used

 
     G-vector sticks info
     --------------------
     sticks:   dense  smooth     PW     G-vecs:    dense   smooth      PW
     Sum        9549    3809    949               701475   177509   22119
 


     bravais-lattice index     =            1
     lattice parameter (alat)  =      20.0000  a.u.
     unit-cell volume          =    8000.0000 (a.u.)^3
     number of atoms/cell      =            9
     number of atomic types    =            4
     number of electrons       =        24.00
     number of Kohn-Sham states=           12
     kinetic-energy cutoff     =      30.0000  Ry
     charge density cutoff     =     300.0000  Ry
     scf convergence threshold =      1.0E-03
     mixing beta               =       0.7000
     number of iterations used =            8  plain     mixing
     Exchange-correlation= SLA  PW   PBE  PBE
                           (   1   4   3   4   0   0   0)
 

     Environ Module
     ==============

     Please cite
         O. Andreussi, I. Dabo and N. Marzari, J. Chem. Phys. 136, 064102 (2012)         
     in publications or presentations arising from this work.

     compensation onset threshold      =               0.1000E+03
     static permittivity               =                    78.30
     epsilon calculation mode          =               electronic
     surface tension in input (dyn/cm) =                    50.00
     surface tension in internal units =               0.6423E-04
     external pressure in input (GPa)  =                    -0.35
     external pressure in inter. units =              -0.2379E-04

     Electrostatic Setup
     -------------------
     electrostatic problem to solve    = generalized             
     numerical solver adopted          = cg                      
     type of auxiliary density adopted = none                    
     type of core tool for poisson     = fft                     



     celldm(1)=  20.000000  celldm(2)=   0.000000  celldm(3)=   0.000000
     celldm(4)=   0.000000  celldm(5)=   0.000000  celldm(6)=   0.000000

     crystal axes: (cart. coord. in units of alat)
               a(1) = (   1.000000   0.000000   0.000000 )  
               a(2) = (   0.000000   1.000000   0.000000 )  
               a(3) = (   0.000000   0.000000   1.000000 )  

     reciprocal axes: (cart. coord. in units 2 pi/alat)
               b(1) = (  1.000000  0.000000  0.000000 )  
               b(2) = (  0.000000  1.000000  0.000000 )  
               b(3) = (  0.000000  0.000000  1.000000 )  


     PseudoPot. # 1 for C  read from file:
     /home/simplogic86/Work/QE1/Environ/tests/../..//pseudo/C.pbe-rrkjus.UPF
     MD5 check sum: c9ac5a99bc85b198593446162950cd17
     Pseudo is Ultrasoft, Zval =  4.0
     Generated by new atomic code, or converted to UPF format
     Using radial grid of  627 points,  4 beta functions with: 
                l(1) =   0
                l(2) =   0
                l(3) =   1
                l(4) =   1
     Q(r) pseudized with 0 coefficients 


     PseudoPot. # 2 for H  read from file:
     /home/simplogic86/Work/QE1/Environ/tests/../..//pseudo/H.pbe-rrkjus.UPF
     MD5 check sum: 2d52a7f45632fd764c17cc6affed14c8
     Pseudo is Ultrasoft, Zval =  1.0
     Generated by new atomic code, or converted to UPF format
     Using radial grid of 1061 points,  2 beta functions with: 
                l(1) =   0
                l(2) =   0
     Q(r) pseudized with 0 coefficients 


     PseudoPot. # 3 for N  read from file:
     /home/simplogic86/Work/QE1/Environ/tests/../..//pseudo/N.pbe-rrkjus.UPF
     MD5 check sum: 28c76d763763edb36c62a6ca2be9aebd
     Pseudo is Ultrasoft, Zval =  5.0
     Generated by new atomic code, or converted to UPF format
     Using radial grid of 1257 points,  4 beta functions with: 
                l(1) =   0
                l(2) =   0
                l(3) =   1
                l(4) =   1
     Q(r) pseudized with 0 coefficients 


     PseudoPot. # 4 for O  read from file:
     /home/simplogic86/Work/QE1/Environ/tests/../..//pseudo/O.pbe-rrkjus.UPF
     MD5 check sum: fadcf19ee70a498d3030e2e79cf929a4
     Pseudo is Ultrasoft, Zval =  6.0
     Generated by new atomic code, or converted to UPF format
     Using radial grid of 1269 points,  4 beta functions with: 
                l(1) =   0
                l(2) =   0
                l(3) =   1
                l(4) =   1
     Q(r) pseudized with 0 coefficients 


     atomic species   valence    mass     pseudopotential
        C              4.00    12.00000     C ( 1.00)
        H              1.00     1.00000     H ( 1.00)
        N              5.00    14.00000     N ( 1.00)
        O              6.00    16.00000     O ( 1.00)

     No symmetry found



   Cartesian axes

     site n.     atom                  positions (alat units)
         1           C   tau(   1) = (   0.0000000   0.0000000   0.0000000  )
         2           C   tau(   2) = (   0.0000000   0.0000000   0.1455089  )
         3           N   tau(   3) = (   0.1170969   0.0000000  -0.0545024  )
         4           H   tau(   4) = (   0.0476617  -0.0825466   0.1792090  )
         5           H   tau(   5) = (  -0.0953183  -0.0000030   0.1792090  )
         6           H   tau(   6) = (   0.0476566   0.0825496   0.1792090  )
         7           O   tau(   7) = (  -0.0984002  -0.0000019  -0.0641310  )
         8           H   tau(   8) = (   0.1263131  -0.0000015  -0.1475548  )
         9           H   tau(   9) = (   0.1944645   0.0000134  -0.0025716  )

     number of k points=     1
                       cart. coord. in units 2pi/alat
        k(    1) = (   0.0000000   0.0000000   0.0000000), wk =   2.0000000

     Dense  grid:   350738 G-vectors     FFT dimensions: ( 120, 120, 120)

     Smooth grid:    88755 G-vectors     FFT dimensions: (  72,  72,  72)

     Estimated max dynamical RAM per process >     607.72 MB

     Initial potential from superposition of free atoms

     starting charge   23.51886, renormalised to   24.00000

     negative rho (up, down):  5.411E-04 0.000E+00
     Starting wfcs are   21 randomized atomic wfcs

     total cpu time spent up to now is        6.0 secs

     Self-consistent Calculation

     iteration #  1     ecut=    30.00 Ry     beta= 0.70
     Davidson diagonalization with overlap
     ethr =  1.00E-02,  avg # of iterations =  2.0

     negative rho (up, down):  1.647E-04 0.000E+00

     add environment contribution to local potential
     Polarization accuracy = 2.5E-06, # of iterations =  14

     total cpu time spent up to now is       10.3 secs

     total energy              =     -79.62176523 Ry
     estimated scf accuracy    <       2.84608879 Ry
     electrostatic embedding   =       0.00000000 Ry
     cavitation energy         =       0.05549959 Ry
     PV energy                 =      -0.05773003 Ry
     correction to one-el term =       0.00000000 Ry

     iteration #  2     ecut=    30.00 Ry     beta= 0.70
     Davidson diagonalization with overlap
     ethr =  1.00E-02,  avg # of iterations =  5.0

     negative rho (up, down):  1.294E-03 0.000E+00

     add environment contribution to local potential
     Polarization accuracy = 8.4E-06, # of iterations =  15

     total cpu time spent up to now is       15.9 secs

     total energy              =     -80.10711774 Ry
     estimated scf accuracy    <       1.51815962 Ry
     electrostatic embedding   =      -0.03550579 Ry
     cavitation energy         =       0.03083457 Ry
     PV energy                 =      -0.02272835 Ry
     correction to one-el term =      -1.21061781 Ry

     iteration #  3     ecut=    30.00 Ry     beta= 0.70
     Davidson diagonalization with overlap
     ethr =  6.33E-03,  avg # of iterations =  4.0

     negative rho (up, down):  2.856E-04 0.000E+00

     add environment contribution to local potential
     Polarization accuracy = 7.4E-06, # of iterations =  15

     total cpu time spent up to now is       21.4 secs

     total energy              =     -80.45318196 Ry
     estimated scf accuracy    <       0.14895828 Ry
     electrostatic embedding   =      -0.04904988 Ry
     cavitation energy         =       0.02959853 Ry
     PV energy                 =      -0.02074531 Ry
     correction to one-el term =      -0.65996692 Ry

     iteration #  4     ecut=    30.00 Ry     beta= 0.70
     Davidson diagonalization with overlap
     ethr =  6.21E-04,  avg # of iterations =  4.0

     negative rho (up, down):  1.597E-04 0.000E+00

     add environment contribution to local potential
     Polarization accuracy = 5.7E-06, # of iterations =  16

     total cpu time spent up to now is       25.8 secs

     total energy              =     -80.49495890 Ry
     estimated scf accuracy    <       0.02073934 Ry
     electrostatic embedding   =      -0.04014639 Ry
     cavitation energy         =       0.02857339 Ry
     PV energy                 =      -0.01956243 Ry
     correction to one-el term =      -0.39848458 Ry

     iteration #  5     ecut=    30.00 Ry     beta= 0.70
     Davidson diagonalization with overlap
     ethr =  8.64E-05,  avg # of iterations =  2.0

     negative rho (up, down):  9.034E-05 0.000E+00

     add environment contribution to local potential
     Polarization accuracy = 5.5E-06, # of iterations =  16

     total cpu time spent up to now is       31.1 secs

     total energy              =     -80.49951673 Ry
     estimated scf accuracy    <       0.00176244 Ry
     electrostatic embedding   =      -0.04633603 Ry
     cavitation energy         =       0.02786327 Ry
     PV energy                 =      -0.01863048 Ry
     correction to one-el term =      -0.14790913 Ry

     iteration #  6     ecut=    30.00 Ry     beta= 0.70
     Davidson diagonalization with overlap
     ethr =  7.34E-06,  avg # of iterations =  2.0

     negative rho (up, down):  2.236E-04 0.000E+00

     the potential shift due to the Gaussian-smeared nuclei is    -0.0641 ev

     total cpu time spent up to now is       34.0 secs

     End of self-consistent calculation

          k = 0.0000 0.0000 0.0000 ( 11060 PWs)   bands (ev):

   -25.3648 -22.0127 -17.6425 -14.0643 -12.6620 -10.9509 -10.4170  -9.3227
    -9.1322  -8.4960  -6.1083  -5.5352

     highest occupied level (ev):    -5.5352

!    total energy              =     -80.50009126 Ry
     estimated scf accuracy    <       0.00021802 Ry

     The total energy is the sum of the following terms:
     one-electron contribution =    -236.05606882 Ry
     hartree contribution      =     121.65765827 Ry
     xc contribution           =     -22.70710375 Ry
     ewald contribution        =      56.74764075 Ry
     electrostatic embedding   =      -0.04715659 Ry
     cavitation energy         =       0.02782631 Ry
     PV energy                 =      -0.01858306 Ry
     correction to one-el term =      -0.10430438 Ry

     convergence has been achieved in   6 iterations

     Forces acting on atoms (cartesian axes, Ry/au):

     atom    1 type  1   force =     0.02505215   -0.00000079    0.00857407
     atom    2 type  1   force =    -0.00769042   -0.00000774   -0.06123583
     atom    3 type  3   force =    -0.06719926   -0.00001012    0.03169862
     atom    4 type  2   force =     0.02019610   -0.02847570    0.01361777
     atom    5 type  2   force =    -0.03087323    0.00000700    0.00878370
     atom    6 type  2   force =     0.02018924    0.02848527    0.01361651
     atom    7 type  4   force =    -0.00194937   -0.00001504    0.00220616
     atom    8 type  2   force =     0.00105817    0.00000786   -0.04542611
     atom    9 type  2   force =     0.04121662    0.00000925    0.02816511

     Total force =     0.135775     Total SCF correction =     0.014963
     SCF correction compared to forces is large: reduce conv_thr to get better values

     Writing output data file /home/simplogic86/Work/QE1/Environ/tests/../..//tempdir/pwscf.save/
 
     init_run     :      5.60s CPU      5.89s WALL (       1 calls)
     electrons    :     25.60s CPU     28.08s WALL (       1 calls)
     forces       :      0.97s CPU      1.07s WALL (       1 calls)

     Called by init_run:
     wfcinit      :      0.10s CPU      0.10s WALL (       1 calls)
     potinit      :      1.47s CPU      1.55s WALL (       1 calls)
     hinit0       :      3.38s CPU      3.40s WALL (       1 calls)

     Called by electrons:
     c_bands      :      1.20s CPU      1.33s WALL (       6 calls)
     sum_band     :      2.57s CPU      3.07s WALL (       6 calls)
     v_of_rho     :      2.91s CPU      3.27s WALL (       7 calls)
     newd         :      2.08s CPU      2.59s WALL (       7 calls)
     mix_rho      :      0.27s CPU      0.29s WALL (       6 calls)

     Called by c_bands:
     init_us_2    :      0.04s CPU      0.04s WALL (      13 calls)
     regterg      :      1.12s CPU      1.22s WALL (       6 calls)

     Called by *egterg:
     rdiaghg      :      0.01s CPU      0.01s WALL (      25 calls)
     h_psi        :      1.10s CPU      1.14s WALL (      26 calls)
     s_psi        :      0.02s CPU      0.02s WALL (      26 calls)
     g_psi        :      0.00s CPU      0.00s WALL (      19 calls)

     Called by h_psi:
     h_psi:calbec :      0.03s CPU      0.03s WALL (      26 calls)
     vloc_psi     :      1.04s CPU      1.08s WALL (      26 calls)
     add_vuspsi   :      0.03s CPU      0.03s WALL (      26 calls)

     General routines
     calbec       :      0.03s CPU      0.06s WALL (      36 calls)
     fft          :      1.36s CPU      1.39s WALL (      77 calls)
     ffts         :      0.05s CPU      0.05s WALL (      13 calls)
     fftw         :      0.87s CPU      0.90s WALL (     278 calls)
     interpolate  :      0.20s CPU      0.21s WALL (       7 calls)
 
     Parallel routines
 
     Environ routines
 
     PWSCF        :     32.26s CPU     35.16s WALL

 
   This run was terminated on:  21: 5:22   1Oct2021            

=------------------------------------------------------------------------------=
   JOB DONE.
=------------------------------------------------------------------------------=

%%%% CELL %%%%%%%%%%%%%%%%%%%%%%%%%%%%%%%%%%%%%%%%%%%%%%%%%%%%%%%%%%%%%%%%%%%%%%

 cell label                 = system         

 cell volume                =    8000.000000

%%%% IONS %%%%%%%%%%%%%%%%%%%%%%%%%%%%%%%%%%%%%%%%%%%%%%%%%%%%%%%%%%%%%%%%%%%%%%

 total charge               =    -24.0000000
 center of charge           =      0.2632173     0.0000005     0.2601988
 dipole                     =      0.0000000     0.0000000     0.0000000
 quadrupole (pc)            =    -75.9587425    -5.4513517   -95.3140140
 quadrupole (gauss)         =    -78.9587425    -8.4513517   -98.3140140

   i | type | coordinates
 -----------------------------------------------------------------------
   1 |    1 |                      0.0000000     0.0000000     0.0000000
   2 |    1 |                      0.0000000     0.0000000     2.9101782
   3 |    3 |                      2.3419379     0.0000000    -1.0900479
   4 |    2 |                      0.9532347    -1.6509323     3.5841800
   5 |    2 |                     -1.9063663    -0.0000596     3.5841809
   6 |    2 |                      0.9531315     1.6509919     3.5841800
   7 |    4 |                     -1.9680045    -0.0000375    -1.2826193
   8 |    2 |                      2.5262613    -0.0000303    -2.9510950
   9 |    2 |                      3.8892907     0.0002681    -0.0514326

%%%% SYSTEM %%%%%%%%%%%%%%%%%%%%%%%%%%%%%%%%%%%%%%%%%%%%%%%%%%%%%%%%%%%%%%%%%%%%

 system is built from all present ionic types

 system defined dimension   =              0
 system defined axis        =              3

 system center              =      0.2632173     0.0000005     0.2601988
 system width               =      3.9693765

%%%% IONS %%%%%%%%%%%%%%%%%%%%%%%%%%%%%%%%%%%%%%%%%%%%%%%%%%%%%%%%%%%%%%%%%%%%%%

 total charge               =    -24.0000000
 center of charge           =      0.2632173     0.0000005     0.2601988
 dipole                     =      0.0000000     0.0000000     0.0000000
 quadrupole (pc)            =    -75.9587425    -5.4513517   -95.3140140
 quadrupole (gauss)         =    -78.9587425    -8.4513517   -98.3140140

   i | type | coordinates
 -----------------------------------------------------------------------
   1 |    1 |                      0.0000000     0.0000000     0.0000000
   2 |    1 |                      0.0000000     0.0000000     2.9101782
   3 |    3 |                      2.3419379     0.0000000    -1.0900479
   4 |    2 |                      0.9532347    -1.6509323     3.5841800
   5 |    2 |                     -1.9063663    -0.0000596     3.5841809
   6 |    2 |                      0.9531315     1.6509919     3.5841800
   7 |    4 |                     -1.9680045    -0.0000375    -1.2826193
   8 |    2 |                      2.5262613    -0.0000303    -2.9510950
   9 |    2 |                      3.8892907     0.0002681    -0.0514326

%%%% SYSTEM %%%%%%%%%%%%%%%%%%%%%%%%%%%%%%%%%%%%%%%%%%%%%%%%%%%%%%%%%%%%%%%%%%%%

 system is built from all present ionic types

 system defined dimension   =              0
 system defined axis        =              3

 system center              =      0.2632173     0.0000005     0.2601988
 system width               =      3.9693765

%%%% CHARGES %%%%%%%%%%%%%%%%%%%%%%%%%%%%%%%%%%%%%%%%%%%%%%%%%%%%%%%%%%%%%%%%%%%

 total number of charges    =             10

 total charge               =    -24.0000000

%%%% CHARGES %%%%%%%%%%%%%%%%%%%%%%%%%%%%%%%%%%%%%%%%%%%%%%%%%%%%%%%%%%%%%%%%%%%

 total number of charges    =             10

 total charge               =    -24.0000000

%%%% CELL %%%%%%%%%%%%%%%%%%%%%%%%%%%%%%%%%%%%%%%%%%%%%%%%%%%%%%%%%%%%%%%%%%%%%%

 cell label                 = system         

 cell volume                =    8000.000000

%%%% ELECTRONS %%%%%%%%%%%%%%%%%%%%%%%%%%%%%%%%%%%%%%%%%%%%%%%%%%%%%%%%%%%%%%%%%

 number of electrons        =             24

 total electronic charge    =     24.0000000

%%%% ELECTRONS %%%%%%%%%%%%%%%%%%%%%%%%%%%%%%%%%%%%%%%%%%%%%%%%%%%%%%%%%%%%%%%%%

 number of electrons        =             24

 total electronic charge    =     24.0000000

%%%% CHARGES %%%%%%%%%%%%%%%%%%%%%%%%%%%%%%%%%%%%%%%%%%%%%%%%%%%%%%%%%%%%%%%%%%%

 total number of charges    =             33

 total charge               =     -0.0000000

%%%% CHARGES %%%%%%%%%%%%%%%%%%%%%%%%%%%%%%%%%%%%%%%%%%%%%%%%%%%%%%%%%%%%%%%%%%%

 total number of charges    =             33

 total charge               =     -0.0000000

%%%% BOUNDARY %%%%%%%%%%%%%%%%%%%%%%%%%%%%%%%%%%%%%%%%%%%%%%%%%%%%%%%%%%%%%%%%%%

 boundary label             = solvent             
 boundary mode              = electronic          

 boundary is built as a type-2 function of a smooth density

 using the modified SCCS function:
 rhomax                     =      0.0050000
 rhomin                     =      0.0001000

 volume of the QM region    =   2426.3938940

 surface of the QM region   =    864.0691989

%%%% DENSITY %%%%%%%%%%%%%%%%%%%%%%%%%%%%%%%%%%%%%%%%%%%%%%%%%%%%%%%%%%%%%%%%%%%

 density label              = dvtot                                             

 integral of density        =    0.000000000    

%%%% DENSITY %%%%%%%%%%%%%%%%%%%%%%%%%%%%%%%%%%%%%%%%%%%%%%%%%%%%%%%%%%%%%%%%%%%

 density label              = vreference                                        

 integral of density        =    0.000000000    

%%%% DENSITY %%%%%%%%%%%%%%%%%%%%%%%%%%%%%%%%%%%%%%%%%%%%%%%%%%%%%%%%%%%%%%%%%%%

 density label              = velectrostatic                                    

 integral of density        =    0.000000000    

%%%% CHARGES %%%%%%%%%%%%%%%%%%%%%%%%%%%%%%%%%%%%%%%%%%%%%%%%%%%%%%%%%%%%%%%%%%%

 total number of charges    =             33

 total charge               =     -0.0000000

%%%% DENSITY %%%%%%%%%%%%%%%%%%%%%%%%%%%%%%%%%%%%%%%%%%%%%%%%%%%%%%%%%%%%%%%%%%%

 density label              = vsoftcavity                                       

 integral of density        =    0.000000000    

%%%% ELECTRONS %%%%%%%%%%%%%%%%%%%%%%%%%%%%%%%%%%%%%%%%%%%%%%%%%%%%%%%%%%%%%%%%%

 number of electrons        =             24

 total electronic charge    =     24.0000000

%%%% ELECTRONS %%%%%%%%%%%%%%%%%%%%%%%%%%%%%%%%%%%%%%%%%%%%%%%%%%%%%%%%%%%%%%%%%

 number of electrons        =             24

 total electronic charge    =     24.0000000

%%%% CHARGES %%%%%%%%%%%%%%%%%%%%%%%%%%%%%%%%%%%%%%%%%%%%%%%%%%%%%%%%%%%%%%%%%%%

 total number of charges    =             33

 total charge               =      0.0000000

%%%% CHARGES %%%%%%%%%%%%%%%%%%%%%%%%%%%%%%%%%%%%%%%%%%%%%%%%%%%%%%%%%%%%%%%%%%%

 total number of charges    =             33

 total charge               =      0.0000000

%%%% BOUNDARY %%%%%%%%%%%%%%%%%%%%%%%%%%%%%%%%%%%%%%%%%%%%%%%%%%%%%%%%%%%%%%%%%%

 boundary label             = solvent             
 boundary mode              = electronic          

 boundary is built as a type-2 function of a smooth density

 using the modified SCCS function:
 rhomax                     =      0.0050000
 rhomin                     =      0.0001000

 volume of the QM region    =    955.2727599

 surface of the QM region   =    480.0612397

%%%% DENSITY %%%%%%%%%%%%%%%%%%%%%%%%%%%%%%%%%%%%%%%%%%%%%%%%%%%%%%%%%%%%%%%%%%%

 density label              = vreference                                        

 integral of density        =  -0.1247397247E-12

%%%% COMPUTE ELECTROSTATIC POTENTIAL %%%%%%%%%%%%%%%%%%%%%%%%%%%%%%%%%%%%%%%%%%%

   i |      alpha     |       pAp      |      rzold     |    delta_qm    |    delta_en    |       tol
 ---------------------------------------------------------------------------------------------------------
   1 |   0.995576E+00 |   0.898995E+02 |   0.895018E+02 |   0.499236E-02 |   0.430681E+02 |   0.100000E-04
   2 |   0.150548E+00 |   0.134121E+02 |   0.201917E+01 |   0.158009E-02 |   0.431429E+01 |   0.100000E-04
   3 |   0.251041E+00 |   0.234557E+00 |   0.588833E-01 |   0.795383E-03 |   0.109319E+01 |   0.100000E-04
   4 |   0.188592E+00 |   0.559326E-01 |   0.105485E-01 |   0.662728E-03 |   0.758953E+00 |   0.100000E-04
   5 |   0.475755E+00 |   0.259359E-02 |   0.123391E-02 |   0.343792E-03 |   0.204238E+00 |   0.100000E-04
   6 |   0.407252E+00 |   0.138941E-02 |   0.565840E-03 |   0.171778E-03 |   0.509893E-01 |   0.100000E-04
   7 |   0.407093E+00 |   0.337772E-03 |   0.137505E-03 |   0.106212E-03 |   0.194934E-01 |   0.100000E-04
   8 |   0.318035E+00 |   0.261123E-03 |   0.830461E-04 |   0.636057E-04 |   0.699094E-02 |   0.100000E-04
   9 |   0.409264E+00 |   0.720063E-04 |   0.294696E-04 |   0.287717E-04 |   0.143046E-02 |   0.100000E-04
  10 |   0.391178E+00 |   0.139475E-04 |   0.545595E-05 |   0.194892E-04 |   0.656347E-03 |   0.100000E-04
  11 |   0.677556E+00 |   0.139673E-05 |   0.946364E-06 |   0.990177E-05 |   0.169422E-03 |   0.100000E-04
  12 |   0.630941E+00 |   0.630766E-06 |   0.397976E-06 |   0.413734E-05 |   0.295792E-04 |   0.100000E-04
  13 |   0.379288E+00 |   0.345213E-06 |   0.130935E-06 |   0.243251E-05 |   0.102248E-04 |   0.100000E-04
  14 |   0.384509E+00 |   0.760435E-07 |   0.292394E-07 |   0.119566E-05 |   0.247037E-05 |   0.100000E-04

 Charges are converged, EXIT

%%%% DENSITY %%%%%%%%%%%%%%%%%%%%%%%%%%%%%%%%%%%%%%%%%%%%%%%%%%%%%%%%%%%%%%%%%%%

 density label              = velectrostatic                                    

 integral of density        =  -0.5909347086E-12

%%%% CHARGES %%%%%%%%%%%%%%%%%%%%%%%%%%%%%%%%%%%%%%%%%%%%%%%%%%%%%%%%%%%%%%%%%%%

 total number of charges    =             33

 total charge               =      0.0000000

%%%% DENSITY %%%%%%%%%%%%%%%%%%%%%%%%%%%%%%%%%%%%%%%%%%%%%%%%%%%%%%%%%%%%%%%%%%%

 density label              = vsoftcavity                                       

 integral of density        =    6.952891955    

%%%% DENSITY %%%%%%%%%%%%%%%%%%%%%%%%%%%%%%%%%%%%%%%%%%%%%%%%%%%%%%%%%%%%%%%%%%%

 density label              = dvtot                                             

 integral of density        =    6.952891955    

%%%% ELECTRONS %%%%%%%%%%%%%%%%%%%%%%%%%%%%%%%%%%%%%%%%%%%%%%%%%%%%%%%%%%%%%%%%%

 number of electrons        =             24

 total electronic charge    =     24.0000000

%%%% ELECTRONS %%%%%%%%%%%%%%%%%%%%%%%%%%%%%%%%%%%%%%%%%%%%%%%%%%%%%%%%%%%%%%%%%

 number of electrons        =             24

 total electronic charge    =     24.0000000

%%%% CHARGES %%%%%%%%%%%%%%%%%%%%%%%%%%%%%%%%%%%%%%%%%%%%%%%%%%%%%%%%%%%%%%%%%%%

 total number of charges    =             33

 total charge               =     -0.0000000

%%%% CHARGES %%%%%%%%%%%%%%%%%%%%%%%%%%%%%%%%%%%%%%%%%%%%%%%%%%%%%%%%%%%%%%%%%%%

 total number of charges    =             33

 total charge               =     -0.0000000

%%%% BOUNDARY %%%%%%%%%%%%%%%%%%%%%%%%%%%%%%%%%%%%%%%%%%%%%%%%%%%%%%%%%%%%%%%%%%

 boundary label             = solvent             
 boundary mode              = electronic          

 boundary is built as a type-2 function of a smooth density

 using the modified SCCS function:
 rhomax                     =      0.0050000
 rhomin                     =      0.0001000

 volume of the QM region    =    871.9255598

 surface of the QM region   =    460.8174693

%%%% DENSITY %%%%%%%%%%%%%%%%%%%%%%%%%%%%%%%%%%%%%%%%%%%%%%%%%%%%%%%%%%%%%%%%%%%

 density label              = vreference                                        

 integral of density        =   0.4495498624E-12

%%%% COMPUTE ELECTROSTATIC POTENTIAL %%%%%%%%%%%%%%%%%%%%%%%%%%%%%%%%%%%%%%%%%%%

 Warning: Bad guess with residual norm =   0.194511E+03, reset to no guess

   i |      alpha     |       pAp      |      rzold     |    delta_qm    |    delta_en    |       tol
 ---------------------------------------------------------------------------------------------------------
   1 |   0.992804E+00 |   0.918117E+02 |   0.911510E+02 |   0.105450E-01 |   0.192147E+03 |   0.100000E-04
   2 |   0.137819E+00 |   0.286818E+02 |   0.395290E+01 |   0.209612E-02 |   0.759237E+01 |   0.100000E-04
   3 |   0.264928E+00 |   0.137591E+00 |   0.364518E-01 |   0.149736E-02 |   0.387431E+01 |   0.100000E-04
   4 |   0.228871E+00 |   0.216507E-01 |   0.495522E-02 |   0.959051E-03 |   0.158938E+01 |   0.100000E-04
   5 |   0.338508E+00 |   0.587167E-02 |   0.198761E-02 |   0.787707E-03 |   0.107219E+01 |   0.100000E-04
   6 |   0.381841E+00 |   0.276003E-02 |   0.105389E-02 |   0.418439E-03 |   0.302558E+00 |   0.100000E-04
   7 |   0.540277E+00 |   0.471872E-03 |   0.254942E-03 |   0.219156E-03 |   0.829948E-01 |   0.100000E-04
   8 |   0.273789E+00 |   0.715071E-03 |   0.195778E-03 |   0.116227E-03 |   0.233432E-01 |   0.100000E-04
   9 |   0.316207E+00 |   0.233629E-03 |   0.738753E-04 |   0.612329E-04 |   0.647907E-02 |   0.100000E-04
  10 |   0.365424E+00 |   0.311538E-04 |   0.113843E-04 |   0.362909E-04 |   0.227582E-02 |   0.100000E-04
  11 |   0.525077E+00 |   0.381073E-05 |   0.200093E-05 |   0.234083E-04 |   0.946855E-03 |   0.100000E-04
  12 |   0.615248E+00 |   0.157804E-05 |   0.970887E-06 |   0.121564E-04 |   0.255359E-03 |   0.100000E-04
  13 |   0.369344E+00 |   0.159061E-05 |   0.587481E-06 |   0.754992E-05 |   0.984984E-04 |   0.100000E-04
  14 |   0.464858E+00 |   0.272117E-06 |   0.126496E-06 |   0.385142E-05 |   0.256321E-04 |   0.100000E-04
  15 |   0.398372E+00 |   0.597404E-07 |   0.237989E-07 |   0.220524E-05 |   0.840339E-05 |   0.100000E-04

 Charges are converged, EXIT

%%%% DENSITY %%%%%%%%%%%%%%%%%%%%%%%%%%%%%%%%%%%%%%%%%%%%%%%%%%%%%%%%%%%%%%%%%%%

 density label              = velectrostatic                                    

 integral of density        =   0.3654031810E-12

%%%% CHARGES %%%%%%%%%%%%%%%%%%%%%%%%%%%%%%%%%%%%%%%%%%%%%%%%%%%%%%%%%%%%%%%%%%%

 total number of charges    =             33

 total charge               =     -0.0000000

%%%% DENSITY %%%%%%%%%%%%%%%%%%%%%%%%%%%%%%%%%%%%%%%%%%%%%%%%%%%%%%%%%%%%%%%%%%%

 density label              = vsoftcavity                                       

 integral of density        =    15.92276816    

%%%% DENSITY %%%%%%%%%%%%%%%%%%%%%%%%%%%%%%%%%%%%%%%%%%%%%%%%%%%%%%%%%%%%%%%%%%%

 density label              = dvtot                                             

 integral of density        =    15.92276816    

%%%% ELECTRONS %%%%%%%%%%%%%%%%%%%%%%%%%%%%%%%%%%%%%%%%%%%%%%%%%%%%%%%%%%%%%%%%%

 number of electrons        =             24

 total electronic charge    =     24.0000000

%%%% ELECTRONS %%%%%%%%%%%%%%%%%%%%%%%%%%%%%%%%%%%%%%%%%%%%%%%%%%%%%%%%%%%%%%%%%

 number of electrons        =             24

 total electronic charge    =     24.0000000

%%%% CHARGES %%%%%%%%%%%%%%%%%%%%%%%%%%%%%%%%%%%%%%%%%%%%%%%%%%%%%%%%%%%%%%%%%%%

 total number of charges    =             33

 total charge               =      0.0000000

%%%% CHARGES %%%%%%%%%%%%%%%%%%%%%%%%%%%%%%%%%%%%%%%%%%%%%%%%%%%%%%%%%%%%%%%%%%%

 total number of charges    =             33

 total charge               =      0.0000000

%%%% BOUNDARY %%%%%%%%%%%%%%%%%%%%%%%%%%%%%%%%%%%%%%%%%%%%%%%%%%%%%%%%%%%%%%%%%%

 boundary label             = solvent             
 boundary mode              = electronic          

 boundary is built as a type-2 function of a smooth density

 using the modified SCCS function:
 rhomax                     =      0.0050000
 rhomin                     =      0.0001000

 volume of the QM region    =    822.2090256

 surface of the QM region   =    444.8570300

%%%% DENSITY %%%%%%%%%%%%%%%%%%%%%%%%%%%%%%%%%%%%%%%%%%%%%%%%%%%%%%%%%%%%%%%%%%%

 density label              = vreference                                        

 integral of density        =   0.3748770841E-12

%%%% COMPUTE ELECTROSTATIC POTENTIAL %%%%%%%%%%%%%%%%%%%%%%%%%%%%%%%%%%%%%%%%%%%

 Warning: Bad guess with residual norm =   0.160959E+03, reset to no guess

   i |      alpha     |       pAp      |      rzold     |    delta_qm    |    delta_en    |       tol
 ---------------------------------------------------------------------------------------------------------
   1 |   0.994084E+00 |   0.928667E+02 |   0.923173E+02 |   0.960291E-02 |   0.159349E+03 |   0.100000E-04
   2 |   0.128502E+00 |   0.275491E+02 |   0.354011E+01 |   0.184983E-02 |   0.591296E+01 |   0.100000E-04
   3 |   0.246410E+00 |   0.178401E+00 |   0.439599E-01 |   0.105747E-02 |   0.193232E+01 |   0.100000E-04
   4 |   0.235434E+00 |   0.205952E-01 |   0.484881E-02 |   0.984770E-03 |   0.167577E+01 |   0.100000E-04
   5 |   0.327174E+00 |   0.581778E-02 |   0.190343E-02 |   0.565323E-03 |   0.552251E+00 |   0.100000E-04
   6 |   0.354465E+00 |   0.372154E-02 |   0.131916E-02 |   0.349723E-03 |   0.211345E+00 |   0.100000E-04
   7 |   0.590353E+00 |   0.579781E-03 |   0.342276E-03 |   0.174077E-03 |   0.523630E-01 |   0.100000E-04
   8 |   0.463125E+00 |   0.332794E-03 |   0.154125E-03 |   0.692138E-04 |   0.827807E-02 |   0.100000E-04
   9 |   0.244022E+00 |   0.216245E-03 |   0.527687E-04 |   0.368500E-04 |   0.234648E-02 |   0.100000E-04
  10 |   0.217559E+00 |   0.674963E-04 |   0.146844E-04 |   0.224558E-04 |   0.871364E-03 |   0.100000E-04
  11 |   0.328770E+00 |   0.754497E-05 |   0.248056E-05 |   0.147503E-04 |   0.375962E-03 |   0.100000E-04
  12 |   0.446124E+00 |   0.120556E-05 |   0.537829E-06 |   0.100232E-04 |   0.173602E-03 |   0.100000E-04
  13 |   0.486444E+00 |   0.557213E-06 |   0.271053E-06 |   0.575399E-05 |   0.572114E-04 |   0.100000E-04
  14 |   0.502882E+00 |   0.211653E-06 |   0.106437E-06 |   0.371029E-05 |   0.237881E-04 |   0.100000E-04
  15 |   0.498039E+00 |   0.572626E-07 |   0.285190E-07 |   0.206377E-05 |   0.735982E-05 |   0.100000E-04

 Charges are converged, EXIT

%%%% DENSITY %%%%%%%%%%%%%%%%%%%%%%%%%%%%%%%%%%%%%%%%%%%%%%%%%%%%%%%%%%%%%%%%%%%

 density label              = velectrostatic                                    

 integral of density        =   0.5899478437E-12

%%%% CHARGES %%%%%%%%%%%%%%%%%%%%%%%%%%%%%%%%%%%%%%%%%%%%%%%%%%%%%%%%%%%%%%%%%%%

 total number of charges    =             33

 total charge               =      0.0000000

%%%% DENSITY %%%%%%%%%%%%%%%%%%%%%%%%%%%%%%%%%%%%%%%%%%%%%%%%%%%%%%%%%%%%%%%%%%%

 density label              = vsoftcavity                                       

 integral of density        =    10.52962008    

%%%% DENSITY %%%%%%%%%%%%%%%%%%%%%%%%%%%%%%%%%%%%%%%%%%%%%%%%%%%%%%%%%%%%%%%%%%%

 density label              = dvtot                                             

 integral of density        =    10.52962008    

%%%% ELECTRONS %%%%%%%%%%%%%%%%%%%%%%%%%%%%%%%%%%%%%%%%%%%%%%%%%%%%%%%%%%%%%%%%%

 number of electrons        =             24

 total electronic charge    =     24.0000000

%%%% ELECTRONS %%%%%%%%%%%%%%%%%%%%%%%%%%%%%%%%%%%%%%%%%%%%%%%%%%%%%%%%%%%%%%%%%

 number of electrons        =             24

 total electronic charge    =     24.0000000

%%%% CHARGES %%%%%%%%%%%%%%%%%%%%%%%%%%%%%%%%%%%%%%%%%%%%%%%%%%%%%%%%%%%%%%%%%%%

 total number of charges    =             33

 total charge               =      0.0000000

%%%% CHARGES %%%%%%%%%%%%%%%%%%%%%%%%%%%%%%%%%%%%%%%%%%%%%%%%%%%%%%%%%%%%%%%%%%%

 total number of charges    =             33

 total charge               =      0.0000000

%%%% BOUNDARY %%%%%%%%%%%%%%%%%%%%%%%%%%%%%%%%%%%%%%%%%%%%%%%%%%%%%%%%%%%%%%%%%%

 boundary label             = solvent             
 boundary mode              = electronic          

 boundary is built as a type-2 function of a smooth density

 using the modified SCCS function:
 rhomax                     =      0.0050000
 rhomin                     =      0.0001000

 volume of the QM region    =    783.0393213

 surface of the QM region   =    433.8012297

%%%% DENSITY %%%%%%%%%%%%%%%%%%%%%%%%%%%%%%%%%%%%%%%%%%%%%%%%%%%%%%%%%%%%%%%%%%%

 density label              = vreference                                        

 integral of density        =   0.2561901308E-12

%%%% COMPUTE ELECTROSTATIC POTENTIAL %%%%%%%%%%%%%%%%%%%%%%%%%%%%%%%%%%%%%%%%%%%

 Warning: Bad guess with residual norm =   0.245636E+03, reset to no guess

   i |      alpha     |       pAp      |      rzold     |    delta_qm    |    delta_en    |       tol
 ---------------------------------------------------------------------------------------------------------
   1 |   0.992940E+00 |   0.928733E+02 |   0.922176E+02 |   0.118484E-01 |   0.242585E+03 |   0.100000E-04
   2 |   0.121790E+00 |   0.368259E+02 |   0.448503E+01 |   0.230363E-02 |   0.916999E+01 |   0.100000E-04
   3 |   0.214515E+00 |   0.284643E+00 |   0.610602E-01 |   0.114777E-02 |   0.227641E+01 |   0.100000E-04
   4 |   0.183723E+00 |   0.478960E-01 |   0.879959E-02 |   0.118983E-02 |   0.244631E+01 |   0.100000E-04
   5 |   0.319346E+00 |   0.711960E-02 |   0.227362E-02 |   0.758239E-03 |   0.993474E+00 |   0.100000E-04
   6 |   0.413718E+00 |   0.336921E-02 |   0.139390E-02 |   0.465103E-03 |   0.373802E+00 |   0.100000E-04
   7 |   0.583707E+00 |   0.780628E-03 |   0.455658E-03 |   0.240629E-03 |   0.100055E+00 |   0.100000E-04
   8 |   0.553667E+00 |   0.375555E-03 |   0.207932E-03 |   0.940420E-04 |   0.152822E-01 |   0.100000E-04
   9 |   0.271046E+00 |   0.277527E-03 |   0.752227E-04 |   0.469462E-04 |   0.380842E-02 |   0.100000E-04
  10 |   0.264231E+00 |   0.568410E-04 |   0.150192E-04 |   0.320458E-04 |   0.177454E-02 |   0.100000E-04
  11 |   0.196018E+00 |   0.247241E-04 |   0.484636E-05 |   0.234312E-04 |   0.948710E-03 |   0.100000E-04
  12 |   0.398173E+00 |   0.264358E-05 |   0.105260E-05 |   0.164112E-04 |   0.465397E-03 |   0.100000E-04
  13 |   0.544579E+00 |   0.696749E-06 |   0.379435E-06 |   0.760309E-05 |   0.998905E-04 |   0.100000E-04
  14 |   0.440206E+00 |   0.394608E-06 |   0.173709E-06 |   0.525750E-05 |   0.477641E-04 |   0.100000E-04
  15 |   0.459479E+00 |   0.122758E-06 |   0.564045E-07 |   0.277599E-05 |   0.133162E-04 |   0.100000E-04
  16 |   0.363274E+00 |   0.499279E-07 |   0.181375E-07 |   0.181187E-05 |   0.567283E-05 |   0.100000E-04

 Charges are converged, EXIT

%%%% DENSITY %%%%%%%%%%%%%%%%%%%%%%%%%%%%%%%%%%%%%%%%%%%%%%%%%%%%%%%%%%%%%%%%%%%

 density label              = velectrostatic                                    

 integral of density        =  -0.2186892642E-12

%%%% CHARGES %%%%%%%%%%%%%%%%%%%%%%%%%%%%%%%%%%%%%%%%%%%%%%%%%%%%%%%%%%%%%%%%%%%

 total number of charges    =             33

 total charge               =      0.0000000

%%%% DENSITY %%%%%%%%%%%%%%%%%%%%%%%%%%%%%%%%%%%%%%%%%%%%%%%%%%%%%%%%%%%%%%%%%%%

 density label              = vsoftcavity                                       

 integral of density        =    12.11059384    

%%%% DENSITY %%%%%%%%%%%%%%%%%%%%%%%%%%%%%%%%%%%%%%%%%%%%%%%%%%%%%%%%%%%%%%%%%%%

 density label              = dvtot                                             

 integral of density        =    12.11059384    

%%%% ELECTRONS %%%%%%%%%%%%%%%%%%%%%%%%%%%%%%%%%%%%%%%%%%%%%%%%%%%%%%%%%%%%%%%%%

 number of electrons        =             24

 total electronic charge    =     24.0000000

%%%% ELECTRONS %%%%%%%%%%%%%%%%%%%%%%%%%%%%%%%%%%%%%%%%%%%%%%%%%%%%%%%%%%%%%%%%%

 number of electrons        =             24

 total electronic charge    =     24.0000000

%%%% CHARGES %%%%%%%%%%%%%%%%%%%%%%%%%%%%%%%%%%%%%%%%%%%%%%%%%%%%%%%%%%%%%%%%%%%

 total number of charges    =             33

 total charge               =      0.0000000

%%%% CHARGES %%%%%%%%%%%%%%%%%%%%%%%%%%%%%%%%%%%%%%%%%%%%%%%%%%%%%%%%%%%%%%%%%%%

 total number of charges    =             33

 total charge               =      0.0000000

%%%% BOUNDARY %%%%%%%%%%%%%%%%%%%%%%%%%%%%%%%%%%%%%%%%%%%%%%%%%%%%%%%%%%%%%%%%%%

 boundary label             = solvent             
 boundary mode              = electronic          

 boundary is built as a type-2 function of a smooth density

 using the modified SCCS function:
 rhomax                     =      0.0050000
 rhomin                     =      0.0001000

 volume of the QM region    =    781.0463940

 surface of the QM region   =    433.2258488

%%%% DENSITY %%%%%%%%%%%%%%%%%%%%%%%%%%%%%%%%%%%%%%%%%%%%%%%%%%%%%%%%%%%%%%%%%%%

 density label              = vreference                                        

 integral of density        =  -0.1544772540E-12

%%%% COMPUTE ELECTROSTATIC POTENTIAL %%%%%%%%%%%%%%%%%%%%%%%%%%%%%%%%%%%%%%%%%%%

 Warning: Bad guess with residual norm =   0.254483E+03, reset to no guess

   i |      alpha     |       pAp      |      rzold     |    delta_qm    |    delta_en    |       tol
 ---------------------------------------------------------------------------------------------------------
   1 |   0.992832E+00 |   0.929405E+02 |   0.922743E+02 |   0.120585E-01 |   0.251265E+03 |   0.100000E-04
   2 |   0.121384E+00 |   0.376508E+02 |   0.457022E+01 |   0.238233E-02 |   0.980725E+01 |   0.100000E-04
   3 |   0.210189E+00 |   0.306157E+00 |   0.643509E-01 |   0.116186E-02 |   0.233266E+01 |   0.100000E-04
   4 |   0.179817E+00 |   0.527812E-01 |   0.949094E-02 |   0.121887E-02 |   0.256719E+01 |   0.100000E-04
   5 |   0.321657E+00 |   0.715269E-02 |   0.230071E-02 |   0.781679E-03 |   0.105585E+01 |   0.100000E-04
   6 |   0.417486E+00 |   0.335871E-02 |   0.140221E-02 |   0.478952E-03 |   0.396395E+00 |   0.100000E-04
   7 |   0.575898E+00 |   0.810895E-03 |   0.466993E-03 |   0.249527E-03 |   0.107592E+00 |   0.100000E-04
   8 |   0.490611E+00 |   0.458476E-03 |   0.224933E-03 |   0.122690E-03 |   0.260113E-01 |   0.100000E-04
   9 |   0.190212E+00 |   0.810638E-03 |   0.154193E-03 |   0.611489E-04 |   0.646132E-02 |   0.100000E-04
  10 |   0.258641E+00 |   0.118955E-03 |   0.307668E-04 |   0.375300E-04 |   0.243389E-02 |   0.100000E-04
  11 |   0.294759E+00 |   0.210939E-04 |   0.621762E-05 |   0.255685E-04 |   0.112968E-02 |   0.100000E-04
  12 |   0.425162E+00 |   0.257766E-05 |   0.109592E-05 |   0.181586E-04 |   0.569784E-03 |   0.100000E-04
  13 |   0.526878E+00 |   0.830063E-06 |   0.437342E-06 |   0.838182E-05 |   0.121400E-03 |   0.100000E-04
  14 |   0.443863E+00 |   0.470263E-06 |   0.208732E-06 |   0.563203E-05 |   0.548117E-04 |   0.100000E-04
  15 |   0.486463E+00 |   0.132401E-06 |   0.644081E-07 |   0.292886E-05 |   0.148231E-04 |   0.100000E-04
  16 |   0.472541E+00 |   0.381794E-07 |   0.180413E-07 |   0.179073E-05 |   0.554122E-05 |   0.100000E-04

 Charges are converged, EXIT

%%%% DENSITY %%%%%%%%%%%%%%%%%%%%%%%%%%%%%%%%%%%%%%%%%%%%%%%%%%%%%%%%%%%%%%%%%%%

 density label              = velectrostatic                                    

 integral of density        =   0.4731030382E-12

%%%% CHARGES %%%%%%%%%%%%%%%%%%%%%%%%%%%%%%%%%%%%%%%%%%%%%%%%%%%%%%%%%%%%%%%%%%%

 total number of charges    =             33

 total charge               =      0.0000000

%%%% DENSITY %%%%%%%%%%%%%%%%%%%%%%%%%%%%%%%%%%%%%%%%%%%%%%%%%%%%%%%%%%%%%%%%%%%

 density label              = vsoftcavity                                       

 integral of density        =    12.32172911    

%%%% DENSITY %%%%%%%%%%%%%%%%%%%%%%%%%%%%%%%%%%%%%%%%%%%%%%%%%%%%%%%%%%%%%%%%%%%

 density label              = dvtot                                             

 integral of density        =    12.32172911    

%%%% ELECTRONS %%%%%%%%%%%%%%%%%%%%%%%%%%%%%%%%%%%%%%%%%%%%%%%%%%%%%%%%%%%%%%%%%

 number of electrons        =             24

 total electronic charge    =     24.0000000

%%%% ELECTRONS %%%%%%%%%%%%%%%%%%%%%%%%%%%%%%%%%%%%%%%%%%%%%%%%%%%%%%%%%%%%%%%%%

 number of electrons        =             24

 total electronic charge    =     24.0000000

%%%% CHARGES %%%%%%%%%%%%%%%%%%%%%%%%%%%%%%%%%%%%%%%%%%%%%%%%%%%%%%%%%%%%%%%%%%%

 total number of charges    =             33

 total charge               =      0.0000000

%%%% CHARGES %%%%%%%%%%%%%%%%%%%%%%%%%%%%%%%%%%%%%%%%%%%%%%%%%%%%%%%%%%%%%%%%%%%

 total number of charges    =             33

 total charge               =      0.0000000

%%%% BOUNDARY %%%%%%%%%%%%%%%%%%%%%%%%%%%%%%%%%%%%%%%%%%%%%%%%%%%%%%%%%%%%%%%%%%

 boundary label             = solvent             
 boundary mode              = electronic          

 boundary is built as a type-2 function of a smooth density

 using the modified SCCS function:
 rhomax                     =      0.0050000
 rhomin                     =      0.0001000

 volume of the QM region    =    781.0463940

 surface of the QM region   =    433.2258488

%%%% DENSITY %%%%%%%%%%%%%%%%%%%%%%%%%%%%%%%%%%%%%%%%%%%%%%%%%%%%%%%%%%%%%%%%%%%

 density label              = dvtot                                             

 integral of density        =    12.32172911    

%%%% DENSITY %%%%%%%%%%%%%%%%%%%%%%%%%%%%%%%%%%%%%%%%%%%%%%%%%%%%%%%%%%%%%%%%%%%

 density label              = vreference                                        

 integral of density        =  -0.1544772540E-12

%%%% DENSITY %%%%%%%%%%%%%%%%%%%%%%%%%%%%%%%%%%%%%%%%%%%%%%%%%%%%%%%%%%%%%%%%%%%

 density label              = velectrostatic                                    

 integral of density        =   0.4731030382E-12

%%%% CHARGES %%%%%%%%%%%%%%%%%%%%%%%%%%%%%%%%%%%%%%%%%%%%%%%%%%%%%%%%%%%%%%%%%%%

 total number of charges    =             33

 total charge               =      0.0000000

%%%% DENSITY %%%%%%%%%%%%%%%%%%%%%%%%%%%%%%%%%%%%%%%%%%%%%%%%%%%%%%%%%%%%%%%%%%%

 density label              = vsoftcavity                                       

 integral of density        =    12.32172911    
