
     Program PWSCF v.6.1 (svn rev. 13369) starts on  7Nov2017 at 16:56:23 

     This program is part of the open-source Quantum ESPRESSO suite
     for quantum simulation of materials; please cite
         "P. Giannozzi et al., J. Phys.:Condens. Matter 21 395502 (2009);
          URL http://www.quantum-espresso.org", 
     in publications or presentations arising from this work. More details at
     http://www.quantum-espresso.org/quote

     Serial version
     Reading input from neutral.in

     Current dimensions of program PWSCF are:
     Max number of different atomic species (ntypx) = 10
     Max number of k-points (npk) =  40000
     Max angular momentum in pseudopotentials (lmaxx) =  3
               file C.pbe-rrkjus.UPF: wavefunction(s)  2S 2P renormalized
               file H.pbe-rrkjus.UPF: wavefunction(s)  1S renormalized
               file N.pbe-rrkjus.UPF: wavefunction(s)  2S renormalized
               file O.pbe-rrkjus.UPF: wavefunction(s)  2S renormalized

     gamma-point specific algorithms are used

     G-vector sticks info
     --------------------
     sticks:   dense  smooth     PW     G-vecs:    dense   smooth      PW
     Sum        9549    3809    949               701475   177509   22119



     bravais-lattice index     =            1
     lattice parameter (alat)  =      20.0000  a.u.
     unit-cell volume          =    8000.0000 (a.u.)^3
     number of atoms/cell      =            9
     number of atomic types    =            4
     number of electrons       =        24.00
     number of Kohn-Sham states=           12
     kinetic-energy cutoff     =      30.0000  Ry
     charge density cutoff     =     300.0000  Ry
     convergence threshold     =      5.0E-03
     mixing beta               =       0.7000
     number of iterations used =            8  plain     mixing
     Exchange-correlation      =  SLA  PW   PBE  PBE ( 1  4  3  4 0 0)


     Environ Module
     ==============

     Plese cite
         O. Andreussi, I. Dabo and N. Marzari, J. Chem. Phys. 136, 064102 (2012)         
     in publications or presentations arising from this work.

     compensation onset threshold      =               0.1000E+03 
     static permittivity               =                    78.30 
     epsilon calculation mode          =               electronic 
     surface tension in input (dyn/cm) =                    50.00 
     surface tension in internal units =               0.6423E-04 
     external pressure in input (GPa)  =                    -0.35 
     external pressure in inter. units =              -0.2379E-04 

     Electrostatic Setup
     -------------------
     electrostatic problem to solve    = generalized              
     numerical solver adopted          = cg                       
     type of auxiliary density adopted = none                     
     type of core tool for poisson     = fft                      
     type of core tool for s(r) deriv  = analytic                 



     celldm(1)=  20.000000  celldm(2)=   0.000000  celldm(3)=   0.000000
     celldm(4)=   0.000000  celldm(5)=   0.000000  celldm(6)=   0.000000

     crystal axes: (cart. coord. in units of alat)
               a(1) = (   1.000000   0.000000   0.000000 )  
               a(2) = (   0.000000   1.000000   0.000000 )  
               a(3) = (   0.000000   0.000000   1.000000 )  

     reciprocal axes: (cart. coord. in units 2 pi/alat)
               b(1) = (  1.000000  0.000000  0.000000 )  
               b(2) = (  0.000000  1.000000  0.000000 )  
               b(3) = (  0.000000  0.000000  1.000000 )  


     PseudoPot. # 1 for C  read from file:
     /Users/oliviero/PWSCF/espresso-6.1-Environ-1.0/Environ/tests/../..//pseudo/C.pbe-rrkjus.UPF
     MD5 check sum: 00fb224312de0c5b6853bd333518df6f
     Pseudo is Ultrasoft, Zval =  4.0
     Generated by new atomic code, or converted to UPF format
     Using radial grid of  627 points,  4 beta functions with: 
                l(1) =   0
                l(2) =   0
                l(3) =   1
                l(4) =   1
     Q(r) pseudized with 0 coefficients 


     PseudoPot. # 2 for H  read from file:
     /Users/oliviero/PWSCF/espresso-6.1-Environ-1.0/Environ/tests/../..//pseudo/H.pbe-rrkjus.UPF
     MD5 check sum: 7cc9d459525c9a0585f487a71c3c9563
     Pseudo is Ultrasoft, Zval =  1.0
     Generated by new atomic code, or converted to UPF format
     Using radial grid of 1061 points,  2 beta functions with: 
                l(1) =   0
                l(2) =   0
     Q(r) pseudized with 0 coefficients 


     PseudoPot. # 3 for N  read from file:
     /Users/oliviero/PWSCF/espresso-6.1-Environ-1.0/Environ/tests/../..//pseudo/N.pbe-rrkjus.UPF
     MD5 check sum: 0c3fbe5807a93f9ba59d5a7019aa238b
     Pseudo is Ultrasoft, Zval =  5.0
     Generated by new atomic code, or converted to UPF format
     Using radial grid of 1257 points,  4 beta functions with: 
                l(1) =   0
                l(2) =   0
                l(3) =   1
                l(4) =   1
     Q(r) pseudized with 0 coefficients 


     PseudoPot. # 4 for O  read from file:
     /Users/oliviero/PWSCF/espresso-6.1-Environ-1.0/Environ/tests/../..//pseudo/O.pbe-rrkjus.UPF
     MD5 check sum: 390ba29e75625707450f3bd3f0eb6be9
     Pseudo is Ultrasoft, Zval =  6.0
     Generated by new atomic code, or converted to UPF format
     Using radial grid of 1269 points,  4 beta functions with: 
                l(1) =   0
                l(2) =   0
                l(3) =   1
                l(4) =   1
     Q(r) pseudized with 0 coefficients 


     atomic species   valence    mass     pseudopotential
        C              4.00    12.00000     C ( 1.00)
        H              1.00     1.00000     H ( 1.00)
        N              5.00    14.00000     N ( 1.00)
        O              6.00    16.00000     O ( 1.00)

     No symmetry found



   Cartesian axes

     site n.     atom                  positions (alat units)
         1           C   tau(   1) = (   0.0000000   0.0000000   0.0000000  )
         2           C   tau(   2) = (   0.0000000   0.0000000   0.1455089  )
         3           N   tau(   3) = (   0.1170969   0.0000000  -0.0545024  )
         4           H   tau(   4) = (   0.0476617  -0.0825466   0.1792090  )
         5           H   tau(   5) = (  -0.0953183  -0.0000030   0.1792090  )
         6           H   tau(   6) = (   0.0476566   0.0825496   0.1792090  )
         7           O   tau(   7) = (  -0.0984002  -0.0000019  -0.0641310  )
         8           H   tau(   8) = (   0.1263131  -0.0000015  -0.1475548  )
         9           H   tau(   9) = (   0.1944645   0.0000134  -0.0025716  )

     number of k points=     1
                       cart. coord. in units 2pi/alat
        k(    1) = (   0.0000000   0.0000000   0.0000000), wk =   2.0000000

     Dense  grid:   350738 G-vectors     FFT dimensions: ( 120, 120, 120)

     Smooth grid:    88755 G-vectors     FFT dimensions: (  72,  72,  72)

     Estimated max dynamical RAM per process >     298.64MB

     Initial potential from superposition of free atoms
     Check: negative starting charge=   -0.000530

     starting charge   23.51886, renormalised to   24.00000

     negative rho (up, down):  5.411E-04 0.000E+00
     Starting wfc are   21 randomized atomic wfcs

     total cpu time spent up to now is        8.5 secs

     Self-consistent Calculation

     iteration #  1     ecut=    30.00 Ry     beta=0.70
     Davidson diagonalization with overlap
     ethr =  1.00E-02,  avg # of iterations =  2.0

     negative rho (up, down):  1.677E-04 0.000E+00

     add environment contribution to local potential
     polarization accuracy = 3.0E-05, # of iterations =  12

     total cpu time spent up to now is       17.1 secs

     total energy              =     -79.57260625 Ry
     Harris-Foulkes estimate   =     -81.75208041 Ry
     estimated scf accuracy    <       2.90357113 Ry
     electrostatic embedding   =       0.00000000 Ry
     cavitation energy         =       0.03075199 Ry
     PV energy                 =      -0.02263433 Ry
     correction to one-el term =       0.00000000 Ry

     iteration #  2     ecut=    30.00 Ry     beta=0.70
     Davidson diagonalization with overlap
     ethr =  1.00E-02,  avg # of iterations =  4.0

     negative rho (up, down):  1.535E-03 0.000E+00

     add environment contribution to local potential
     polarization accuracy = 2.6E-05, # of iterations =  14

     total cpu time spent up to now is       26.4 secs

     total energy              =     -79.98382361 Ry
     Harris-Foulkes estimate   =     -79.72906778 Ry
     estimated scf accuracy    <       1.86483412 Ry
     electrostatic embedding   =      -0.03523353 Ry
     cavitation energy         =       0.02975105 Ry
     PV energy                 =      -0.02080791 Ry
     correction to one-el term =      -1.22099777 Ry

     iteration #  3     ecut=    30.00 Ry     beta=0.70
     Davidson diagonalization with overlap
     ethr =  7.77E-03,  avg # of iterations =  3.0

     negative rho (up, down):  4.228E-04 0.000E+00

     add environment contribution to local potential
     polarization accuracy = 4.1E-05, # of iterations =  13

     total cpu time spent up to now is       35.5 secs

     total energy              =     -80.44506543 Ry
     Harris-Foulkes estimate   =     -79.84266355 Ry
     estimated scf accuracy    <       0.21429939 Ry
     electrostatic embedding   =      -0.04443429 Ry
     cavitation energy         =       0.02856161 Ry
     PV energy                 =      -0.01955781 Ry
     correction to one-el term =      -0.67465985 Ry

     iteration #  4     ecut=    30.00 Ry     beta=0.70
     Davidson diagonalization with overlap
     ethr =  8.93E-04,  avg # of iterations =  3.0

     negative rho (up, down):  1.800E-04 0.000E+00

     add environment contribution to local potential
     polarization accuracy = 8.9E-05, # of iterations =  13

     total cpu time spent up to now is       44.2 secs

     total energy              =     -80.48857172 Ry
     Harris-Foulkes estimate   =     -80.07201375 Ry
     estimated scf accuracy    <       0.02754274 Ry
     electrostatic embedding   =      -0.04285055 Ry
     cavitation energy         =       0.02783179 Ry
     PV energy                 =      -0.01861877 Ry
     correction to one-el term =      -0.39668284 Ry

     iteration #  5     ecut=    30.00 Ry     beta=0.70
     Davidson diagonalization with overlap
     ethr =  1.15E-04,  avg # of iterations =  3.0

     negative rho (up, down):  2.238E-04 0.000E+00

     total cpu time spent up to now is       49.4 secs

     End of self-consistent calculation

          k = 0.0000 0.0000 0.0000 ( 11060 PWs)   bands (ev):

   -25.3677 -21.9258 -17.7464 -14.0362 -12.5691 -10.9849 -10.4900  -9.3291
    -9.1747  -8.5153  -5.9866  -5.4727

     highest occupied level (ev):    -5.4727

!    total energy              =     -80.49786944 Ry
     Harris-Foulkes estimate   =     -80.30739467 Ry
     estimated scf accuracy    <       0.00407415 Ry

     The total energy is the sum of the following terms:

     one-electron contribution =    -235.97297748 Ry
     hartree contribution      =     121.59337882 Ry
     xc contribution           =     -22.67229130 Ry
     ewald contribution        =      56.74764018 Ry
     electrostatic embedding   =      -0.04680845 Ry
     cavitation energy         =       0.02783179 Ry
     PV energy                 =      -0.01861877 Ry
     correction to one-el term =      -0.15602423 Ry

     convergence has been achieved in   5 iterations

     Forces acting on atoms (cartesian axes, Ry/au):

     atom    1 type  1   force =     0.02813228    0.00001498    0.01050764
     atom    2 type  1   force =    -0.00844364   -0.00000447   -0.06135204
     atom    3 type  3   force =    -0.06828304    0.00000258    0.03343026
     atom    4 type  2   force =     0.01633665   -0.02421255    0.01108068
     atom    5 type  2   force =    -0.02799243   -0.00000403    0.00671306
     atom    6 type  2   force =     0.01634284    0.02421877    0.01108366
     atom    7 type  4   force =    -0.00010592   -0.00002404    0.00421848
     atom    8 type  2   force =    -0.00165945    0.00000235   -0.05276119
     atom    9 type  2   force =     0.04567271    0.00000641    0.03707945

     Total force =     0.139870     Total SCF correction =     0.147561
     SCF correction compared to forces is large: reduce conv_thr to get better values

     Writing output data file pwscf.save

     init_run     :      7.50s CPU      8.26s WALL (       1 calls)
     electrons    :     37.07s CPU     41.15s WALL (       1 calls)
     forces       :      2.19s CPU      2.57s WALL (       1 calls)

     Called by init_run:
     wfcinit      :      0.21s CPU      0.21s WALL (       1 calls)
     potinit      :      1.75s CPU      1.91s WALL (       1 calls)

     Called by electrons:
     c_bands      :      1.87s CPU      1.77s WALL (       5 calls)
     sum_band     :      6.55s CPU      6.69s WALL (       5 calls)
     v_of_rho     :      7.12s CPU      7.67s WALL (       6 calls)
     newd         :      3.56s CPU      5.28s WALL (       6 calls)
     mix_rho      :      0.58s CPU      0.67s WALL (       5 calls)

     Called by c_bands:
     init_us_2    :      0.07s CPU      0.09s WALL (      11 calls)
     regterg      :      1.79s CPU      1.66s WALL (       5 calls)

     Called by sum_band:
     sum_band:bec :      0.00s CPU      0.00s WALL (       5 calls)
     addusdens    :      5.25s CPU      5.32s WALL (       5 calls)

     Called by *egterg:
     h_psi        :      1.64s CPU      1.59s WALL (      21 calls)
     s_psi        :      0.10s CPU      0.03s WALL (      21 calls)
     g_psi        :      0.01s CPU      0.01s WALL (      15 calls)
     rdiaghg      :      0.01s CPU      0.01s WALL (      20 calls)

     Called by h_psi:
     h_psi:pot    :      1.63s CPU      1.58s WALL (      21 calls)
     h_psi:calbec :      0.05s CPU      0.05s WALL (      21 calls)
     vloc_psi     :      1.47s CPU      1.50s WALL (      21 calls)
     add_vuspsi   :      0.11s CPU      0.03s WALL (      21 calls)

     General routines
     calbec       :      0.08s CPU      0.08s WALL (      30 calls)
     fft          :     15.18s CPU     15.46s WALL (     283 calls)
     ffts         :      0.11s CPU      0.11s WALL (      11 calls)
     fftw         :      1.34s CPU      1.36s WALL (     240 calls)
     interpolate  :      0.82s CPU      0.92s WALL (      11 calls)
     davcio       :      0.00s CPU      0.00s WALL (       1 calls)


     Environ routines
     calc_eelect  :      0.03s CPU      0.03s WALL (      10 calls)
     calc_velect  :      9.88s CPU     10.91s WALL (       8 calls)
     dielectric   :      0.47s CPU      0.58s WALL (       6 calls)
     calc_felect  :      0.55s CPU      0.59s WALL (       1 calls)

     PWSCF        :    47.06s CPU        52.45s WALL


   This run was terminated on:  16:57:15   7Nov2017            

=------------------------------------------------------------------------------=
   JOB DONE.
=------------------------------------------------------------------------------=

%%%% IONS %%%%%%%%%%%%%%%%%%%%%%%%%%%%%%%%%%%%%%%%%%%%%%%%%%%%%%%%%%%%%%%%%%%%%%
 number of ions             =          9
 ionic center of charge     =      0.0131609     0.0000000     0.0130099
 total ionic charge         =    -24.0000000
 ionic dipole               =      0.0000000     0.0000000     0.0000000
 ionic quadrupole (pc)      =    -75.9587432    -5.4513517   -95.3140149
 ionic quadrupole (gauss)   =    -78.9587432    -8.4513517   -98.3140149
 ion   1 type =  1 coordinates =      0.0000000     0.0000000     0.0000000
 ion   2 type =  1 coordinates =      0.0000000     0.0000000     2.9101782
 ion   3 type =  3 coordinates =      2.3419379     0.0000000    -1.0900479
 ion   4 type =  2 coordinates =      0.9532347    -1.6509323     3.5841800
 ion   5 type =  2 coordinates =     -1.9063663    -0.0000596     3.5841809
 ion   6 type =  2 coordinates =      0.9531315     1.6509919     3.5841800
 ion   7 type =  4 coordinates =     -1.9680045    -0.0000375    -1.2826193
 ion   8 type =  2 coordinates =      2.5262613    -0.0000303    -2.9510950
 ion   9 type =  2 coordinates =      3.8892907     0.0002681    -0.0514326

%%%% SYSTEM %%%%%%%%%%%%%%%%%%%%%%%%%%%%%%%%%%%%%%%%%%%%%%%%%%%%%%%%%%%%%%%%%%%%
 system is built from all present ionic types
 system defined dimension   =  0 
 system defined axis        =  3 
 system center              =      0.0131609     0.0000000     0.0130099 
 system width               =      0.4839110 

%%%% ELECTRONS %%%%%%%%%%%%%%%%%%%%%%%%%%%%%%%%%%%%%%%%%%%%%%%%%%%%%%%%%%%%%%%%%
 number of electrons        =         24
 total electronic charge    =     24.0000000
 number of spin components  =  1

%%%% BOUNDARY %%%%%%%%%%%%%%%%%%%%%%%%%%%%%%%%%%%%%%%%%%%%%%%%%%%%%%%%%%%%%%%%%%
 boundary mode              = electronic           
 boundary is built as a function of a smooth density
 function type              =  2 
 using the modified SCCS function with parameters 
 rhomax                     =      0.0050000 
 rhomin                     =      0.0001000 
 volume of the QM region    =    951.3213232 
 surface of the QM region   =    478.7755012 

%%%% DIELECTRIC %%%%%%%%%%%%%%%%%%%%%%%%%%%%%%%%%%%%%%%%%%%%%%%%%%%%%%%%%%%%%%%%%
 dielectric build on homogeneous background
 environment bulk permitt.  =     78.3000000 
 dielectric flags
 need gradient              =  F 
 need factor depend. sqrt   =  T 
 need gradient of logarithm =  T 

%%%% COMPUTE ELECTROSTATIC POTENTIAL %%%%%%%%%%%%%%%%%%%%%%%%%%%%%%%%%%%%%%%%%%%
 Iteration #          1
  pAp =    89.717035296388033       rzold =    89.318651587819886       alpha =   0.99555955335291613     
 delta_qm =   0.499931E-02 delta_en =   0.431881E+02 tol =   0.100000E-03
 Iteration #          2
  pAp =    13.527854084006256       rzold =    2.0288151052325296       alpha =   0.14997316593111112     
 delta_qm =   0.158983E-02 delta_en =   0.436765E+01 tol =   0.100000E-03
 Iteration #          3
  pAp =   0.24082645270457989       rzold =    6.0157957986367784E-002  alpha =   0.24979796575820151     
 delta_qm =   0.795598E-03 delta_en =   0.109378E+01 tol =   0.100000E-03
 Iteration #          4
  pAp =    5.7357729079665562E-002  rzold =    1.0810228962755438E-002  alpha =   0.18847030968992592     
 delta_qm =   0.658993E-03 delta_en =   0.750422E+00 tol =   0.100000E-03
 Iteration #          5
  pAp =    2.5784876883025425E-003  rzold =    1.2252668573996209E-003  alpha =   0.47518817443190225     
 delta_qm =   0.342934E-03 delta_en =   0.203220E+00 tol =   0.100000E-03
 Iteration #          6
  pAp =    1.3645797277462659E-003  rzold =    5.5798538718485448E-004  alpha =   0.40890640234442055     
 delta_qm =   0.171036E-03 delta_en =   0.505498E-01 tol =   0.100000E-03
 Iteration #          7
  pAp =    3.3423707206043068E-004  rzold =    1.3632565534382884E-004  alpha =   0.40787113919900814     
 delta_qm =   0.105684E-03 delta_en =   0.193001E-01 tol =   0.100000E-03
 Iteration #          8
  pAp =    2.5659355937590649E-004  rzold =    8.1409105656926302E-005  alpha =   0.31726870251510458     
 delta_qm =   0.636492E-04 delta_en =   0.700052E-02 tol =   0.100000E-03
 Iteration #          9
  pAp =    7.2162353019882388E-005  rzold =    2.9466911058118126E-005  alpha =   0.40834188222769446     
 delta_qm =   0.288642E-04 delta_en =   0.143967E-02 tol =   0.100000E-03
 Iteration #         10
  pAp =    1.4266530497779064E-005  rzold =    5.5587917255755212E-006  alpha =   0.38963865296056976     
 delta_qm =   0.195224E-04 delta_en =   0.658581E-03 tol =   0.100000E-03
 Iteration #         11
  pAp =    1.4029650677630039E-006  rzold =    9.4615448029225557E-007  alpha =   0.67439632107225411     
 delta_qm =   0.996268E-05 delta_en =   0.171513E-03 tol =   0.100000E-03
 Iteration #         12
  pAp =    6.2572408629559885E-007  rzold =    3.9567682173366025E-007  alpha =   0.63235031286096000     
 delta_qm =   0.416272E-05 delta_en =   0.299433E-04 tol =   0.100000E-03
 Charges are converged, EXIT

%%%% ELECTRONS %%%%%%%%%%%%%%%%%%%%%%%%%%%%%%%%%%%%%%%%%%%%%%%%%%%%%%%%%%%%%%%%%
 number of electrons        =         24
 total electronic charge    =     24.0000000
 number of spin components  =  1

%%%% BOUNDARY %%%%%%%%%%%%%%%%%%%%%%%%%%%%%%%%%%%%%%%%%%%%%%%%%%%%%%%%%%%%%%%%%%
 boundary mode              = electronic           
 boundary is built as a function of a smooth density
 function type              =  2 
 using the modified SCCS function with parameters 
 rhomax                     =      0.0050000 
 rhomin                     =      0.0001000 
 volume of the QM region    =    874.5566374 
 surface of the QM region   =    463.1919104 

%%%% DIELECTRIC %%%%%%%%%%%%%%%%%%%%%%%%%%%%%%%%%%%%%%%%%%%%%%%%%%%%%%%%%%%%%%%%%
 dielectric build on homogeneous background
 environment bulk permitt.  =     78.3000000 
 dielectric flags
 need gradient              =  F 
 need factor depend. sqrt   =  T 
 need gradient of logarithm =  T 

%%%% COMPUTE ELECTROSTATIC POTENTIAL %%%%%%%%%%%%%%%%%%%%%%%%%%%%%%%%%%%%%%%%%%%
 Warning: bad guess with residual norm =   0.837330E+03, reset to no guess
 Iteration #          1
  pAp =    91.782330715297533       rzold =    91.094336455271872       alpha =   0.99250406636371247     
 delta_qm =   0.113427E-01 delta_en =   0.222319E+03 tol =   0.100000E-03
 Iteration #          2
  pAp =    30.021984290337343       rzold =    4.1328809105609698       alpha =   0.13766181710684422     
 delta_qm =   0.220788E-02 delta_en =   0.842352E+01 tol =   0.100000E-03
 Iteration #          3
  pAp =   0.12933905010259933       rzold =    3.4222777503428753E-002  alpha =   0.26459740871980453     
 delta_qm =   0.162395E-02 delta_en =   0.455710E+01 tol =   0.100000E-03
 Iteration #          4
  pAp =    2.2110199027026965E-002  rzold =    5.0364384221874984E-003  alpha =   0.22778801837247506     
 delta_qm =   0.104118E-02 delta_en =   0.187326E+01 tol =   0.100000E-03
 Iteration #          5
  pAp =    5.6950117572738112E-003  rzold =    1.9962752211988167E-003  alpha =   0.35053048286496058     
 delta_qm =   0.852461E-03 delta_en =   0.125572E+01 tol =   0.100000E-03
 Iteration #          6
  pAp =    2.8371815849319118E-003  rzold =    1.0462323280123879E-003  alpha =   0.36875761973391491     
 delta_qm =   0.462919E-03 delta_en =   0.370300E+00 tol =   0.100000E-03
 Iteration #          7
  pAp =    7.8173368598087069E-004  rzold =    3.0024064959500898E-004  alpha =   0.38407024665732004     
 delta_qm =   0.300344E-03 delta_en =   0.155877E+00 tol =   0.100000E-03
 Iteration #          8
  pAp =    7.8533034069638310E-004  rzold =    2.5542942758489224E-004  alpha =   0.32525093498666180     
 delta_qm =   0.130754E-03 delta_en =   0.295429E-01 tol =   0.100000E-03
 Iteration #          9
  pAp =    1.8331149260172769E-004  rzold =    6.8923137221626969E-005  alpha =   0.37598917691087186     
 delta_qm =   0.676135E-04 delta_en =   0.789970E-02 tol =   0.100000E-03
 Iteration #         10
  pAp =    3.0510603609786853E-005  rzold =    1.1414560020413353E-005  alpha =   0.37411780397395733     
 delta_qm =   0.393714E-04 delta_en =   0.267859E-02 tol =   0.100000E-03
 Iteration #         11
  pAp =    3.8100395001646989E-006  rzold =    2.0580098054651739E-006  alpha =   0.54015445387802696     
 delta_qm =   0.252676E-04 delta_en =   0.110325E-02 tol =   0.100000E-03
 Iteration #         12
  pAp =    1.7864365553903891E-006  rzold =    1.0609779732552080E-006  alpha =   0.59390744667299589     
 delta_qm =   0.131957E-04 delta_en =   0.300890E-03 tol =   0.100000E-03
 Iteration #         13
  pAp =    1.6697031958057322E-006  rzold =    6.2103401545252863E-007  alpha =   0.37194276025377215     
 delta_qm =   0.812032E-05 delta_en =   0.113944E-03 tol =   0.100000E-03
 Iteration #         14
  pAp =    2.4861649377671783E-007  rzold =    1.2067669773944772E-007  alpha =   0.48539296772412582     
 delta_qm =   0.389785E-05 delta_en =   0.262540E-04 tol =   0.100000E-03
 Charges are converged, EXIT

%%%% ELECTRONS %%%%%%%%%%%%%%%%%%%%%%%%%%%%%%%%%%%%%%%%%%%%%%%%%%%%%%%%%%%%%%%%%
 number of electrons        =         24
 total electronic charge    =     24.0000000
 number of spin components  =  1

%%%% BOUNDARY %%%%%%%%%%%%%%%%%%%%%%%%%%%%%%%%%%%%%%%%%%%%%%%%%%%%%%%%%%%%%%%%%%
 boundary mode              = electronic           
 boundary is built as a function of a smooth density
 function type              =  2 
 using the modified SCCS function with parameters 
 rhomax                     =      0.0050000 
 rhomin                     =      0.0001000 
 volume of the QM region    =    822.0149774 
 surface of the QM region   =    444.6737240 

%%%% DIELECTRIC %%%%%%%%%%%%%%%%%%%%%%%%%%%%%%%%%%%%%%%%%%%%%%%%%%%%%%%%%%%%%%%%%
 dielectric build on homogeneous background
 environment bulk permitt.  =     78.3000000 
 dielectric flags
 need gradient              =  F 
 need factor depend. sqrt   =  T 
 need gradient of logarithm =  T 

%%%% COMPUTE ELECTROSTATIC POTENTIAL %%%%%%%%%%%%%%%%%%%%%%%%%%%%%%%%%%%%%%%%%%%
 Warning: bad guess with residual norm =   0.562395E+03, reset to no guess
 Iteration #          1
  pAp =    92.814243597265460       rzold =    92.257656381631890       alpha =   0.99400321336401032     
 delta_qm =   0.968948E-02 delta_en =   0.162235E+03 tol =   0.100000E-03
 Iteration #          2
  pAp =    28.015953289526912       rzold =    3.5931632470697155       alpha =   0.12825418467601932     
 delta_qm =   0.195220E-02 delta_en =   0.658559E+01 tol =   0.100000E-03
 Iteration #          3
  pAp =   0.20655405230791113       rzold =    4.7337077735211987E-002  alpha =   0.22917525561128366     
 delta_qm =   0.105173E-02 delta_en =   0.191140E+01 tol =   0.100000E-03
 Iteration #          4
  pAp =    3.3841776548406553E-002  rzold =    6.7567677555114801E-003  alpha =   0.19965759616215017     
 delta_qm =   0.102838E-02 delta_en =   0.182746E+01 tol =   0.100000E-03
 Iteration #          5
  pAp =    5.4233640576483496E-003  rzold =    1.9541809081084095E-003  alpha =   0.36032633755288984     
 delta_qm =   0.616429E-03 delta_en =   0.656613E+00 tol =   0.100000E-03
 Iteration #          6
  pAp =    3.0623767403846289E-003  rzold =    1.2279048908594278E-003  alpha =   0.40096467383213119     
 delta_qm =   0.353791E-03 delta_en =   0.216291E+00 tol =   0.100000E-03
 Iteration #          7
  pAp =    5.7433221881999304E-004  rzold =    3.4064244542336719E-004  alpha =   0.59311045813038599     
 delta_qm =   0.173791E-03 delta_en =   0.521911E-01 tol =   0.100000E-03
 Iteration #          8
  pAp =    3.1626496382453772E-004  rzold =    1.5063917140646052E-004  alpha =   0.47630685860617306     
 delta_qm =   0.670264E-04 delta_en =   0.776312E-02 tol =   0.100000E-03
 Iteration #          9
  pAp =    1.7623917990356388E-004  rzold =    4.7896594576173029E-005  alpha =   0.27177041224534471     
 delta_qm =   0.314711E-04 delta_en =   0.171147E-02 tol =   0.100000E-03
 Iteration #         10
  pAp =    4.9255920287236094E-005  rzold =    1.0372406738133935E-005  alpha =   0.21058192959642627     
 delta_qm =   0.207500E-04 delta_en =   0.744011E-03 tol =   0.100000E-03
 Iteration #         11
  pAp =    8.9318254959317426E-006  rzold =    2.5229591852256986E-006  alpha =   0.28246848154107501     
 delta_qm =   0.136103E-04 delta_en =   0.320095E-03 tol =   0.100000E-03
 Iteration #         12
  pAp =    1.1446647033172816E-006  rzold =    4.6206391362226540E-007  alpha =   0.40366747771918421     
 delta_qm =   0.913562E-05 delta_en =   0.144218E-03 tol =   0.100000E-03
 Iteration #         13
  pAp =    3.7060117530953498E-007  rzold =    1.8520879049904855E-007  alpha =   0.49975230203832388     
 delta_qm =   0.484157E-05 delta_en =   0.405056E-04 tol =   0.100000E-03
 Charges are converged, EXIT

%%%% ELECTRONS %%%%%%%%%%%%%%%%%%%%%%%%%%%%%%%%%%%%%%%%%%%%%%%%%%%%%%%%%%%%%%%%%
 number of electrons        =         24
 total electronic charge    =     24.0000000
 number of spin components  =  1

%%%% BOUNDARY %%%%%%%%%%%%%%%%%%%%%%%%%%%%%%%%%%%%%%%%%%%%%%%%%%%%%%%%%%%%%%%%%%
 boundary mode              = electronic           
 boundary is built as a function of a smooth density
 function type              =  2 
 using the modified SCCS function with parameters 
 rhomax                     =      0.0050000 
 rhomin                     =      0.0001000 
 volume of the QM region    =    782.5472768 
 surface of the QM region   =    433.3112064 

%%%% DIELECTRIC %%%%%%%%%%%%%%%%%%%%%%%%%%%%%%%%%%%%%%%%%%%%%%%%%%%%%%%%%%%%%%%%%
 dielectric build on homogeneous background
 environment bulk permitt.  =     78.3000000 
 dielectric flags
 need gradient              =  F 
 need factor depend. sqrt   =  T 
 need gradient of logarithm =  T 

%%%% COMPUTE ELECTROSTATIC POTENTIAL %%%%%%%%%%%%%%%%%%%%%%%%%%%%%%%%%%%%%%%%%%%
 Warning: bad guess with residual norm =   0.900453E+03, reset to no guess
 Iteration #          1
  pAp =    92.777853922694177       rzold =    92.115971287048225       alpha =   0.99286594151878682     
 delta_qm =   0.118830E-01 delta_en =   0.244003E+03 tol =   0.100000E-03
 Iteration #          2
  pAp =    37.194904930779963       rzold =    4.5279949199221265       alpha =   0.12173696715581782     
 delta_qm =   0.234377E-02 delta_en =   0.949237E+01 tol =   0.100000E-03
 Iteration #          3
  pAp =   0.30004506280189186       rzold =    6.2979748192812351E-002  alpha =   0.20990096489071525     
 delta_qm =   0.114318E-02 delta_en =   0.225827E+01 tol =   0.100000E-03
 Iteration #          4
  pAp =    5.3906806141396091E-002  rzold =    9.6470760993808500E-003  alpha =   0.17895840599565166     
 delta_qm =   0.118810E-02 delta_en =   0.243920E+01 tol =   0.100000E-03
 Iteration #          5
  pAp =    6.7494370242387781E-003  rzold =    2.2500452821783480E-003  alpha =   0.33336784595484314     
 delta_qm =   0.759945E-03 delta_en =   0.997949E+00 tol =   0.100000E-03
 Iteration #          6
  pAp =    3.3405708804328965E-003  rzold =    1.3806634888658721E-003  alpha =   0.41330165959147536     
 delta_qm =   0.464385E-03 delta_en =   0.372649E+00 tol =   0.100000E-03
 Iteration #          7
  pAp =    7.8619709809903918E-004  rzold =    4.5593481305942270E-004  alpha =   0.57992431435048042     
 delta_qm =   0.239943E-03 delta_en =   0.994854E-01 tol =   0.100000E-03
 Iteration #          8
  pAp =    4.1223589632717535E-004  rzold =    2.1115106299223092E-004  alpha =   0.51220930751903437     
 delta_qm =   0.108191E-03 delta_en =   0.202267E-01 tol =   0.100000E-03
 Iteration #          9
  pAp =    6.1959259111305171E-004  rzold =    1.2225629435533129E-004  alpha =   0.19731723088506758     
 delta_qm =   0.545971E-04 delta_en =   0.515089E-02 tol =   0.100000E-03
 Iteration #         10
  pAp =    1.1401116931607681E-004  rzold =    2.7718108166436878E-005  alpha =   0.24311747991631485     
 delta_qm =   0.348262E-04 delta_en =   0.209583E-02 tol =   0.100000E-03
 Iteration #         11
  pAp =    2.0756855979055366E-005  rzold =    5.8698769780939906E-006  alpha =   0.28279220051519216     
 delta_qm =   0.229079E-04 delta_en =   0.906807E-03 tol =   0.100000E-03
 Iteration #         12
  pAp =    2.1599175617609561E-006  rzold =    9.3340104582192743E-007  alpha =   0.43214660704963953     
 delta_qm =   0.155279E-04 delta_en =   0.416646E-03 tol =   0.100000E-03
 Iteration #         13
  pAp =    5.9848732464979978E-007  rzold =    3.2947417030814559E-007  alpha =   0.55051152587222274     
 delta_qm =   0.719640E-05 delta_en =   0.894899E-04 tol =   0.100000E-03
 Charges are converged, EXIT

%%%% ELECTRONS %%%%%%%%%%%%%%%%%%%%%%%%%%%%%%%%%%%%%%%%%%%%%%%%%%%%%%%%%%%%%%%%%
 number of electrons        =         24
 total electronic charge    =     24.0000000
 number of spin components  =  1

%%%% BOUNDARY %%%%%%%%%%%%%%%%%%%%%%%%%%%%%%%%%%%%%%%%%%%%%%%%%%%%%%%%%%%%%%%%%%
 boundary mode              = electronic           
 boundary is built as a function of a smooth density
 function type              =  2 
 using the modified SCCS function with parameters 
 rhomax                     =      0.0050000 
 rhomin                     =      0.0001000 
 volume of the QM region    =    782.5472768 
 surface of the QM region   =    433.3112064 

%%%% DIELECTRIC %%%%%%%%%%%%%%%%%%%%%%%%%%%%%%%%%%%%%%%%%%%%%%%%%%%%%%%%%%%%%%%%%
 dielectric build on homogeneous background
 environment bulk permitt.  =     78.3000000 
 dielectric flags
 need gradient              =  F 
 need factor depend. sqrt   =  T 
 need gradient of logarithm =  T 
