
     Program PWSCF v.6.1 (svn rev. 13369) starts on 10Oct2017 at 14: 1: 2 

     This program is part of the open-source Quantum ESPRESSO suite
     for quantum simulation of materials; please cite
         "P. Giannozzi et al., J. Phys.:Condens. Matter 21 395502 (2009);
          URL http://www.quantum-espresso.org", 
     in publications or presentations arising from this work. More details at
     http://www.quantum-espresso.org/quote

     Serial version
     Reading input from anion.in

     Current dimensions of program PWSCF are:
     Max number of different atomic species (ntypx) = 10
     Max number of k-points (npk) =  40000
     Max angular momentum in pseudopotentials (lmaxx) =  3
               file C.pbe-rrkjus.UPF: wavefunction(s)  2S 2P renormalized
               file H.pbe-rrkjus.UPF: wavefunction(s)  1S renormalized
               file N.pbe-rrkjus.UPF: wavefunction(s)  2S renormalized
               file O.pbe-rrkjus.UPF: wavefunction(s)  2S renormalized

     gamma-point specific algorithms are used

     G-vector sticks info
     --------------------
     sticks:   dense  smooth     PW     G-vecs:    dense   smooth      PW
     Sum        9549    3809    949               701475   177509   22119



     bravais-lattice index     =            1
     lattice parameter (alat)  =      20.0000  a.u.
     unit-cell volume          =    8000.0000 (a.u.)^3
     number of atoms/cell      =            8
     number of atomic types    =            4
     number of electrons       =        24.00
     number of Kohn-Sham states=           12
     kinetic-energy cutoff     =      30.0000  Ry
     charge density cutoff     =     300.0000  Ry
     convergence threshold     =      5.0E-03
     mixing beta               =       0.7000
     number of iterations used =            8  plain     mixing
     Exchange-correlation      =  SLA  PW   PBE  PBE ( 1  4  3  4 0 0)


     Environ Module
     ==============

     Plese cite
         O. Andreussi, I. Dabo and N. Marzari, J. Chem. Phys. 136, 064102 (2012)         
     in publications or presentations arising from this work.

     compensation onset threshold      =               0.1000E+03 
     static permittivity               =                    78.30 
     epsilon calculation mode          =               electronic 
     external pressure in input (GPa)  =                     0.45 
     external pressure in inter. units =               0.3059E-04 

     Electrostatic Setup
     -------------------
     electrostatic problem to solve    = generalized              
     numerical solver adopted          = cg                       
     type of auxiliary density adopted = none                     
     type of core tool for poisson     = fft                      
     type of core tool for s(r) deriv  = analytic                 



     celldm(1)=  20.000000  celldm(2)=   0.000000  celldm(3)=   0.000000
     celldm(4)=   0.000000  celldm(5)=   0.000000  celldm(6)=   0.000000

     crystal axes: (cart. coord. in units of alat)
               a(1) = (   1.000000   0.000000   0.000000 )  
               a(2) = (   0.000000   1.000000   0.000000 )  
               a(3) = (   0.000000   0.000000   1.000000 )  

     reciprocal axes: (cart. coord. in units 2 pi/alat)
               b(1) = (  1.000000  0.000000  0.000000 )  
               b(2) = (  0.000000  1.000000  0.000000 )  
               b(3) = (  0.000000  0.000000  1.000000 )  


     PseudoPot. # 1 for C  read from file:
     /Users/oliviero/PWSCF/espresso-6.1-Environ-1.0/Environ/tests/../..//pseudo/C.pbe-rrkjus.UPF
     MD5 check sum: 00fb224312de0c5b6853bd333518df6f
     Pseudo is Ultrasoft, Zval =  4.0
     Generated by new atomic code, or converted to UPF format
     Using radial grid of  627 points,  4 beta functions with: 
                l(1) =   0
                l(2) =   0
                l(3) =   1
                l(4) =   1
     Q(r) pseudized with 0 coefficients 


     PseudoPot. # 2 for H  read from file:
     /Users/oliviero/PWSCF/espresso-6.1-Environ-1.0/Environ/tests/../..//pseudo/H.pbe-rrkjus.UPF
     MD5 check sum: 7cc9d459525c9a0585f487a71c3c9563
     Pseudo is Ultrasoft, Zval =  1.0
     Generated by new atomic code, or converted to UPF format
     Using radial grid of 1061 points,  2 beta functions with: 
                l(1) =   0
                l(2) =   0
     Q(r) pseudized with 0 coefficients 


     PseudoPot. # 3 for N  read from file:
     /Users/oliviero/PWSCF/espresso-6.1-Environ-1.0/Environ/tests/../..//pseudo/N.pbe-rrkjus.UPF
     MD5 check sum: 0c3fbe5807a93f9ba59d5a7019aa238b
     Pseudo is Ultrasoft, Zval =  5.0
     Generated by new atomic code, or converted to UPF format
     Using radial grid of 1257 points,  4 beta functions with: 
                l(1) =   0
                l(2) =   0
                l(3) =   1
                l(4) =   1
     Q(r) pseudized with 0 coefficients 


     PseudoPot. # 4 for O  read from file:
     /Users/oliviero/PWSCF/espresso-6.1-Environ-1.0/Environ/tests/../..//pseudo/O.pbe-rrkjus.UPF
     MD5 check sum: 390ba29e75625707450f3bd3f0eb6be9
     Pseudo is Ultrasoft, Zval =  6.0
     Generated by new atomic code, or converted to UPF format
     Using radial grid of 1269 points,  4 beta functions with: 
                l(1) =   0
                l(2) =   0
                l(3) =   1
                l(4) =   1
     Q(r) pseudized with 0 coefficients 


     atomic species   valence    mass     pseudopotential
        C              4.00    12.00000     C ( 1.00)
        H              1.00     1.00000     H ( 1.00)
        N              5.00    14.00000     N ( 1.00)
        O              6.00    16.00000     O ( 1.00)

     No symmetry found



   Cartesian axes

     site n.     atom                  positions (alat units)
         1           C   tau(   1) = (   0.0000000   0.0000000   0.0000000  )
         2           C   tau(   2) = (   0.0000000   0.0000000   0.1455089  )
         3           N   tau(   3) = (   0.1170969   0.0000000  -0.0545024  )
         4           H   tau(   4) = (   0.0476617  -0.0825466   0.1792090  )
         5           H   tau(   5) = (  -0.0953183  -0.0000030   0.1792090  )
         6           H   tau(   6) = (   0.0476566   0.0825496   0.1792090  )
         7           O   tau(   7) = (  -0.0984002  -0.0000019  -0.0641310  )
         8           H   tau(   8) = (   0.1944645   0.0000134  -0.0025716  )

     number of k points=     1
                       cart. coord. in units 2pi/alat
        k(    1) = (   0.0000000   0.0000000   0.0000000), wk =   2.0000000

     Dense  grid:   350738 G-vectors     FFT dimensions: ( 120, 120, 120)

     Smooth grid:    88755 G-vectors     FFT dimensions: (  72,  72,  72)

     Estimated max dynamical RAM per process >     298.30MB

     Initial potential from superposition of free atoms
     Check: negative starting charge=   -0.000561

     starting charge   22.61507, renormalised to   24.00000

     negative rho (up, down):  5.954E-04 0.000E+00
     Starting wfc are   20 randomized atomic wfcs

     total cpu time spent up to now is       24.7 secs

     Self-consistent Calculation

     iteration #  1     ecut=    30.00 Ry     beta=0.70
     Davidson diagonalization with overlap
     ethr =  1.00E-02,  avg # of iterations =  2.0

     negative rho (up, down):  1.758E-04 0.000E+00

     add environment contribution to local potential
     polarization accuracy = 6.7E-05, # of iterations =  23

     total cpu time spent up to now is       36.8 secs

     total energy              =     -78.45501890 Ry
     Harris-Foulkes estimate   =     -80.30749154 Ry
     estimated scf accuracy    <       2.43325747 Ry
     electrostatic embedding   =      -0.00222918 Ry
     PV energy                 =       0.01075335 Ry
     correction to one-el term =       0.00000000 Ry

     iteration #  2     ecut=    30.00 Ry     beta=0.70
     Davidson diagonalization with overlap
     ethr =  1.00E-02,  avg # of iterations =  4.0

     negative rho (up, down):  3.153E-03 0.000E+00

     add environment contribution to local potential
     polarization accuracy = 4.6E-05, # of iterations =  27

     total cpu time spent up to now is       50.7 secs

     total energy              =     -78.95261577 Ry
     Harris-Foulkes estimate   =     -81.92593177 Ry
     estimated scf accuracy    <       2.14089007 Ry
     electrostatic embedding   =      -0.10140317 Ry
     PV energy                 =       0.01097736 Ry
     correction to one-el term =       1.96177557 Ry

     iteration #  3     ecut=    30.00 Ry     beta=0.70
     Davidson diagonalization with overlap
     ethr =  8.92E-03,  avg # of iterations =  5.0

     negative rho (up, down):  2.949E-02 0.000E+00

     add environment contribution to local potential
     polarization accuracy = 6.2E-05, # of iterations =  23

     total cpu time spent up to now is       63.0 secs

     total energy              =     -79.87976345 Ry
     Harris-Foulkes estimate   =    -107.86373542 Ry
     estimated scf accuracy    <      20.71023658 Ry
     electrostatic embedding   =      11.43788201 Ry
     PV energy                 =       0.01096835 Ry
     correction to one-el term =      16.43916699 Ry

     iteration #  4     ecut=    30.00 Ry     beta=0.70
     Davidson diagonalization with overlap
     ethr =  8.92E-03,  avg # of iterations =  4.0

     negative rho (up, down):  6.318E-03 0.000E+00

     add environment contribution to local potential
     polarization accuracy = 9.1E-05, # of iterations =  27

     total cpu time spent up to now is       77.4 secs

     total energy              =     -79.72739726 Ry
     Harris-Foulkes estimate   =     -81.70699206 Ry
     estimated scf accuracy    <       0.13281383 Ry
     electrostatic embedding   =      -0.40680025 Ry
     PV energy                 =       0.01079880 Ry
     correction to one-el term =       2.31380485 Ry

     iteration #  5     ecut=    30.00 Ry     beta=0.70
     Davidson diagonalization with overlap
     ethr =  5.53E-04,  avg # of iterations =  5.0

     negative rho (up, down):  5.885E-04 0.000E+00

     add environment contribution to local potential
     polarization accuracy = 4.0E-05, # of iterations =  24

     total cpu time spent up to now is       91.6 secs

     total energy              =     -85.49342445 Ry
     Harris-Foulkes estimate   =     -76.91567272 Ry
     estimated scf accuracy    <       1.52801858 Ry
     electrostatic embedding   =      -5.00299436 Ry
     PV energy                 =       0.01090541 Ry
     correction to one-el term =      -3.66331164 Ry

     iteration #  6     ecut=    30.00 Ry     beta=0.70
     Davidson diagonalization with overlap
     ethr =  5.53E-04,  avg # of iterations =  4.0

     negative rho (up, down):  5.119E-04 0.000E+00

     add environment contribution to local potential
     polarization accuracy = 3.7E-05, # of iterations =  24

     total cpu time spent up to now is      106.5 secs

     total energy              =     -79.51761163 Ry
     Harris-Foulkes estimate   =     -82.14508255 Ry
     estimated scf accuracy    <       0.01933148 Ry
     electrostatic embedding   =      -0.17650048 Ry
     PV energy                 =       0.01110407 Ry
     correction to one-el term =       2.78993191 Ry

     iteration #  7     ecut=    30.00 Ry     beta=0.70
     Davidson diagonalization with overlap
     ethr =  8.05E-05,  avg # of iterations =  2.0

     negative rho (up, down):  1.252E-03 0.000E+00

     add environment contribution to local potential
     polarization accuracy = 7.9E-05, # of iterations =  23

     total cpu time spent up to now is      118.5 secs

     total energy              =     -79.52082739 Ry
     Harris-Foulkes estimate   =     -82.39831984 Ry
     estimated scf accuracy    <       0.01347454 Ry
     electrostatic embedding   =      -0.19591242 Ry
     PV energy                 =       0.01117227 Ry
     correction to one-el term =       3.06084011 Ry

     iteration #  8     ecut=    30.00 Ry     beta=0.70
     Davidson diagonalization with overlap
     ethr =  5.61E-05,  avg # of iterations =  1.0

     negative rho (up, down):  1.500E-03 0.000E+00

     add environment contribution to local potential
     polarization accuracy = 8.8E-05, # of iterations =  23

     total cpu time spent up to now is      130.5 secs

     total energy              =     -79.52907114 Ry
     Harris-Foulkes estimate   =     -82.52974898 Ry
     estimated scf accuracy    <       0.01128249 Ry
     electrostatic embedding   =      -0.20879861 Ry
     PV energy                 =       0.01118976 Ry
     correction to one-el term =       3.19801590 Ry

     iteration #  9     ecut=    30.00 Ry     beta=0.70
     Davidson diagonalization with overlap
     ethr =  4.70E-05,  avg # of iterations =  1.0

     negative rho (up, down):  1.419E-03 0.000E+00

     add environment contribution to local potential
     polarization accuracy = 4.0E-05, # of iterations =  24

     total cpu time spent up to now is      142.7 secs

     total energy              =     -79.53044136 Ry
     Harris-Foulkes estimate   =     -82.58676041 Ry
     estimated scf accuracy    <       0.01006318 Ry
     electrostatic embedding   =      -0.21298849 Ry
     PV energy                 =       0.01118809 Ry
     correction to one-el term =       3.25800929 Ry

     iteration # 10     ecut=    30.00 Ry     beta=0.70
     Davidson diagonalization with overlap
     ethr =  4.19E-05,  avg # of iterations =  1.0

     negative rho (up, down):  1.155E-03 0.000E+00

     add environment contribution to local potential
     polarization accuracy = 3.9E-05, # of iterations =  24

     total cpu time spent up to now is      154.8 secs

     total energy              =     -79.53081902 Ry
     Harris-Foulkes estimate   =     -82.63993504 Ry
     estimated scf accuracy    <       0.00897043 Ry
     electrostatic embedding   =      -0.21578031 Ry
     PV energy                 =       0.01119008 Ry
     correction to one-el term =       3.31371381 Ry

     iteration # 11     ecut=    30.00 Ry     beta=0.70
     Davidson diagonalization with overlap
     ethr =  3.74E-05,  avg # of iterations =  1.0

     negative rho (up, down):  1.060E-03 0.000E+00

     add environment contribution to local potential
     polarization accuracy = 3.8E-05, # of iterations =  24

     total cpu time spent up to now is      167.0 secs

     total energy              =     -79.53176994 Ry
     Harris-Foulkes estimate   =     -82.70304472 Ry
     estimated scf accuracy    <       0.00787336 Ry
     electrostatic embedding   =      -0.21771469 Ry
     PV energy                 =       0.01119037 Ry
     correction to one-el term =       3.37784796 Ry

     iteration # 12     ecut=    30.00 Ry     beta=0.70
     Davidson diagonalization with overlap
     ethr =  3.28E-05,  avg # of iterations =  1.0

     negative rho (up, down):  6.087E-04 0.000E+00

     add environment contribution to local potential
     polarization accuracy = 5.8E-05, # of iterations =  29

     total cpu time spent up to now is      180.1 secs

     total energy              =     -79.52819885 Ry
     Harris-Foulkes estimate   =     -82.73183288 Ry
     estimated scf accuracy    <       0.00752019 Ry
     electrostatic embedding   =      -0.22214724 Ry
     PV energy                 =       0.01119680 Ry
     correction to one-el term =       3.41589650 Ry

     iteration # 13     ecut=    30.00 Ry     beta=0.70
     Davidson diagonalization with overlap
     ethr =  3.13E-05,  avg # of iterations =  6.0

     negative rho (up, down):  4.286E-03 0.000E+00

     add environment contribution to local potential
     polarization accuracy = 5.5E-05, # of iterations =  28

     total cpu time spent up to now is      193.8 secs

     total energy              =     -84.54693719 Ry
     Harris-Foulkes estimate   =     -78.02893528 Ry
     estimated scf accuracy    <       1.15153827 Ry
     electrostatic embedding   =      -4.38784484 Ry
     PV energy                 =       0.01119237 Ry
     correction to one-el term =      -2.14123514 Ry

     iteration # 14     ecut=    30.00 Ry     beta=0.70
     Davidson diagonalization with overlap
     ethr =  3.13E-05,  avg # of iterations = 17.0

     negative rho (up, down):  8.272E-03 0.000E+00

     add environment contribution to local potential
     polarization accuracy = 5.7E-05, # of iterations =  31

     total cpu time spent up to now is      208.5 secs

     total energy              =     -88.38348802 Ry
     Harris-Foulkes estimate   =     -75.20366405 Ry
     estimated scf accuracy    <       3.98196975 Ry
     electrostatic embedding   =      -7.06179321 Ry
     PV energy                 =       0.01119149 Ry
     correction to one-el term =      -6.12028201 Ry

     iteration # 15     ecut=    30.00 Ry     beta=0.70
     Davidson diagonalization with overlap
     WARNING:     6 eigenvalues not converged in regterg
     WARNING:     1 eigenvalues not converged in regterg
     c_bands:  1 eigenvalues not converged
     ethr =  3.13E-05,  avg # of iterations = 40.0

     negative rho (up, down):  3.873E-02 0.000E+00

     add environment contribution to local potential
     polarization accuracy = 4.2E-05, # of iterations =  37

     total cpu time spent up to now is      226.7 secs

     total energy              =    -128.51443950 Ry
     Harris-Foulkes estimate   =     -67.74232153 Ry
     estimated scf accuracy    <      61.60303472 Ry
     electrostatic embedding   =     -24.29449489 Ry
     PV energy                 =       0.01119765 Ry
     correction to one-el term =     -36.14560362 Ry

     iteration # 16     ecut=    30.00 Ry     beta=0.70
     Davidson diagonalization with overlap
     WARNING:    11 eigenvalues not converged in regterg
     WARNING:     5 eigenvalues not converged in regterg
     c_bands:  5 eigenvalues not converged
     ethr =  3.13E-05,  avg # of iterations = 40.0

     negative rho (up, down):  5.130E-02 0.000E+00

     add environment contribution to local potential
     polarization accuracy = 9.6E-05, # of iterations =  36

     total cpu time spent up to now is      246.9 secs

     total energy              =    -642.35109691 Ry
     Harris-Foulkes estimate   =     -56.72737963 Ry
     estimated scf accuracy    <      85.38739036 Ry
     electrostatic embedding   =    -141.41511757 Ry
     PV energy                 =       0.01120173 Ry
     correction to one-el term =    -444.11573931 Ry

     iteration # 17     ecut=    30.00 Ry     beta=0.70
     Davidson diagonalization with overlap
     WARNING:    12 eigenvalues not converged in regterg
     WARNING:     8 eigenvalues not converged in regterg
     WARNING:     7 eigenvalues not converged in regterg
     WARNING:     1 eigenvalues not converged in regterg
     c_bands:  1 eigenvalues not converged
     ethr =  3.13E-05,  avg # of iterations = 80.0

     negative rho (up, down):  2.089E-01 0.000E+00

     total cpu time spent up to now is      260.2 secs

     total energy              =    -695.11126016 Ry
     Harris-Foulkes estimate   =    -799.48342033 Ry
     estimated scf accuracy    <     264.67721106 Ry
     electrostatic embedding   =     110.81767071 Ry
     PV energy                 =       0.01121342 Ry
     correction to one-el term =      -6.28820092 Ry

     iteration # 18     ecut=    30.00 Ry     beta=0.70
     Davidson diagonalization with overlap
     ethr =  3.13E-05,  avg # of iterations = 12.0

     negative rho (up, down):  2.757E-01 0.000E+00

     total cpu time spent up to now is      266.4 secs

     total energy              =    -694.99458378 Ry
     Harris-Foulkes estimate   =    -799.65352352 Ry
     estimated scf accuracy    <     264.68125543 Ry
     electrostatic embedding   =     110.86783980 Ry
     PV energy                 =       0.01121921 Ry
     correction to one-el term =      -6.19710761 Ry

     iteration # 19     ecut=    30.00 Ry     beta=0.70
     Davidson diagonalization with overlap
     ethr =  3.13E-05,  avg # of iterations =  1.0

     negative rho (up, down):  2.976E-01 0.000E+00

     total cpu time spent up to now is      272.2 secs

     total energy              =    -694.75789008 Ry
     Harris-Foulkes estimate   =    -799.67661188 Ry
     estimated scf accuracy    <     264.68200629 Ry
     electrostatic embedding   =     110.84093833 Ry
     PV energy                 =       0.01122607 Ry
     correction to one-el term =      -5.90271270 Ry

     iteration # 20     ecut=    30.00 Ry     beta=0.70
     Davidson diagonalization with overlap
     ethr =  3.13E-05,  avg # of iterations =  1.0

     negative rho (up, down):  3.028E-01 0.000E+00

     total cpu time spent up to now is      278.2 secs

     total energy              =    -691.51706881 Ry
     Harris-Foulkes estimate   =    -799.70738812 Ry
     estimated scf accuracy    <     264.69389237 Ry
     electrostatic embedding   =     110.42894927 Ry
     PV energy                 =       0.01125077 Ry
     correction to one-el term =      -2.08869372 Ry

     iteration # 21     ecut=    30.00 Ry     beta=0.70
     Davidson diagonalization with overlap
     ethr =  3.13E-05,  avg # of iterations =  1.0

     negative rho (up, down):  4.136E-01 0.000E+00

     total cpu time spent up to now is      284.0 secs

     total energy              =    -682.69765595 Ry
     Harris-Foulkes estimate   =    -799.86861236 Ry
     estimated scf accuracy    <     264.69748505 Ry
     electrostatic embedding   =     106.97590800 Ry
     PV energy                 =       0.01183239 Ry
     correction to one-el term =      11.29450008 Ry

     iteration # 22     ecut=    30.00 Ry     beta=0.70
     Davidson diagonalization with overlap
     ethr =  3.13E-05,  avg # of iterations =  3.0

     negative rho (up, down):  5.503E-01 0.000E+00

     total cpu time spent up to now is      289.9 secs

     total energy              =    -671.99819034 Ry
     Harris-Foulkes estimate   =    -800.98053229 Ry
     estimated scf accuracy    <     264.86076030 Ry
     electrostatic embedding   =     104.66409123 Ry
     PV energy                 =       0.01200680 Ry
     correction to one-el term =      25.44824075 Ry

     iteration # 23     ecut=    30.00 Ry     beta=0.70
     Davidson diagonalization with overlap
     ethr =  3.13E-05,  avg # of iterations = 16.0

     negative rho (up, down):  1.247E+00 0.000E+00

     total cpu time spent up to now is      296.8 secs

     total energy              =    -552.84694909 Ry
     Harris-Foulkes estimate   =    -802.15166856 Ry
     estimated scf accuracy    <     265.72557416 Ry
     electrostatic embedding   =      91.25064891 Ry
     PV energy                 =       0.00906833 Ry
     correction to one-el term =     152.97774675 Ry

     iteration # 24     ecut=    30.00 Ry     beta=0.70
     Davidson diagonalization with overlap
     WARNING:     2 eigenvalues not converged in regterg
     c_bands:  2 eigenvalues not converged
     ethr =  3.13E-05,  avg # of iterations = 20.0

     negative rho (up, down):  1.590E+00 0.000E+00

     total cpu time spent up to now is      304.0 secs

     total energy              =    -533.41754417 Ry
     Harris-Foulkes estimate   =    -797.63981382 Ry
     estimated scf accuracy    <     254.19468848 Ry
     electrostatic embedding   =      87.83790941 Ry
     PV energy                 =       0.00526090 Ry
     correction to one-el term =     188.04452418 Ry

     iteration # 25     ecut=    30.00 Ry     beta=0.70
     Davidson diagonalization with overlap
     WARNING:     2 eigenvalues not converged in regterg
     c_bands:  2 eigenvalues not converged
     ethr =  3.13E-05,  avg # of iterations = 20.0

     negative rho (up, down):  9.978E-01 0.000E+00

     total cpu time spent up to now is      311.2 secs

     total energy              =    -106.50386275 Ry
     Harris-Foulkes estimate   =    -810.04765035 Ry
     estimated scf accuracy    <     259.47841388 Ry
     electrostatic embedding   =    -156.58823249 Ry
     PV energy                 =       0.00802123 Ry
     correction to one-el term =     635.02503221 Ry

     iteration # 26     ecut=    30.00 Ry     beta=0.70
     Davidson diagonalization with overlap
     WARNING:     8 eigenvalues not converged in regterg
     WARNING:     8 eigenvalues not converged in regterg
     WARNING:     8 eigenvalues not converged in regterg
     WARNING:     3 eigenvalues not converged in regterg
     c_bands:  3 eigenvalues not converged
     ethr =  3.13E-05,  avg # of iterations = 80.0

     negative rho (up, down):  3.685E-01 0.000E+00

     add environment contribution to local potential
 Warning: Polarization charge not converged
     polarization accuracy = 5.9E+05, # of iterations = 201

     total cpu time spent up to now is      371.4 secs

     total energy              =      20.87414062 Ry
     Harris-Foulkes estimate   =    -599.05714108 Ry
     estimated scf accuracy    <      10.58804540 Ry
     electrostatic embedding   =    -203.37800157 Ry
     PV energy                 =       0.00378092 Ry
     correction to one-el term =     815.11030354 Ry

     iteration # 27     ecut=    30.00 Ry     beta=0.70
     Davidson diagonalization with overlap
     WARNING:    11 eigenvalues not converged in regterg
     WARNING:    11 eigenvalues not converged in regterg
     WARNING:    11 eigenvalues not converged in regterg
     WARNING:    11 eigenvalues not converged in regterg
     WARNING:    11 eigenvalues not converged in regterg
     WARNING:    11 eigenvalues not converged in regterg

 %%%%%%%%%%%%%%%%%%%%%%%%%%%%%%%%%%%%%%%%%%%%%%%%%%%%%%%%%%%%%%%%%%%%%%%%%%%%%%
     Error in routine c_bands (1):
     too many bands are not converged
 %%%%%%%%%%%%%%%%%%%%%%%%%%%%%%%%%%%%%%%%%%%%%%%%%%%%%%%%%%%%%%%%%%%%%%%%%%%%%%

     stopping ...

%%%% IONS %%%%%%%%%%%%%%%%%%%%%%%%%%%%%%%%%%%%%%%%%%%%%%%%%%%%%%%%%%%%%%%%%%%%%%
 number of ions             =          8
 ionic center of charge     =      0.0082412     0.0000001     0.0199910
 total ionic charge         =    -23.0000000
 ionic dipole               =      0.0000000     0.0000000     0.0000000
 ionic quadrupole (pc)      =    -70.6147067    -5.4513517   -84.5532413
 ionic quadrupole (gauss)   =    -73.4897067    -8.3263517   -87.4282413
 ion   1 type =  1 coordinates =      0.0000000     0.0000000     0.0000000
 ion   2 type =  1 coordinates =      0.0000000     0.0000000     2.9101782
 ion   3 type =  3 coordinates =      2.3419379     0.0000000    -1.0900479
 ion   4 type =  2 coordinates =      0.9532347    -1.6509323     3.5841800
 ion   5 type =  2 coordinates =     -1.9063663    -0.0000596     3.5841809
 ion   6 type =  2 coordinates =      0.9531315     1.6509919     3.5841800
 ion   7 type =  4 coordinates =     -1.9680045    -0.0000375    -1.2826193
 ion   8 type =  2 coordinates =      3.8892907     0.0002681    -0.0514326

%%%% SYSTEM %%%%%%%%%%%%%%%%%%%%%%%%%%%%%%%%%%%%%%%%%%%%%%%%%%%%%%%%%%%%%%%%%%%%
 system is built from all present ionic types
 system defined dimension   =  0 
 system defined axis        =  3 
 system center              =      0.0082412     0.0000001     0.0199910 
 system width               =      0.4368498 

%%%% ELECTRONS %%%%%%%%%%%%%%%%%%%%%%%%%%%%%%%%%%%%%%%%%%%%%%%%%%%%%%%%%%%%%%%%%
 number of electrons        =         24
 total electronic charge    =     24.0000000
 number of spin components  =  1

%%%% BOUNDARY %%%%%%%%%%%%%%%%%%%%%%%%%%%%%%%%%%%%%%%%%%%%%%%%%%%%%%%%%%%%%%%%%%
 boundary mode              = electronic           
 boundary is built as a function of a smooth density
 function type              =  2 
 using the modified SCCS function with parameters 
 rhomax                     =      0.0155000 
 rhomin                     =      0.0024000 

%%%% DIELECTRIC %%%%%%%%%%%%%%%%%%%%%%%%%%%%%%%%%%%%%%%%%%%%%%%%%%%%%%%%%%%%%%%%%
 dielectric build on homogeneous background
 environment bulk permitt.  =     78.3000000 
 dielectric flags
 need gradient              =  F 
 need factor depend. sqrt   =  T 
 need gradient of logarithm =  T 

%%%% COMPUTE ELECTROSTATIC POTENTIAL %%%%%%%%%%%%%%%%%%%%%%%%%%%%%%%%%%%%%%%%%%%
 Iteration #          1
  pAp =  93.1532421608229  rzold =  91.2538720959544  alpha =  0.9796102634668437
 delta_qm =   0.463868E-01 delta_en =   0.371819E+04 tol =   0.100000E-03
 Iteration #          2
  pAp =  339.9898996705524  rzold =  22.770757437437492  alpha =  0.06697480560305522
 delta_qm =   0.137680E-01 delta_en =   0.327557E+03 tol =   0.100000E-03
 Iteration #          3
  pAp =  11.63925450308773  rzold =  1.2162065978359364  alpha =  0.10449179520159937
 delta_qm =   0.519839E-02 delta_en =   0.466962E+02 tol =   0.100000E-03
 Iteration #          4
  pAp =  2.869007976198393  rzold =  0.28329657999939073  alpha =  0.09874374081551897
 delta_qm =   0.345612E-02 delta_en =   0.206406E+02 tol =   0.100000E-03
 Iteration #          5
  pAp =  0.11488646334776206  rzold =  0.018107226864536544  alpha =  0.15760975085224663
 delta_qm =   0.288401E-02 delta_en =   0.143726E+02 tol =   0.100000E-03
 Iteration #          6
  pAp =  0.021360233382609464  rzold =  0.004656004273536336  alpha =  0.21797534653001704
 delta_qm =   0.239055E-02 delta_en =   0.987504E+01 tol =   0.100000E-03
 Iteration #          7
  pAp =  0.021062926559958152  rzold =  0.004331196027097282  alpha =  0.20563125521840528
 delta_qm =   0.181424E-02 delta_en =   0.568765E+01 tol =   0.100000E-03
 Iteration #          8
  pAp =  0.009627186923829618  rzold =  0.0024876361678443943  alpha =  0.2583969946285028
 delta_qm =   0.139854E-02 delta_en =   0.337982E+01 tol =   0.100000E-03
 Iteration #          9
  pAp =  0.0032150881117735926  rzold =  0.001370904162168951  alpha =  0.42639707358212847
 delta_qm =   0.109289E-02 delta_en =   0.206393E+01 tol =   0.100000E-03
 Iteration #         10
  pAp =  0.0033730158757296217  rzold =  0.0012964607390706646  alpha =  0.38436247762700654
 delta_qm =   0.724107E-03 delta_en =   0.906043E+00 tol =   0.100000E-03
 Iteration #         11
  pAp =  0.003914076730612454  rzold =  0.0011900510181156838  alpha =  0.30404386526410043
 delta_qm =   0.415757E-03 delta_en =   0.298692E+00 tol =   0.100000E-03
 Iteration #         12
  pAp =  0.0024236367196015973  rzold =  0.000538947038589566  alpha =  0.2223712135695647
 delta_qm =   0.236646E-03 delta_en =   0.967704E-01 tol =   0.100000E-03
 Iteration #         13
  pAp =  0.0002503001509819209  rzold =  0.00007204692158947713  alpha =  0.287842101999695
 delta_qm =   0.198530E-03 delta_en =   0.681079E-01 tol =   0.100000E-03
 Iteration #         14
  pAp =  0.000060449876822924756  rzold =  0.000016578269125781078  alpha =  0.2742481870450066
 delta_qm =   0.154014E-03 delta_en =   0.409887E-01 tol =   0.100000E-03
 Iteration #         15
  pAp =  0.00005272639612492225  rzold =  0.00001254500720870711  alpha =  0.2379265060897543
 delta_qm =   0.115854E-03 delta_en =   0.231936E-01 tol =   0.100000E-03
 Iteration #         16
  pAp =  0.000021149908539962193  rzold =  0.000007581828844315414  alpha =  0.3584804553641331
 delta_qm =   0.888266E-04 delta_en =   0.136342E-01 tol =   0.100000E-03
 Iteration #         17
  pAp =  0.000019923945813051053  rzold =  0.000006231645157668321  alpha =  0.31277163751300313
 delta_qm =   0.566596E-04 delta_en =   0.554742E-02 tol =   0.100000E-03
 Iteration #         18
  pAp =  0.000007134830595456241  rzold =  0.00000263869402315071  alpha =  0.36983275045537045
 delta_qm =   0.444544E-04 delta_en =   0.341486E-02 tol =   0.100000E-03
 Iteration #         19
  pAp =  0.0000029574152868389912  rzold =  0.000001055920004439621  alpha =  0.3570415048365535
 delta_qm =   0.261569E-04 delta_en =   0.118227E-02 tol =   0.100000E-03
 Iteration #         20
  pAp =  0.0000011347424427684017  rzold =  4.3133597315790526E-7  alpha =  0.3801179517931717
 delta_qm =   0.143856E-04 delta_en =   0.357601E-03 tol =   0.100000E-03
 Iteration #         21
  pAp =  2.7916834074684154E-7  rzold =  1.0388402102417476E-7  alpha =  0.37211963486353916
 delta_qm =   0.927129E-05 delta_en =   0.148533E-03 tol =   0.100000E-03
 Iteration #         22
  pAp =  1.5551907274847426E-7  rzold =  3.9344828646038716E-8  alpha =  0.252990375718561
 delta_qm =   0.800997E-05 delta_en =   0.110868E-03 tol =   0.100000E-03
 Iteration #         23
  pAp =  5.409080766914066E-7  rzold =  7.41316283145892E-8  alpha =  0.13705032612571252
 delta_qm =   0.622862E-05 delta_en =   0.670390E-04 tol =   0.100000E-03
 Charges are converged, exit!

%%%% ELECTRONS %%%%%%%%%%%%%%%%%%%%%%%%%%%%%%%%%%%%%%%%%%%%%%%%%%%%%%%%%%%%%%%%%
 number of electrons        =         24
 total electronic charge    =     24.0000000
 number of spin components  =  1

%%%% BOUNDARY %%%%%%%%%%%%%%%%%%%%%%%%%%%%%%%%%%%%%%%%%%%%%%%%%%%%%%%%%%%%%%%%%%
 boundary mode              = electronic           
 boundary is built as a function of a smooth density
 function type              =  2 
 using the modified SCCS function with parameters 
 rhomax                     =      0.0155000 
 rhomin                     =      0.0024000 

%%%% DIELECTRIC %%%%%%%%%%%%%%%%%%%%%%%%%%%%%%%%%%%%%%%%%%%%%%%%%%%%%%%%%%%%%%%%%
 dielectric build on homogeneous background
 environment bulk permitt.  =     78.3000000 
 dielectric flags
 need gradient              =  F 
 need factor depend. sqrt   =  T 
 need gradient of logarithm =  T 

%%%% COMPUTE ELECTROSTATIC POTENTIAL %%%%%%%%%%%%%%%%%%%%%%%%%%%%%%%%%%%%%%%%%%%
 Warning: bad guess with residual norm =   0.186010E+05, reset to no guess
 Iteration #          1
  pAp =  87.54822760271715  rzold =  90.56670870699999  alpha =  1.0344779236192003
 delta_qm =   0.893025E-01 delta_en =   0.137807E+05 tol =   0.100000E-03
 Iteration #          2
  pAp =  380.5550410825091  rzold =  30.739920156407738  alpha =  0.08077654172959159
 delta_qm =   0.751666E-01 delta_en =   0.976324E+04 tol =   0.100000E-03
 Iteration #          3
  pAp =  10.506833967720425  rzold =  5.465937079652125  alpha =  0.520226844399067
 delta_qm =   0.795087E-01 delta_en =   0.109238E+05 tol =   0.100000E-03
 Iteration #          4
  pAp =  111.91890783066285  rzold =  25.860064395562052  alpha =  0.23106072867230995
 delta_qm =   0.813992E-01 delta_en =   0.114494E+05 tol =   0.100000E-03
 Iteration #          5
  pAp =  130.3558270107054  rzold =  31.631338516636255  alpha =  0.2426538133507338
 delta_qm =   0.288432E-01 delta_en =   0.143758E+04 tol =   0.100000E-03
 Iteration #          6
  pAp =  33.32052252756786  rzold =  5.3156696037222275  alpha =  0.15953139988498943
 delta_qm =   0.104824E-01 delta_en =   0.189872E+03 tol =   0.100000E-03
 Iteration #          7
  pAp =  2.934678712220313  rzold =  0.3833537407036038  alpha =  0.13062886206496072
 delta_qm =   0.658389E-02 delta_en =   0.749047E+02 tol =   0.100000E-03
 Iteration #          8
  pAp =  0.6528712281631666  rzold =  0.09151829772876678  alpha =  0.14017817569668484
 delta_qm =   0.503124E-02 delta_en =   0.437415E+02 tol =   0.100000E-03
 Iteration #          9
  pAp =  0.09970037610660144  rzold =  0.028875682999802633  alpha =  0.2896246145443647
 delta_qm =   0.248071E-02 delta_en =   0.106340E+02 tol =   0.100000E-03
 Iteration #         10
  pAp =  0.026484969401981  rzold =  0.007757387145384455  alpha =  0.2928977197460618
 delta_qm =   0.155387E-02 delta_en =   0.417226E+01 tol =   0.100000E-03
 Iteration #         11
  pAp =  0.0065102913232801245  rzold =  0.0020001544468761425  alpha =  0.30722963805379927
 delta_qm =   0.119020E-02 delta_en =   0.244784E+01 tol =   0.100000E-03
 Iteration #         12
  pAp =  0.0016774149322360031  rzold =  0.000668179121767425  alpha =  0.3983386036016376
 delta_qm =   0.111105E-02 delta_en =   0.213310E+01 tol =   0.100000E-03
 Iteration #         13
  pAp =  0.002023638433674403  rzold =  0.0008556568634563674  alpha =  0.4228309016165087
 delta_qm =   0.788772E-03 delta_en =   0.107510E+01 tol =   0.100000E-03
 Iteration #         14
  pAp =  0.0033068455854288565  rzold =  0.0009924273367216156  alpha =  0.3001129962326046
 delta_qm =   0.568016E-03 delta_en =   0.557527E+00 tol =   0.100000E-03
 Iteration #         15
  pAp =  0.003193975264624736  rzold =  0.0006797553386949514  alpha =  0.21282423387045757
 delta_qm =   0.439173E-03 delta_en =   0.333284E+00 tol =   0.100000E-03
 Iteration #         16
  pAp =  0.0007588568914724459  rzold =  0.00017377736217707497  alpha =  0.22899885884924434
 delta_qm =   0.328459E-03 delta_en =   0.186426E+00 tol =   0.100000E-03
 Iteration #         17
  pAp =  0.0002824269010612538  rzold =  0.000060818291655756864  alpha =  0.21534170940241407
 delta_qm =   0.254833E-03 delta_en =   0.112216E+00 tol =   0.100000E-03
 Iteration #         18
  pAp =  0.00006209956308463308  rzold =  0.000020486830127490877  alpha =  0.32990296726516694
 delta_qm =   0.147751E-03 delta_en =   0.377229E-01 tol =   0.100000E-03
 Iteration #         19
  pAp =  0.000017933542108126007  rzold =  0.000007500296628825028  alpha =  0.4182272851399786
 delta_qm =   0.922940E-04 delta_en =   0.147194E-01 tol =   0.100000E-03
 Iteration #         20
  pAp =  0.000009113554979065973  rzold =  0.000003764307803215259  alpha =  0.4130449436978164
 delta_qm =   0.646049E-04 delta_en =   0.721232E-02 tol =   0.100000E-03
 Iteration #         21
  pAp =  0.000002930761532691874  rzold =  0.0000016250509300775086  alpha =  0.5544807763956545
 delta_qm =   0.462796E-04 delta_en =   0.370104E-02 tol =   0.100000E-03
 Iteration #         22
  pAp =  0.0000023726669826922767  rzold =  0.0000010515474986335763  alpha =  0.44319219945496957
 delta_qm =   0.278113E-04 delta_en =   0.133655E-02 tol =   0.100000E-03
 Iteration #         23
  pAp =  0.0000017764085840679736  rzold =  4.445788067657565E-7  alpha =  0.2502683283300014
 delta_qm =   0.197139E-04 delta_en =   0.671566E-03 tol =   0.100000E-03
 Iteration #         24
  pAp =  0.000002622882080961134  rzold =  3.2051711800741883E-7  alpha =  0.1222003537002197
 delta_qm =   0.164692E-04 delta_en =   0.468693E-03 tol =   0.100000E-03
 Iteration #         25
  pAp =  0.0000011799442994205053  rzold =  1.7618997160144114E-7  alpha =  0.14932058376651478
 delta_qm =   0.125118E-04 delta_en =   0.270510E-03 tol =   0.100000E-03
 Iteration #         26
  pAp =  1.2609915797151025E-7  rzold =  4.87278649032742E-8  alpha =  0.3864249824275857
 delta_qm =   0.823106E-05 delta_en =   0.117073E-03 tol =   0.100000E-03
 Iteration #         27
  pAp =  5.7730690980085025E-8  rzold =  2.9193297610424816E-8  alpha =  0.5056807239756654
 delta_qm =   0.514138E-05 delta_en =   0.456777E-04 tol =   0.100000E-03
 Charges are converged, exit!

%%%% ELECTRONS %%%%%%%%%%%%%%%%%%%%%%%%%%%%%%%%%%%%%%%%%%%%%%%%%%%%%%%%%%%%%%%%%
 number of electrons        =         24
 total electronic charge    =     24.0000000
 number of spin components  =  1

%%%% BOUNDARY %%%%%%%%%%%%%%%%%%%%%%%%%%%%%%%%%%%%%%%%%%%%%%%%%%%%%%%%%%%%%%%%%%
 boundary mode              = electronic           
 boundary is built as a function of a smooth density
 function type              =  2 
 using the modified SCCS function with parameters 
 rhomax                     =      0.0155000 
 rhomin                     =      0.0024000 

%%%% DIELECTRIC %%%%%%%%%%%%%%%%%%%%%%%%%%%%%%%%%%%%%%%%%%%%%%%%%%%%%%%%%%%%%%%%%
 dielectric build on homogeneous background
 environment bulk permitt.  =     78.3000000 
 dielectric flags
 need gradient              =  F 
 need factor depend. sqrt   =  T 
 need gradient of logarithm =  T 

%%%% COMPUTE ELECTROSTATIC POTENTIAL %%%%%%%%%%%%%%%%%%%%%%%%%%%%%%%%%%%%%%%%%%%
 Warning: bad guess with residual norm =   0.144996E+05, reset to no guess
 Iteration #          1
  pAp =  91.87106740695366  rzold =  89.91382224251393  alpha =  0.9786957393695027
 delta_qm =   0.486233E-01 delta_en =   0.408538E+04 tol =   0.100000E-03
 Iteration #          2
  pAp =  343.9489228601918  rzold =  23.986994214435377  alpha =  0.06973998934192215
 delta_qm =   0.107612E-01 delta_en =   0.200109E+03 tol =   0.100000E-03
 Iteration #          3
  pAp =  6.178171015988803  rzold =  0.6282480434824014  alpha =  0.10168835434573215
 delta_qm =   0.389201E-02 delta_en =   0.261753E+02 tol =   0.100000E-03
 Iteration #          4
  pAp =  1.8629324154868592  rzold =  0.16791874190349193  alpha =  0.09013678677098332
 delta_qm =   0.351938E-02 delta_en =   0.214031E+02 tol =   0.100000E-03
 Iteration #          5
  pAp =  0.0642388503413549  rzold =  0.011611997087820755  alpha =  0.18076284096176182
 delta_qm =   0.294598E-02 delta_en =   0.149970E+02 tol =   0.100000E-03
 Iteration #          6
  pAp =  0.008239828337019452  rzold =  0.0030022931092590624  alpha =  0.36436355060584497
 delta_qm =   0.224399E-02 delta_en =   0.870131E+01 tol =   0.100000E-03
 Iteration #          7
  pAp =  0.020080989321772533  rzold =  0.004092365240913618  alpha =  0.20379300916596413
 delta_qm =   0.174977E-02 delta_en =   0.529063E+01 tol =   0.100000E-03
 Iteration #          8
  pAp =  0.013975272474209271  rzold =  0.0027355052102805643  alpha =  0.19573895359312776
 delta_qm =   0.148983E-02 delta_en =   0.383546E+01 tol =   0.100000E-03
 Iteration #          9
  pAp =  0.0023802216662326837  rzold =  0.0013164701074168306  alpha =  0.5530871876737787
 delta_qm =   0.104918E-02 delta_en =   0.190215E+01 tol =   0.100000E-03
 Iteration #         10
  pAp =  0.00335906570693371  rzold =  0.0014113910754885817  alpha =  0.42017370263856973
 delta_qm =   0.527260E-03 delta_en =   0.480390E+00 tol =   0.100000E-03
 Iteration #         11
  pAp =  0.002323194987730128  rzold =  0.0006326111860483802  alpha =  0.2723022343752865
 delta_qm =   0.316949E-03 delta_en =   0.173589E+00 tol =   0.100000E-03
 Iteration #         12
  pAp =  0.0006241670989543725  rzold =  0.00011964854058719392  alpha =  0.19169312318389342
 delta_qm =   0.225946E-03 delta_en =   0.882169E-01 tol =   0.100000E-03
 Iteration #         13
  pAp =  0.00013400843143724072  rzold =  0.00003379038655732295  alpha =  0.25215119821134374
 delta_qm =   0.190883E-03 delta_en =   0.629621E-01 tol =   0.100000E-03
 Iteration #         14
  pAp =  0.00004771693051211373  rzold =  0.000014183510279346814  alpha =  0.2972427213386263
 delta_qm =   0.163041E-03 delta_en =   0.459346E-01 tol =   0.100000E-03
 Iteration #         15
  pAp =  0.0000414293480241005  rzold =  0.000012993185426332098  alpha =  0.3136227347525149
 delta_qm =   0.105956E-03 delta_en =   0.193998E-01 tol =   0.100000E-03
 Iteration #         16
  pAp =  0.00003563969141076442  rzold =  0.000009680653007103796  alpha =  0.2716256124535327
 delta_qm =   0.776181E-04 delta_en =   0.104104E-01 tol =   0.100000E-03
 Iteration #         17
  pAp =  0.00002125072508729098  rzold =  0.00000576858545197276  alpha =  0.2714535823261235
 delta_qm =   0.692572E-04 delta_en =   0.828846E-02 tol =   0.100000E-03
 Iteration #         18
  pAp =  0.000006581047858692858  rzold =  0.0000024696839669423186  alpha =  0.3752721481397725
 delta_qm =   0.388287E-04 delta_en =   0.260525E-02 tol =   0.100000E-03
 Iteration #         19
  pAp =  0.0000024283538467528225  rzold =  8.780150742287688E-7  alpha =  0.36156801258714594
 delta_qm =   0.210412E-04 delta_en =   0.765042E-03 tol =   0.100000E-03
 Iteration #         20
  pAp =  8.75432244854147E-7  rzold =  3.030927476501082E-7  alpha =  0.34622068062001254
 delta_qm =   0.144192E-04 delta_en =   0.359275E-03 tol =   0.100000E-03
 Iteration #         21
  pAp =  1.687518276786152E-7  rzold =  6.857957400994463E-8  alpha =  0.4063930740978592
 delta_qm =   0.971154E-05 delta_en =   0.162975E-03 tol =   0.100000E-03
 Iteration #         22
  pAp =  2.1513292504549164E-7  rzold =  4.295847355234195E-8  alpha =  0.19968339826764323
 delta_qm =   0.863738E-05 delta_en =   0.128916E-03 tol =   0.100000E-03
 Iteration #         23
  pAp =  3.860961352101045E-7  rzold =  7.525214372609642E-8  alpha =  0.19490519811897614
 delta_qm =   0.600457E-05 delta_en =   0.623027E-04 tol =   0.100000E-03
 Charges are converged, exit!

%%%% ELECTRONS %%%%%%%%%%%%%%%%%%%%%%%%%%%%%%%%%%%%%%%%%%%%%%%%%%%%%%%%%%%%%%%%%
 number of electrons        =         24
 total electronic charge    =     24.0000000
 number of spin components  =  1

%%%% BOUNDARY %%%%%%%%%%%%%%%%%%%%%%%%%%%%%%%%%%%%%%%%%%%%%%%%%%%%%%%%%%%%%%%%%%
 boundary mode              = electronic           
 boundary is built as a function of a smooth density
 function type              =  2 
 using the modified SCCS function with parameters 
 rhomax                     =      0.0155000 
 rhomin                     =      0.0024000 

%%%% DIELECTRIC %%%%%%%%%%%%%%%%%%%%%%%%%%%%%%%%%%%%%%%%%%%%%%%%%%%%%%%%%%%%%%%%%
 dielectric build on homogeneous background
 environment bulk permitt.  =     78.3000000 
 dielectric flags
 need gradient              =  F 
 need factor depend. sqrt   =  T 
 need gradient of logarithm =  T 

%%%% COMPUTE ELECTROSTATIC POTENTIAL %%%%%%%%%%%%%%%%%%%%%%%%%%%%%%%%%%%%%%%%%%%
 Warning: bad guess with residual norm =   0.187583E+06, reset to no guess
 Iteration #          1
  pAp =  75.46171486800924  rzold =  90.171023151313  alpha =  1.1949241189261592
 delta_qm =   0.326250E+00 delta_en =   0.183927E+06 tol =   0.100000E-03
 Iteration #          2
  pAp =  485.72869645447344  rzold =  114.70943283183489  alpha =  0.23615947270388712
 delta_qm =   0.546104E+00 delta_en =   0.515341E+06 tol =   0.100000E-03
 Iteration #          3
  pAp =  -2938.256549057774  rzold =  409.7502241643796  alpha =  -0.1394535219519127
 delta_qm =   0.609153E-01 delta_en =   0.641204E+04 tol =   0.100000E-03
 Iteration #          4
  pAp =  244.48012053712955  rzold =  23.00947398568624  alpha =  0.09411593030604612
 delta_qm =   0.218079E-01 delta_en =   0.821812E+03 tol =   0.100000E-03
 Iteration #          5
  pAp =  61.55188783770055  rzold =  4.686579244959823  alpha =  0.07614030064061321
 delta_qm =   0.774755E-02 delta_en =   0.103722E+03 tol =   0.100000E-03
 Iteration #          6
  pAp =  1.9056281239371005  rzold =  0.2793546258965049  alpha =  0.14659451253235473
 delta_qm =   0.421343E-02 delta_en =   0.306771E+02 tol =   0.100000E-03
 Iteration #          7
  pAp =  0.1397311697857284  rzold =  0.02260343709442165  alpha =  0.16176374340158342
 delta_qm =   0.358013E-02 delta_en =   0.221483E+02 tol =   0.100000E-03
 Iteration #          8
  pAp =  0.06010850777178593  rzold =  0.010633825415696062  alpha =  0.1769104875481109
 delta_qm =   0.310975E-02 delta_en =   0.167107E+02 tol =   0.100000E-03
 Iteration #          9
  pAp =  0.021833332741027552  rzold =  0.006990267434208084  alpha =  0.3201649293363491
 delta_qm =   0.244576E-02 delta_en =   0.103365E+02 tol =   0.100000E-03
 Iteration #         10
  pAp =  0.006934359354320642  rzold =  0.0031109890771375574  alpha =  0.4486339571079729
 delta_qm =   0.211283E-02 delta_en =   0.771390E+01 tol =   0.100000E-03
 Iteration #         11
  pAp =  0.005115405499190939  rzold =  0.002576691935932568  alpha =  0.5037121566100872
 delta_qm =   0.150054E-02 delta_en =   0.389080E+01 tol =   0.100000E-03
 Iteration #         12
  pAp =  0.007561321549144636  rzold =  0.0027411938169799436  alpha =  0.362528401836057
 delta_qm =   0.924608E-03 delta_en =   0.147727E+01 tol =   0.100000E-03
 Iteration #         13
  pAp =  0.009685003051952681  rzold =  0.002002687131697339  alpha =  0.20678229226717273
 delta_qm =   0.520268E-03 delta_en =   0.467732E+00 tol =   0.100000E-03
 Iteration #         14
  pAp =  0.001732867552122384  rzold =  0.00042064287546868793  alpha =  0.24274381210121476
 delta_qm =   0.362055E-03 delta_en =   0.226512E+00 tol =   0.100000E-03
 Iteration #         15
  pAp =  0.0005794005679744557  rzold =  0.00011448829598855271  alpha =  0.19759783182262985
 delta_qm =   0.330135E-03 delta_en =   0.188333E+00 tol =   0.100000E-03
 Iteration #         16
  pAp =  0.0001527480422681719  rzold =  0.00004023426040581392  alpha =  0.26340278938028344
 delta_qm =   0.261535E-03 delta_en =   0.118196E+00 tol =   0.100000E-03
 Iteration #         17
  pAp =  0.00012186664306315355  rzold =  0.000030851237352234506  alpha =  0.253155716583141
 delta_qm =   0.173162E-03 delta_en =   0.518145E-01 tol =   0.100000E-03
 Iteration #         18
  pAp =  0.00005266496623206124  rzold =  0.00002045269629806384  alpha =  0.3883548734834791
 delta_qm =   0.132276E-03 delta_en =   0.302349E-01 tol =   0.100000E-03
 Iteration #         19
  pAp =  0.000029755729132048865  rzold =  0.000012005591213502867  alpha =  0.40347158559700896
 delta_qm =   0.105475E-03 delta_en =   0.192240E-01 tol =   0.100000E-03
 Iteration #         20
  pAp =  0.000013676636720318733  rzold =  0.000005053509966702739  alpha =  0.36949946613665463
 delta_qm =   0.749774E-04 delta_en =   0.971415E-02 tol =   0.100000E-03
 Iteration #         21
  pAp =  0.000005213663747389934  rzold =  0.0000021512543875604367  alpha =  0.41261855228722766
 delta_qm =   0.425561E-04 delta_en =   0.312945E-02 tol =   0.100000E-03
 Iteration #         22
  pAp =  0.0000017332460135530805  rzold =  7.002074729422898E-7  alpha =  0.40398620130496904
 delta_qm =   0.242188E-04 delta_en =   0.101356E-02 tol =   0.100000E-03
 Iteration #         23
  pAp =  5.483549951576649E-7  rzold =  2.2990800879208134E-7  alpha =  0.4192685592769651
 delta_qm =   0.184741E-04 delta_en =   0.589752E-03 tol =   0.100000E-03
 Iteration #         24
  pAp =  0.0000019894921507827566  rzold =  2.3166891316725903E-7  alpha =  0.11644625643589997
 delta_qm =   0.174205E-04 delta_en =   0.524402E-03 tol =   0.100000E-03
 Iteration #         25
  pAp =  6.910457723873875E-7  rzold =  1.8040697035851332E-7  alpha =  0.2610637060049627
 delta_qm =   0.130975E-04 delta_en =   0.296428E-03 tol =   0.100000E-03
 Iteration #         26
  pAp =  5.417259356471503E-7  rzold =  1.3806199567541925E-7  alpha =  0.25485579809002357
 delta_qm =   0.962173E-05 delta_en =   0.159974E-03 tol =   0.100000E-03
 Iteration #         27
  pAp =  1.6217355497350844E-7  rzold =  5.444762370775449E-8  alpha =  0.3357367587868976
 delta_qm =   0.725715E-05 delta_en =   0.910072E-04 tol =   0.100000E-03
 Charges are converged, exit!

%%%% ELECTRONS %%%%%%%%%%%%%%%%%%%%%%%%%%%%%%%%%%%%%%%%%%%%%%%%%%%%%%%%%%%%%%%%%
 number of electrons        =         24
 total electronic charge    =     24.0000000
 number of spin components  =  1

%%%% BOUNDARY %%%%%%%%%%%%%%%%%%%%%%%%%%%%%%%%%%%%%%%%%%%%%%%%%%%%%%%%%%%%%%%%%%
 boundary mode              = electronic           
 boundary is built as a function of a smooth density
 function type              =  2 
 using the modified SCCS function with parameters 
 rhomax                     =      0.0155000 
 rhomin                     =      0.0024000 

%%%% DIELECTRIC %%%%%%%%%%%%%%%%%%%%%%%%%%%%%%%%%%%%%%%%%%%%%%%%%%%%%%%%%%%%%%%%%
 dielectric build on homogeneous background
 environment bulk permitt.  =     78.3000000 
 dielectric flags
 need gradient              =  F 
 need factor depend. sqrt   =  T 
 need gradient of logarithm =  T 

%%%% COMPUTE ELECTROSTATIC POTENTIAL %%%%%%%%%%%%%%%%%%%%%%%%%%%%%%%%%%%%%%%%%%%
 Warning: bad guess with residual norm =   0.204413E+05, reset to no guess
 Iteration #          1
  pAp =  92.88064914512893  rzold =  90.13440358842067  alpha =  0.9704325326966959
 delta_qm =   0.560357E-01 delta_en =   0.542592E+04 tol =   0.100000E-03
 Iteration #          2
  pAp =  477.82722016567504  rzold =  33.244117387047865  alpha =  0.06957351106017207
 delta_qm =   0.125718E-01 delta_en =   0.273109E+03 tol =   0.100000E-03
 Iteration #          3
  pAp =  11.893679920598402  rzold =  1.0843354269343735  alpha =  0.09116904391015575
 delta_qm =   0.488497E-02 delta_en =   0.412351E+02 tol =   0.100000E-03
 Iteration #          4
  pAp =  2.8070782745828646  rzold =  0.26272966206738424  alpha =  0.09359541714469155
 delta_qm =   0.335367E-02 delta_en =   0.194350E+02 tol =   0.100000E-03
 Iteration #          5
  pAp =  0.10152316259119687  rzold =  0.017944436142229236  alpha =  0.17675213896247563
 delta_qm =   0.275394E-02 delta_en =   0.131055E+02 tol =   0.100000E-03
 Iteration #          6
  pAp =  0.009523726799659722  rzold =  0.003379826183209752  alpha =  0.35488483177935254
 delta_qm =   0.215811E-02 delta_en =   0.804804E+01 tol =   0.100000E-03
 Iteration #          7
  pAp =  0.010889492810967124  rzold =  0.0033794831664242866  alpha =  0.31034348661497907
 delta_qm =   0.157177E-02 delta_en =   0.426894E+01 tol =   0.100000E-03
 Iteration #          8
  pAp =  0.016680718795555667  rzold =  0.0025919757161773  alpha =  0.1553875314334712
 delta_qm =   0.144230E-02 delta_en =   0.359463E+01 tol =   0.100000E-03
 Iteration #          9
  pAp =  0.004126894577976725  rzold =  0.0016572315125169582  alpha =  0.4015686568202675
 delta_qm =   0.108847E-02 delta_en =   0.204727E+01 tol =   0.100000E-03
 Iteration #         10
  pAp =  0.0031583903895319974  rzold =  0.0013442335704485669  alpha =  0.4256071620860498
 delta_qm =   0.676096E-03 delta_en =   0.789879E+00 tol =   0.100000E-03
 Iteration #         11
  pAp =  0.004188955977019345  rzold =  0.0010469165972668254  alpha =  0.24992303643442912
 delta_qm =   0.368091E-03 delta_en =   0.234129E+00 tol =   0.100000E-03
 Iteration #         12
  pAp =  0.0011896588115922362  rzold =  0.000251194134568726  alpha =  0.21114804691987984
 delta_qm =   0.302948E-03 delta_en =   0.158591E+00 tol =   0.100000E-03
 Iteration #         13
  pAp =  0.00022673243053331356  rzold =  0.00005854411982823413  alpha =  0.25820796650275535
 delta_qm =   0.270266E-03 delta_en =   0.126220E+00 tol =   0.100000E-03
 Iteration #         14
  pAp =  0.00010571939324976982  rzold =  0.00003074496971998256  alpha =  0.29081674397568014
 delta_qm =   0.204860E-03 delta_en =   0.725199E-01 tol =   0.100000E-03
 Iteration #         15
  pAp =  0.00004215849234331961  rzold =  0.00002139611016522801  alpha =  0.5075160181485574
 delta_qm =   0.134943E-03 delta_en =   0.314661E-01 tol =   0.100000E-03
 Iteration #         16
  pAp =  0.00012711438341248026  rzold =  0.000025060374227592386  alpha =  0.1971482184378194
 delta_qm =   0.110370E-03 delta_en =   0.210497E-01 tol =   0.100000E-03
 Iteration #         17
  pAp =  0.00005313354280629129  rzold =  0.00001341036102772835  alpha =  0.252389739502567
 delta_qm =   0.807754E-04 delta_en =   0.112746E-01 tol =   0.100000E-03
 Iteration #         18
  pAp =  0.000010525918321017048  rzold =  0.000004024630292465278  alpha =  0.38235431529326225
 delta_qm =   0.519826E-04 delta_en =   0.466939E-02 tol =   0.100000E-03
 Iteration #         19
  pAp =  0.000003978406811568031  rzold =  0.0000015089813604646255  alpha =  0.3792928757504019
 delta_qm =   0.306005E-04 delta_en =   0.161808E-02 tol =   0.100000E-03
 Iteration #         20
  pAp =  0.0000017456612083194737  rzold =  6.502679900317173E-7  alpha =  0.3725052644423039
 delta_qm =   0.240117E-04 delta_en =   0.996295E-03 tol =   0.100000E-03
 Iteration #         21
  pAp =  4.87356795868723E-7  rzold =  2.2062302343314375E-7  alpha =  0.4526930275792685
 delta_qm =   0.169429E-04 delta_en =   0.496042E-03 tol =   0.100000E-03
 Iteration #         22
  pAp =  4.388351700142527E-7  rzold =  1.4793714475447777E-7  alpha =  0.33711323718578207
 delta_qm =   0.148559E-04 delta_en =   0.381368E-03 tol =   0.100000E-03
 Iteration #         23
  pAp =  0.0000032759865438609853  rzold =  3.743697535495183E-7  alpha =  0.11427695093896711
 delta_qm =   0.952110E-05 delta_en =   0.156645E-03 tol =   0.100000E-03
 Iteration #         24
  pAp =  2.0728394870899272E-7  rzold =  7.848677304770954E-8  alpha =  0.37864375672376654
 delta_qm =   0.482920E-05 delta_en =   0.402990E-04 tol =   0.100000E-03
 Charges are converged, exit!

%%%% ELECTRONS %%%%%%%%%%%%%%%%%%%%%%%%%%%%%%%%%%%%%%%%%%%%%%%%%%%%%%%%%%%%%%%%%
 number of electrons        =         24
 total electronic charge    =     24.0000000
 number of spin components  =  1

%%%% BOUNDARY %%%%%%%%%%%%%%%%%%%%%%%%%%%%%%%%%%%%%%%%%%%%%%%%%%%%%%%%%%%%%%%%%%
 boundary mode              = electronic           
 boundary is built as a function of a smooth density
 function type              =  2 
 using the modified SCCS function with parameters 
 rhomax                     =      0.0155000 
 rhomin                     =      0.0024000 

%%%% DIELECTRIC %%%%%%%%%%%%%%%%%%%%%%%%%%%%%%%%%%%%%%%%%%%%%%%%%%%%%%%%%%%%%%%%%
 dielectric build on homogeneous background
 environment bulk permitt.  =     78.3000000 
 dielectric flags
 need gradient              =  F 
 need factor depend. sqrt   =  T 
 need gradient of logarithm =  T 

%%%% COMPUTE ELECTROSTATIC POTENTIAL %%%%%%%%%%%%%%%%%%%%%%%%%%%%%%%%%%%%%%%%%%%
 Warning: bad guess with residual norm =   0.359302E+04, reset to no guess
 Iteration #          1
  pAp =  93.82160808051826  rzold =  90.89535815283622  alpha =  0.968810490594334
 delta_qm =   0.574088E-01 delta_en =   0.569510E+04 tol =   0.100000E-03
 Iteration #          2
  pAp =  485.9270639329638  rzold =  34.54266837770384  alpha =  0.07108611752991223
 delta_qm =   0.128662E-01 delta_en =   0.286053E+03 tol =   0.100000E-03
 Iteration #          3
  pAp =  12.160087934334088  rzold =  1.1388784947067507  alpha =  0.09365709367044295
 delta_qm =   0.468711E-02 delta_en =   0.379625E+02 tol =   0.100000E-03
 Iteration #          4
  pAp =  2.818495742134593  rzold =  0.26290864116135165  alpha =  0.09327977233779226
 delta_qm =   0.345255E-02 delta_en =   0.205980E+02 tol =   0.100000E-03
 Iteration #          5
  pAp =  0.11478347232695225  rzold =  0.020307026666071225  alpha =  0.17691594664629204
 delta_qm =   0.275657E-02 delta_en =   0.131305E+02 tol =   0.100000E-03
 Iteration #          6
  pAp =  0.009851736723524695  rzold =  0.0036095536580752832  alpha =  0.36638754763473613
 delta_qm =   0.214856E-02 delta_en =   0.797695E+01 tol =   0.100000E-03
 Iteration #          7
  pAp =  0.008388311334255572  rzold =  0.0031757400085656667  alpha =  0.37859109921168665
 delta_qm =   0.155343E-02 delta_en =   0.416992E+01 tol =   0.100000E-03
 Iteration #          8
  pAp =  0.003694136832756598  rzold =  0.0015572192196922025  alpha =  0.42153804533823713
 delta_qm =   0.127582E-02 delta_en =   0.281270E+01 tol =   0.100000E-03
 Iteration #          9
  pAp =  0.00928296375054344  rzold =  0.0019627777299724503  alpha =  0.21143869379620772
 delta_qm =   0.105490E-02 delta_en =   0.192294E+01 tol =   0.100000E-03
 Iteration #         10
  pAp =  0.007130789196157484  rzold =  0.0018595245583001023  alpha =  0.26077401913691833
 delta_qm =   0.654633E-03 delta_en =   0.740524E+00 tol =   0.100000E-03
 Iteration #         11
  pAp =  0.0053134674187022566  rzold =  0.0011651646823925685  alpha =  0.2192851843395973
 delta_qm =   0.386023E-03 delta_en =   0.257496E+00 tol =   0.100000E-03
 Iteration #         12
  pAp =  0.001617851597587408  rzold =  0.00032438239856598714  alpha =  0.20050194903519986
 delta_qm =   0.284362E-03 delta_en =   0.139729E+00 tol =   0.100000E-03
 Iteration #         13
  pAp =  0.00021589076565807822  rzold =  0.00005951027940447018  alpha =  0.2756499529892858
 delta_qm =   0.258888E-03 delta_en =   0.115816E+00 tol =   0.100000E-03
 Iteration #         14
  pAp =  0.00008519050411339787  rzold =  0.000027125737929865358  alpha =  0.31841269413969
 delta_qm =   0.190728E-03 delta_en =   0.628597E-01 tol =   0.100000E-03
 Iteration #         15
  pAp =  0.00003451511989335848  rzold =  0.0000184807436130053  alpha =  0.5354390675769152
 delta_qm =   0.127772E-03 delta_en =   0.282109E-01 tol =   0.100000E-03
 Iteration #         16
  pAp =  0.00008634127059575809  rzold =  0.00001998960068741287  alpha =  0.23151849109335382
 delta_qm =   0.103250E-03 delta_en =   0.184216E-01 tol =   0.100000E-03
 Iteration #         17
  pAp =  0.00006137388427453346  rzold =  0.000013263113433135037  alpha =  0.216103536380513
 delta_qm =   0.779191E-04 delta_en =   0.104914E-01 tol =   0.100000E-03
 Iteration #         18
  pAp =  0.000011127206342962499  rzold =  0.000004109940990020944  alpha =  0.3693596454801355
 delta_qm =   0.523441E-04 delta_en =   0.473455E-02 tol =   0.100000E-03
 Iteration #         19
  pAp =  0.000004226450867180921  rzold =  0.000001572685040905398  alpha =  0.3721053646021425
 delta_qm =   0.308400E-04 delta_en =   0.164351E-02 tol =   0.100000E-03
 Iteration #         20
  pAp =  0.0000016112879205056697  rzold =  6.445332805837738E-7  alpha =  0.4000112409342088
 delta_qm =   0.240410E-04 delta_en =   0.998731E-03 tol =   0.100000E-03
 Iteration #         21
  pAp =  5.090923343048444E-7  rzold =  2.2887675204633397E-7  alpha =  0.44957807577059805
 delta_qm =   0.174093E-04 delta_en =   0.523727E-03 tol =   0.100000E-03
 Iteration #         22
  pAp =  3.740732449103084E-7  rzold =  1.4404801889888394E-7  alpha =  0.38507971596156887
 delta_qm =   0.145289E-04 delta_en =   0.364764E-03 tol =   0.100000E-03
 Iteration #         23
  pAp =  0.000003481485658328105  rzold =  3.7124720788386085E-7  alpha =  0.1066347083739368
 delta_qm =   0.897222E-05 delta_en =   0.139105E-03 tol =   0.100000E-03
 Iteration #         24
  pAp =  1.907779378137265E-7  rzold =  7.236936183009061E-8  alpha =  0.3793382120565286
 delta_qm =   0.460484E-05 delta_en =   0.366415E-04 tol =   0.100000E-03
 Charges are converged, exit!

%%%% ELECTRONS %%%%%%%%%%%%%%%%%%%%%%%%%%%%%%%%%%%%%%%%%%%%%%%%%%%%%%%%%%%%%%%%%
 number of electrons        =         24
 total electronic charge    =     24.0000000
 number of spin components  =  1

%%%% BOUNDARY %%%%%%%%%%%%%%%%%%%%%%%%%%%%%%%%%%%%%%%%%%%%%%%%%%%%%%%%%%%%%%%%%%
 boundary mode              = electronic           
 boundary is built as a function of a smooth density
 function type              =  2 
 using the modified SCCS function with parameters 
 rhomax                     =      0.0155000 
 rhomin                     =      0.0024000 

%%%% DIELECTRIC %%%%%%%%%%%%%%%%%%%%%%%%%%%%%%%%%%%%%%%%%%%%%%%%%%%%%%%%%%%%%%%%%
 dielectric build on homogeneous background
 environment bulk permitt.  =     78.3000000 
 dielectric flags
 need gradient              =  F 
 need factor depend. sqrt   =  T 
 need gradient of logarithm =  T 

%%%% COMPUTE ELECTROSTATIC POTENTIAL %%%%%%%%%%%%%%%%%%%%%%%%%%%%%%%%%%%%%%%%%%%
 Warning: bad guess with residual norm =   0.368153E+04, reset to no guess
 Iteration #          1
  pAp =  94.01419252076934  rzold =  90.82374530589223  alpha =  0.9660641959545386
 delta_qm =   0.598177E-01 delta_en =   0.618305E+04 tol =   0.100000E-03
 Iteration #          2
  pAp =  512.8891180438757  rzold =  36.95903446128306  alpha =  0.07206047693552617
 delta_qm =   0.134956E-01 delta_en =   0.314724E+03 tol =   0.100000E-03
 Iteration #          3
  pAp =  13.076080252867513  rzold =  1.2456047012141154  alpha =  0.09525826372478564
 delta_qm =   0.475623E-02 delta_en =   0.390903E+02 tol =   0.100000E-03
 Iteration #          4
  pAp =  3.0777569707214556  rzold =  0.2830049049143962  alpha =  0.09195167376976394
 delta_qm =   0.354491E-02 delta_en =   0.217148E+02 tol =   0.100000E-03
 Iteration #          5
  pAp =  0.13287093340301773  rzold =  0.023451998987244954  alpha =  0.17650210160044166
 delta_qm =   0.276173E-02 delta_en =   0.131798E+02 tol =   0.100000E-03
 Iteration #          6
  pAp =  0.010947947951158344  rzold =  0.0038868453750605975  alpha =  0.3550295811051377
 delta_qm =   0.216522E-02 delta_en =   0.810116E+01 tol =   0.100000E-03
 Iteration #          7
  pAp =  0.008595746015212135  rzold =  0.003186422481673513  alpha =  0.3706976074018952
 delta_qm =   0.160683E-02 delta_en =   0.446155E+01 tol =   0.100000E-03
 Iteration #          8
  pAp =  0.009582442127581865  rzold =  0.0020842987998280823  alpha =  0.21751227631510428
 delta_qm =   0.142310E-02 delta_en =   0.349956E+01 tol =   0.100000E-03
 Iteration #          9
  pAp =  0.00922842163275802  rzold =  0.0023337019108343095  alpha =  0.2528820207510237
 delta_qm =   0.113765E-02 delta_en =   0.223646E+01 tol =   0.100000E-03
 Iteration #         10
  pAp =  0.0036882942710582084  rzold =  0.0014089933402682663  alpha =  0.38201760399774504
 delta_qm =   0.714981E-03 delta_en =   0.883350E+00 tol =   0.100000E-03
 Iteration #         11
  pAp =  0.005243563152246214  rzold =  0.001243563092488888  alpha =  0.2371599342626733
 delta_qm =   0.403844E-03 delta_en =   0.281819E+00 tol =   0.100000E-03
 Iteration #         12
  pAp =  0.001753207532366329  rzold =  0.00037393247134697897  alpha =  0.2132847734473722
 delta_qm =   0.280876E-03 delta_en =   0.136324E+00 tol =   0.100000E-03
 Iteration #         13
  pAp =  0.00021840132401987125  rzold =  0.00006238219683447748  alpha =  0.28563103778987
 delta_qm =   0.253589E-03 delta_en =   0.111123E+00 tol =   0.100000E-03
 Iteration #         14
  pAp =  0.0000825592921656065  rzold =  0.00002592527776570121  alpha =  0.3140201070728349
 delta_qm =   0.189179E-03 delta_en =   0.618427E-01 tol =   0.100000E-03
 Iteration #         15
  pAp =  0.00003208683199894283  rzold =  0.000017362026778933313  alpha =  0.5410950753725187
 delta_qm =   0.127074E-03 delta_en =   0.279036E-01 tol =   0.100000E-03
 Iteration #         16
  pAp =  0.00006325798498314016  rzold =  0.00001752702688190658  alpha =  0.27707216545986996
 delta_qm =   0.974728E-04 delta_en =   0.164176E-01 tol =   0.100000E-03
 Iteration #         17
  pAp =  0.0000677205023449746  rzold =  0.000013034693410156746  alpha =  0.19247780153426497
 delta_qm =   0.759917E-04 delta_en =   0.997876E-02 tol =   0.100000E-03
 Iteration #         18
  pAp =  0.000013102584442827687  rzold =  0.000004461008607592641  alpha =  0.34046783877318054
 delta_qm =   0.538845E-04 delta_en =   0.501732E-02 tol =   0.100000E-03
 Iteration #         19
  pAp =  0.000004444780858242233  rzold =  0.0000016419095703300499  alpha =  0.36940169216337293
 delta_qm =   0.322838E-04 delta_en =   0.180099E-02 tol =   0.100000E-03
 Iteration #         20
  pAp =  0.0000015935471208237314  rzold =  6.622237682751079E-7  alpha =  0.41556585282071434
 delta_qm =   0.246258E-04 delta_en =   0.104791E-02 tol =   0.100000E-03
 Iteration #         21
  pAp =  5.522283922323582E-7  rzold =  2.4518649336695137E-7  alpha =  0.4439947253993879
 delta_qm =   0.182048E-04 delta_en =   0.572684E-03 tol =   0.100000E-03
 Iteration #         22
  pAp =  2.2096486782699941E-7  rzold =  1.379408782874636E-7  alpha =  0.6242661091059145
 delta_qm =   0.113382E-04 delta_en =   0.222143E-03 tol =   0.100000E-03
 Iteration #         23
  pAp =  4.121251090748567E-7  rzold =  9.696106720878722E-8  alpha =  0.2352709531007382
 delta_qm =   0.676058E-05 delta_en =   0.789790E-04 tol =   0.100000E-03
 Charges are converged, exit!

%%%% ELECTRONS %%%%%%%%%%%%%%%%%%%%%%%%%%%%%%%%%%%%%%%%%%%%%%%%%%%%%%%%%%%%%%%%%
 number of electrons        =         24
 total electronic charge    =     24.0000000
 number of spin components  =  1

%%%% BOUNDARY %%%%%%%%%%%%%%%%%%%%%%%%%%%%%%%%%%%%%%%%%%%%%%%%%%%%%%%%%%%%%%%%%%
 boundary mode              = electronic           
 boundary is built as a function of a smooth density
 function type              =  2 
 using the modified SCCS function with parameters 
 rhomax                     =      0.0155000 
 rhomin                     =      0.0024000 

%%%% DIELECTRIC %%%%%%%%%%%%%%%%%%%%%%%%%%%%%%%%%%%%%%%%%%%%%%%%%%%%%%%%%%%%%%%%%
 dielectric build on homogeneous background
 environment bulk permitt.  =     78.3000000 
 dielectric flags
 need gradient              =  F 
 need factor depend. sqrt   =  T 
 need gradient of logarithm =  T 

%%%% COMPUTE ELECTROSTATIC POTENTIAL %%%%%%%%%%%%%%%%%%%%%%%%%%%%%%%%%%%%%%%%%%%
 Warning: bad guess with residual norm =   0.437825E+04, reset to no guess
 Iteration #          1
  pAp =  94.1656965293693  rzold =  90.8992744203311  alpha =  0.965311974217496
 delta_qm =   0.605282E-01 delta_en =   0.633080E+04 tol =   0.100000E-03
 Iteration #          2
  pAp =  518.9875106267997  rzold =  37.595486149470226  alpha =  0.07244005949982268
 delta_qm =   0.136883E-01 delta_en =   0.323774E+03 tol =   0.100000E-03
 Iteration #          3
  pAp =  13.165736493127639  rzold =  1.2670978689459504  alpha =  0.0962420803125872
 delta_qm =   0.473273E-02 delta_en =   0.387051E+02 tol =   0.100000E-03
 Iteration #          4
  pAp =  3.147437067060299  rzold =  0.28585059892676973  alpha =  0.09082011580735233
 delta_qm =   0.357533E-02 delta_en =   0.220890E+02 tol =   0.100000E-03
 Iteration #          5
  pAp =  0.13781893886791435  rzold =  0.024253391981760665  alpha =  0.17598010970760058
 delta_qm =   0.276759E-02 delta_en =   0.132357E+02 tol =   0.100000E-03
 Iteration #          6
  pAp =  0.01116433892760853  rzold =  0.003944563664421296  alpha =  0.35331815793111593
 delta_qm =   0.217550E-02 delta_en =   0.817830E+01 tol =   0.100000E-03
 Iteration #          7
  pAp =  0.009075482853357183  rzold =  0.003228277417069737  alpha =  0.3557141222381947
 delta_qm =   0.164192E-02 delta_en =   0.465849E+01 tol =   0.100000E-03
 Iteration #          8
  pAp =  0.014461751095955804  rzold =  0.0025291400317359936  alpha =  0.17488477121164545
 delta_qm =   0.146758E-02 delta_en =   0.372173E+01 tol =   0.100000E-03
 Iteration #          9
  pAp =  0.006395028696098751  rzold =  0.002045266018285147  alpha =  0.319821241698704
 delta_qm =   0.115302E-02 delta_en =   0.229730E+01 tol =   0.100000E-03
 Iteration #         10
  pAp =  0.003517022918804838  rzold =  0.001385746067239136  alpha =  0.39401109950970775
 delta_qm =   0.722141E-03 delta_en =   0.901130E+00 tol =   0.100000E-03
 Iteration #         11
  pAp =  0.00530956083040402  rzold =  0.0012572618372563987  alpha =  0.23679205821637228
 delta_qm =   0.406270E-03 delta_en =   0.285216E+00 tol =   0.100000E-03
 Iteration #         12
  pAp =  0.0017854107620433332  rzold =  0.00038451278511911436  alpha =  0.2153637657471351
 delta_qm =   0.280411E-03 delta_en =   0.135873E+00 tol =   0.100000E-03
 Iteration #         13
  pAp =  0.00020451480554841867  rzold =  0.00006075628310062001  alpha =  0.2970752309970831
 delta_qm =   0.250735E-03 delta_en =   0.108636E+00 tol =   0.100000E-03
 Iteration #         14
  pAp =  0.00007744631626497478  rzold =  0.00002456900513148765  alpha =  0.31723917051686834
 delta_qm =   0.186401E-03 delta_en =   0.600398E-01 tol =   0.100000E-03
 Iteration #         15
  pAp =  0.000033504537133787375  rzold =  0.000017509733022163247  alpha =  0.5226078173306773
 delta_qm =   0.126804E-03 delta_en =   0.277848E-01 tol =   0.100000E-03
 Iteration #         16
  pAp =  0.00005720714223755642  rzold =  0.000016786440519665205  alpha =  0.293432600600086
 delta_qm =   0.948007E-04 delta_en =   0.155298E-01 tol =   0.100000E-03
 Iteration #         17
  pAp =  0.00006477414280119238  rzold =  0.000012190862081558585  alpha =  0.18820568755306125
 delta_qm =   0.744895E-04 delta_en =   0.958814E-02 tol =   0.100000E-03
 Iteration #         18
  pAp =  0.000014218957398153964  rzold =  0.000004589233503070732  alpha =  0.32275457155997583
 delta_qm =   0.540169E-04 delta_en =   0.504200E-02 tol =   0.100000E-03
 Iteration #         19
  pAp =  0.00000447944421128235  rzold =  0.0000016487774570211312  alpha =  0.3680763459154966
 delta_qm =   0.324083E-04 delta_en =   0.181491E-02 tol =   0.100000E-03
 Iteration #         20
  pAp =  0.0000015809370799226704  rzold =  6.597123016378449E-7  alpha =  0.4172919403409236
 delta_qm =   0.247637E-04 delta_en =   0.105968E-02 tol =   0.100000E-03
 Iteration #         21
  pAp =  5.424169163460366E-7  rzold =  2.4316683271163893E-7  alpha =  0.44830245035446104
 delta_qm =   0.182086E-04 delta_en =   0.572924E-03 tol =   0.100000E-03
 Iteration #         22
  pAp =  2.1846932784618315E-7  rzold =  1.3626781166099446E-7  alpha =  0.6237388699110019
 delta_qm =   0.114716E-04 delta_en =   0.227400E-03 tol =   0.100000E-03
 Iteration #         23
  pAp =  4.914649520038734E-7  rzold =  1.0150395558733253E-7  alpha =  0.2065334571131993
 delta_qm =   0.714931E-05 delta_en =   0.883225E-04 tol =   0.100000E-03
 Charges are converged, exit!

%%%% ELECTRONS %%%%%%%%%%%%%%%%%%%%%%%%%%%%%%%%%%%%%%%%%%%%%%%%%%%%%%%%%%%%%%%%%
 number of electrons        =         24
 total electronic charge    =     24.0000000
 number of spin components  =  1

%%%% BOUNDARY %%%%%%%%%%%%%%%%%%%%%%%%%%%%%%%%%%%%%%%%%%%%%%%%%%%%%%%%%%%%%%%%%%
 boundary mode              = electronic           
 boundary is built as a function of a smooth density
 function type              =  2 
 using the modified SCCS function with parameters 
 rhomax                     =      0.0155000 
 rhomin                     =      0.0024000 

%%%% DIELECTRIC %%%%%%%%%%%%%%%%%%%%%%%%%%%%%%%%%%%%%%%%%%%%%%%%%%%%%%%%%%%%%%%%%
 dielectric build on homogeneous background
 environment bulk permitt.  =     78.3000000 
 dielectric flags
 need gradient              =  F 
 need factor depend. sqrt   =  T 
 need gradient of logarithm =  T 

%%%% COMPUTE ELECTROSTATIC POTENTIAL %%%%%%%%%%%%%%%%%%%%%%%%%%%%%%%%%%%%%%%%%%%
 Warning: bad guess with residual norm =   0.449243E+04, reset to no guess
 Iteration #          1
  pAp =  94.25621977066017  rzold =  90.95379379362687  alpha =  0.9649633097415894
 delta_qm =   0.609643E-01 delta_en =   0.642237E+04 tol =   0.100000E-03
 Iteration #          2
  pAp =  521.0877189975902  rzold =  37.86799362591022  alpha =  0.0726710537311384
 delta_qm =   0.138071E-01 delta_en =   0.329418E+03 tol =   0.100000E-03
 Iteration #          3
  pAp =  13.129828734039215  rzold =  1.2749657712657865  alpha =  0.09710452414054913
 delta_qm =   0.469482E-02 delta_en =   0.380874E+02 tol =   0.100000E-03
 Iteration #          4
  pAp =  3.1910297912704513  rzold =  0.28575288729048726  alpha =  0.08954879959823875
 delta_qm =   0.359327E-02 delta_en =   0.223112E+02 tol =   0.100000E-03
 Iteration #          5
  pAp =  0.1404912081781953  rzold =  0.024588316970561002  alpha =  0.1750167664539822
 delta_qm =   0.277280E-02 delta_en =   0.132856E+02 tol =   0.100000E-03
 Iteration #          6
  pAp =  0.011152480176442693  rzold =  0.003947728619578285  alpha =  0.35397764058949366
 delta_qm =   0.218304E-02 delta_en =   0.823504E+01 tol =   0.100000E-03
 Iteration #          7
  pAp =  0.009694737503575357  rzold =  0.003287113351125965  alpha =  0.33906161460418077
 delta_qm =   0.167121E-02 delta_en =   0.482620E+01 tol =   0.100000E-03
 Iteration #          8
  pAp =  0.01819853210893161  rzold =  0.0029072147539833375  alpha =  0.15974995876488923
 delta_qm =   0.149175E-02 delta_en =   0.384536E+01 tol =   0.100000E-03
 Iteration #          9
  pAp =  0.005067294564098254  rzold =  0.001861080801529889  alpha =  0.36727306415451616
 delta_qm =   0.116243E-02 delta_en =   0.233493E+01 tol =   0.100000E-03
 Iteration #         10
  pAp =  0.003451622045452486  rzold =  0.0013862758849147053  alpha =  0.4016302673524538
 delta_qm =   0.718918E-03 delta_en =   0.893106E+00 tol =   0.100000E-03
 Iteration #         11
  pAp =  0.0053666427112461805  rzold =  0.0012561849830555864  alpha =  0.23407278081381525
 delta_qm =   0.406701E-03 delta_en =   0.285822E+00 tol =   0.100000E-03
 Iteration #         12
  pAp =  0.0018038827270033214  rzold =  0.0003877257740941661  alpha =  0.21493956801630387
 delta_qm =   0.282272E-03 delta_en =   0.137682E+00 tol =   0.100000E-03
 Iteration #         13
  pAp =  0.00018876967587629835  rzold =  0.00005834853728293395  alpha =  0.3090991019191558
 delta_qm =   0.249160E-03 delta_en =   0.107275E+00 tol =   0.100000E-03
 Iteration #         14
  pAp =  0.00006999087578164402  rzold =  0.000023105590101203195  alpha =  0.3301228887789246
 delta_qm =   0.183386E-03 delta_en =   0.581136E-01 tol =   0.100000E-03
 Iteration #         15
  pAp =  0.00003643324500715909  rzold =  0.00001808354276049828  alpha =  0.49634729920282666
 delta_qm =   0.126797E-03 delta_en =   0.277817E-01 tol =   0.100000E-03
 Iteration #         16
  pAp =  0.00005338787228295636  rzold =  0.000016311761240020486  alpha =  0.3055330834982139
 delta_qm =   0.923132E-04 delta_en =   0.147255E-01 tol =   0.100000E-03
 Iteration #         17
  pAp =  0.000058622436281337184  rzold =  0.00001102509510658383  alpha =  0.18806954821312566
 delta_qm =   0.732203E-04 delta_en =   0.926416E-02 tol =   0.100000E-03
 Iteration #         18
  pAp =  0.000015682298898531004  rzold =  0.000004720307997449071  alpha =  0.3009959208143414
 delta_qm =   0.541181E-04 delta_en =   0.506091E-02 tol =   0.100000E-03
 Iteration #         19
  pAp =  0.000004530235956608345  rzold =  0.0000016585541635441123  alpha =  0.3661076772667319
 delta_qm =   0.324103E-04 delta_en =   0.181514E-02 tol =   0.100000E-03
 Iteration #         20
  pAp =  0.0000015846096102982938  rzold =  6.607021527566352E-7  alpha =  0.41694947983576963
 delta_qm =   0.250198E-04 delta_en =   0.108171E-02 tol =   0.100000E-03
 Iteration #         21
  pAp =  5.328147956913902E-7  rzold =  2.4227166960134175E-7  alpha =  0.45470146767783653
 delta_qm =   0.183078E-04 delta_en =   0.579182E-03 tol =   0.100000E-03
 Iteration #         22
  pAp =  2.2304889654547007E-7  rzold =  1.369859446541838E-7  alpha =  0.6141520840308585
 delta_qm =   0.118530E-04 delta_en =   0.242773E-03 tol =   0.100000E-03
 Iteration #         23
  pAp =  9.396442334576301E-7  rzold =  1.283621899292013E-7  alpha =  0.13660722362639746
 delta_qm =   0.817407E-05 delta_en =   0.115457E-03 tol =   0.100000E-03
 Iteration #         24
  pAp =  6.535469092060037E-7  rzold =  1.258141641388809E-7  alpha =  0.1925097684139199
 delta_qm =   0.483895E-05 delta_en =   0.404619E-04 tol =   0.100000E-03
 Charges are converged, exit!

%%%% ELECTRONS %%%%%%%%%%%%%%%%%%%%%%%%%%%%%%%%%%%%%%%%%%%%%%%%%%%%%%%%%%%%%%%%%
 number of electrons        =         24
 total electronic charge    =     24.0000000
 number of spin components  =  1

%%%% BOUNDARY %%%%%%%%%%%%%%%%%%%%%%%%%%%%%%%%%%%%%%%%%%%%%%%%%%%%%%%%%%%%%%%%%%
 boundary mode              = electronic           
 boundary is built as a function of a smooth density
 function type              =  2 
 using the modified SCCS function with parameters 
 rhomax                     =      0.0155000 
 rhomin                     =      0.0024000 

%%%% DIELECTRIC %%%%%%%%%%%%%%%%%%%%%%%%%%%%%%%%%%%%%%%%%%%%%%%%%%%%%%%%%%%%%%%%%
 dielectric build on homogeneous background
 environment bulk permitt.  =     78.3000000 
 dielectric flags
 need gradient              =  F 
 need factor depend. sqrt   =  T 
 need gradient of logarithm =  T 

%%%% COMPUTE ELECTROSTATIC POTENTIAL %%%%%%%%%%%%%%%%%%%%%%%%%%%%%%%%%%%%%%%%%%%
 Warning: bad guess with residual norm =   0.453479E+04, reset to no guess
 Iteration #          1
  pAp =  94.38700106901226  rzold =  91.05652029809909  alpha =  0.9647146245437118
 delta_qm =   0.613631E-01 delta_en =   0.650666E+04 tol =   0.100000E-03
 Iteration #          2
  pAp =  521.4659413834545  rzold =  38.03979718107909  alpha =  0.07294780763660061
 delta_qm =   0.138869E-01 delta_en =   0.333237E+03 tol =   0.100000E-03
 Iteration #          3
  pAp =  12.900934943382481  rzold =  1.2700828066786591  alpha =  0.09844889632050634
 delta_qm =   0.460173E-02 delta_en =   0.365920E+02 tol =   0.100000E-03
 Iteration #          4
  pAp =  3.2042148439207456  rzold =  0.2814064931120425  alpha =  0.08782385289985972
 delta_qm =   0.361258E-02 delta_en =   0.225517E+02 tol =   0.100000E-03
 Iteration #          5
  pAp =  0.14200964828964616  rzold =  0.02471278373033522  alpha =  0.17402186420411703
 delta_qm =   0.278082E-02 delta_en =   0.133625E+02 tol =   0.100000E-03
 Iteration #          6
  pAp =  0.011058281911467138  rzold =  0.003935901831055338  alpha =  0.355923448377086
[...]
 delta_qm =   0.327553E+01 delta_en =   0.185399E+08 tol =   0.100000E-03
 Iteration #         93
  pAp =  -10173.879325721824  rzold =  162.72644093121156  alpha =  -0.01599453224492284
 delta_qm =   0.236625E+00 delta_en =   0.967534E+05 tol =   0.100000E-03
 Iteration #         94
  pAp =  1.8834785422920641  rzold =  0.7944950091465846  alpha =  0.42182323361100715
 delta_qm =   0.325271E+00 delta_en =   0.182825E+06 tol =   0.100000E-03
 Iteration #         95
  pAp =  2.9337952298011314  rzold =  2.962134870832686  alpha =  1.0096597201957669
 delta_qm =   0.201552E+01 delta_en =   0.701967E+07 tol =   0.100000E-03
 Iteration #         96
  pAp =  -2978.1661620938908  rzold =  111.00876557963475  alpha =  -0.037274201484307594
 delta_qm =   0.466540E+00 delta_en =   0.376116E+06 tol =   0.100000E-03
 Iteration #         97
  pAp =  254.04479548256333  rzold =  10.01256501017558  alpha =  0.03941259647203756
 delta_qm =   0.259799E+00 delta_en =   0.116632E+06 tol =   0.100000E-03
 Iteration #         98
  pAp =  28.157468507496333  rzold =  1.7572254796507198  alpha =  0.0624070831929687
 delta_qm =   0.234152E+00 delta_en =   0.947411E+05 tol =   0.100000E-03
 Iteration #         99
  pAp =  64.46238870923561  rzold =  2.9923144735805214  alpha =  0.04641954065769531
 delta_qm =   0.190504E+00 delta_en =   0.627119E+05 tol =   0.100000E-03
 Iteration #        100
  pAp =  1.055927500004036  rzold =  0.5734850676580454  alpha =  0.5431102681347473
 delta_qm =   0.365669E+00 delta_en =   0.231058E+06 tol =   0.100000E-03
 Iteration #        101
  pAp =  -1.0529771340737113  rzold =  3.036980889799601  alpha =  -2.8841850326324407
 delta_qm =   0.120688E+02 delta_en =   0.251694E+09 tol =   0.100000E-03
 Iteration #        102
  pAp =  994386.5463578874  rzold =  2900.872445452295  alpha =  0.0029172482834539963
 delta_qm =   0.271718E+00 delta_en =   0.127579E+06 tol =   0.100000E-03
 Iteration #        103
  pAp =  3.1441179616066295  rzold =  0.9418322170815474  alpha =  0.29955371540839887
 delta_qm =   0.255062E+00 delta_en =   0.112418E+06 tol =   0.100000E-03
 Iteration #        104
  pAp =  62.91521862654222  rzold =  2.7292313647179394  alpha =  0.04337951014552385
 delta_qm =   0.253286E+00 delta_en =   0.110858E+06 tol =   0.100000E-03
 Iteration #        105
  pAp =  3.210810045052865  rzold =  1.9088435084251807  alpha =  0.5945052748811094
 delta_qm =   0.669288E+00 delta_en =   0.774052E+06 tol =   0.100000E-03
 Iteration #        106
  pAp =  4.845986034943015  rzold =  12.917851330894758  alpha =  2.6656806762850405
 delta_qm =   0.168383E+02 delta_en =   0.489937E+09 tol =   0.100000E-03
 Iteration #        107
  pAp =  -1118249.4919466102  rzold =  6425.907980830196  alpha =  -0.005746399195446265
 delta_qm =   0.502548E+00 delta_en =   0.436414E+06 tol =   0.100000E-03
 Iteration #        108
  pAp =  35.022747043442834  rzold =  4.591813159592912  alpha =  0.13110945163430915
 delta_qm =   0.294914E+00 delta_en =   0.150291E+06 tol =   0.100000E-03
 Iteration #        109
  pAp =  11.417312003060655  rzold =  2.1407160994636896  alpha =  0.18749738107269248
 delta_qm =   0.303980E+00 delta_en =   0.159674E+06 tol =   0.100000E-03
 Iteration #        110
  pAp =  1.4724389859774845  rzold =  1.65553563518797  alpha =  1.1243492266601023
 delta_qm =   0.133377E+01 delta_en =   0.307400E+07 tol =   0.100000E-03
 Iteration #        111
  pAp =  -469.74472522895616  rzold =  32.069032326373495  alpha =  -0.06826906318265281
 delta_qm =   0.360669E+00 delta_en =   0.224783E+06 tol =   0.100000E-03
 Iteration #        112
  pAp =  21.148662373765085  rzold =  3.112793195035058  alpha =  0.14718629197544322
 delta_qm =   0.357957E+00 delta_en =   0.221415E+06 tol =   0.100000E-03
 Iteration #        113
  pAp =  74.48763847279896  rzold =  4.326897960520759  alpha =  0.0580888057298371
 delta_qm =   0.406381E+00 delta_en =   0.285372E+06 tol =   0.100000E-03
 Iteration #        114
  pAp =  91.11543126985836  rzold =  7.956382013738178  alpha =  0.08732200356022686
 delta_qm =   0.653738E+00 delta_en =   0.738501E+06 tol =   0.100000E-03
 Iteration #        115
  pAp =  -12.081295543555246  rzold =  8.344610401231659  alpha =  -0.6907049307044791
 delta_qm =   0.207996E+01 delta_en =   0.747573E+07 tol =   0.100000E-03
 Iteration #        116
  pAp =  3159.496591051497  rzold =  113.6336278631916  alpha =  0.035965738398019205
 delta_qm =   0.519819E+00 delta_en =   0.466926E+06 tol =   0.100000E-03
 Iteration #        117
  pAp =  14.805936288072308  rzold =  6.293618429595725  alpha =  0.4250739910765303
 delta_qm =   0.165545E+01 delta_en =   0.473562E+07 tol =   0.100000E-03
 Iteration #        118
  pAp =  -662.074964258487  rzold =  52.460419370419004  alpha =  -0.07923637382841354
 delta_qm =   0.123208E+01 delta_en =   0.262312E+07 tol =   0.100000E-03
 Iteration #        119
  pAp =  1306.2799578377103  rzold =  44.243866407808106  alpha =  0.03387012572790685
 delta_qm =   0.293818E+00 delta_en =   0.149176E+06 tol =   0.100000E-03
 Iteration #        120
  pAp =  6.861169703845897  rzold =  1.7258037045670402  alpha =  0.25153199513483454
 delta_qm =   0.239844E+00 delta_en =   0.994037E+05 tol =   0.100000E-03
 Iteration #        121
  pAp =  6.397460866472184  rzold =  1.4080271870750862  alpha =  0.22009156702376653
 delta_qm =   0.380393E+00 delta_en =   0.250039E+06 tol =   0.100000E-03
 Iteration #        122
  pAp =  19.34729653445793  rzold =  3.997981701059803  alpha =  0.20664291230246645
 delta_qm =   0.974326E+00 delta_en =   0.164041E+07 tol =   0.100000E-03
 Iteration #        123
  pAp =  -1915.8528884104542  rzold =  54.56014050513415  alpha =  -0.02847825155844906
 delta_qm =   0.498183E+00 delta_en =   0.428866E+06 tol =   0.100000E-03
 Iteration #        124
  pAp =  80.84170055032861  rzold =  5.78020188760242  alpha =  0.07150025108642924
 delta_qm =   0.331417E+00 delta_en =   0.189799E+06 tol =   0.100000E-03
 Iteration #        125
  pAp =  28.692983174971854  rzold =  3.471700359376122  alpha =  0.12099475116286955
 delta_qm =   0.619920E+00 delta_en =   0.664071E+06 tol =   0.100000E-03
 Iteration #        126
  pAp =  -24.60100329689859  rzold =  3.5357599054550612  alpha =  -0.1437242157477703
 delta_qm =   0.552665E+00 delta_en =   0.527798E+06 tol =   0.100000E-03
 Iteration #        127
  pAp =  27.471277285992215  rzold =  3.420487787515748  alpha =  0.12451142158067317
 delta_qm =   0.276315E+00 delta_en =   0.131933E+06 tol =   0.100000E-03
 Iteration #        128
  pAp =  14.552425125754239  rzold =  2.197932292058287  alpha =  0.1510354647465929
 delta_qm =   0.329103E+00 delta_en =   0.187158E+06 tol =   0.100000E-03
 Iteration #        129
  pAp =  30.286549371458598  rzold =  3.5918292604581255  alpha =  0.11859486587280191
 delta_qm =   0.512711E+00 delta_en =   0.454244E+06 tol =   0.100000E-03
 Iteration #        130
  pAp =  7.76140217746713  rzold =  8.115681612758907  alpha =  1.0456463184346148
 delta_qm =   0.678033E+01 delta_en =   0.794411E+08 tol =   0.100000E-03
 Iteration #        131
  pAp =  -968203.1050776509  rzold =  3082.158477267337  alpha =  -0.003183380079141705
 delta_qm =   0.598634E+00 delta_en =   0.619251E+06 tol =   0.100000E-03
 Iteration #        132
  pAp =  29.87315206427558  rzold =  6.475615189052105  alpha =  0.21677040223673288
 delta_qm =   0.492431E+00 delta_en =   0.419019E+06 tol =   0.100000E-03
 Iteration #        133
  pAp =  -10.547169714100942  rzold =  6.2949188939996885  alpha =  -0.5968348916945704
 delta_qm =   0.144085E+01 delta_en =   0.358740E+07 tol =   0.100000E-03
 Iteration #        134
  pAp =  791.1679555704702  rzold =  44.13164323843345  alpha =  0.05578037245784608
 delta_qm =   0.541306E+00 delta_en =   0.506325E+06 tol =   0.100000E-03
 Iteration #        135
  pAp =  21.010600615387364  rzold =  5.777952574833149  alpha =  0.2750017803204348
 delta_qm =   0.818473E+00 delta_en =   0.115758E+07 tol =   0.100000E-03
 Iteration #        136
  pAp =  -19.567714053488604  rzold =  15.951230645602722  alpha =  -0.8151810989265186
 delta_qm =   0.426294E+01 delta_en =   0.314024E+08 tol =   0.100000E-03
 Iteration #        137
  pAp =  16195.976099701338  rzold =  406.12426786212654  alpha =  0.025075627758527976
 delta_qm =   0.483215E+00 delta_en =   0.403483E+06 tol =   0.100000E-03
 Iteration #        138
  pAp =  18.563811328029487  rzold =  3.934598485817695  alpha =  0.21194992861605133
 delta_qm =   0.282652E+00 delta_en =   0.138054E+06 tol =   0.100000E-03
 Iteration #        139
  pAp =  44.108064042834506  rzold =  3.5050821524888383  alpha =  0.079465789953623
 delta_qm =   0.245243E+00 delta_en =   0.103929E+06 tol =   0.100000E-03
 Iteration #        140
  pAp =  4.592350972002693  rzold =  1.4406899303356666  alpha =  0.313715118709098
 delta_qm =   0.233610E+00 delta_en =   0.943031E+05 tol =   0.100000E-03
 Iteration #        141
  pAp =  8.691815769852239  rzold =  1.7011962298933987  alpha =  0.195723917181268
 delta_qm =   0.258687E+00 delta_en =   0.115636E+06 tol =   0.100000E-03
 Iteration #        142
  pAp =  17.352033463372983  rzold =  1.708027146777277  alpha =  0.09843383199914953
 delta_qm =   0.282788E+00 delta_en =   0.138187E+06 tol =   0.100000E-03
 Iteration #        143
  pAp =  46.52294472648964  rzold =  4.67044437806416  alpha =  0.10039012804374058
 delta_qm =   0.309009E+00 delta_en =   0.165001E+06 tol =   0.100000E-03
 Iteration #        144
  pAp =  42.227922526586305  rzold =  2.4460225588927655  alpha =  0.05792429303981916
 delta_qm =   0.343764E+00 delta_en =   0.204204E+06 tol =   0.100000E-03
 Iteration #        145
  pAp =  18.246718682324172  rzold =  5.6036576336241035  alpha =  0.30710495027538504
 delta_qm =   0.637573E+00 delta_en =   0.702430E+06 tol =   0.100000E-03
 Iteration #        146
  pAp =  -14.559949687471807  rzold =  9.133974593710558  alpha =  -0.6273355876751373
 delta_qm =   0.977138E+00 delta_en =   0.164989E+07 tol =   0.100000E-03
 Iteration #        147
  pAp =  135.5023652122488  rzold =  18.354683254806936  alpha =  0.13545655255579078
 delta_qm =   0.435072E+00 delta_en =   0.327089E+06 tol =   0.100000E-03
 Iteration #        148
  pAp =  28.616640165523066  rzold =  3.518861775420144  alpha =  0.12296558069243992
 delta_qm =   0.415797E+00 delta_en =   0.298749E+06 tol =   0.100000E-03
 Iteration #        149
  pAp =  19.496782545212735  rzold =  3.9330699751791247  alpha =  0.20172918101016907
 delta_qm =   0.543185E+00 delta_en =   0.509846E+06 tol =   0.100000E-03
 Iteration #        150
  pAp =  -2.934783085549188  rzold =  3.9692432354290337  alpha =  -1.3524826604642457
 delta_qm =   0.329226E+01 delta_en =   0.187297E+08 tol =   0.100000E-03
 Iteration #        151
  pAp =  7939.05963879063  rzold =  173.5275848825616  alpha =  0.021857448208941196
 delta_qm =   0.822647E+00 delta_en =   0.116942E+07 tol =   0.100000E-03
 Iteration #        152
  pAp =  143.43525862966206  rzold =  11.948269938490519  alpha =  0.08330078707732498
 delta_qm =   0.351560E+00 delta_en =   0.213571E+06 tol =   0.100000E-03
 Iteration #        153
  pAp =  17.853869145120086  rzold =  2.612977151811416  alpha =  0.14635355118672463
 delta_qm =   0.301153E+00 delta_en =   0.156717E+06 tol =   0.100000E-03
 Iteration #        154
  pAp =  16.73673144260418  rzold =  2.5823289601426076  alpha =  0.1542911152633519
 delta_qm =   0.338549E+00 delta_en =   0.198055E+06 tol =   0.100000E-03
 Iteration #        155
  pAp =  39.78580850102562  rzold =  4.960662816619638  alpha =  0.12468422795760853
 delta_qm =   0.619143E+00 delta_en =   0.662408E+06 tol =   0.100000E-03
 Iteration #        156
  pAp =  -9.759434021890984  rzold =  6.420996340116074  alpha =  -0.6579271221787454
 delta_qm =   0.361141E+01 delta_en =   0.225371E+08 tol =   0.100000E-03
 Iteration #        157
  pAp =  5311.996991581511  rzold =  140.73507851749622  alpha =  0.02649381743636793
 delta_qm =   0.927986E+00 delta_en =   0.148808E+07 tol =   0.100000E-03
 Iteration #        158
  pAp =  949.4864861569027  rzold =  24.929781552227663  alpha =  0.0262560677963225
 delta_qm =   0.878970E+00 delta_en =   0.133503E+07 tol =   0.100000E-03
 Iteration #        159
  pAp =  -7.225623040720204  rzold =  10.110901018926358  alpha =  -1.3993119986949343
 delta_qm =   0.515898E+01 delta_en =   0.459908E+08 tol =   0.100000E-03
 Iteration #        160
  pAp =  12943.605398638205  rzold =  401.1716321392136  alpha =  0.030993808895118265
 delta_qm =   0.835951E+00 delta_en =   0.120755E+07 tol =   0.100000E-03
 Iteration #        161
  pAp =  202.88732703331272  rzold =  15.138164892836825  alpha =  0.07461365435777682
 delta_qm =   0.948315E+00 delta_en =   0.155399E+07 tol =   0.100000E-03
 Iteration #        162
  pAp =  -29.595336139970737  rzold =  13.105379522581943  alpha =  -0.4428190800266714
 delta_qm =   0.169405E+01 delta_en =   0.495902E+07 tol =   0.100000E-03
 Iteration #        163
  pAp =  676.599513250159  rzold =  50.61061979378899  alpha =  0.07480144280724119
 delta_qm =   0.500283E+00 delta_en =   0.432489E+06 tol =   0.100000E-03
 Iteration #        164
  pAp =  154.53420126133628  rzold =  9.500814063365214  alpha =  0.06148033241714675
 delta_qm =   0.345751E+00 delta_en =   0.206572E+06 tol =   0.100000E-03
 Iteration #        165
  pAp =  124.06985901826882  rzold =  5.434376213441398  alpha =  0.04380093808796226
 delta_qm =   0.324950E+00 delta_en =   0.182463E+06 tol =   0.100000E-03
 Iteration #        166
  pAp =  11.830006692544615  rzold =  2.804754303210541  alpha =  0.23708814171492604
 delta_qm =   0.526166E+00 delta_en =   0.478398E+06 tol =   0.100000E-03
 Iteration #        167
  pAp =  -2.1034448120112246  rzold =  3.2493672649451932  alpha =  -1.5447837026150861
 delta_qm =   0.328195E+01 delta_en =   0.186127E+08 tol =   0.100000E-03
 Iteration #        168
  pAp =  6767.715206595526  rzold =  172.40975531435498  alpha =  0.02547532661337933
 delta_qm =   0.380890E+00 delta_en =   0.250694E+06 tol =   0.100000E-03
 Iteration #        169
  pAp =  5.214334056619642  rzold =  2.222687248145572  alpha =  0.42626483535780596
 delta_qm =   0.606987E+00 delta_en =   0.636653E+06 tol =   0.100000E-03
 Iteration #        170
  pAp =  -38.407096123687964  rzold =  5.880294860378924  alpha =  -0.15310438574792934
 delta_qm =   0.417276E+00 delta_en =   0.300878E+06 tol =   0.100000E-03
 Iteration #        171
  pAp =  22.909420764033783  rzold =  2.8093752810775388  alpha =  0.12262969500687093
 delta_qm =   0.380428E+00 delta_en =   0.250086E+06 tol =   0.100000E-03
 Iteration #        172
  pAp =  173.14872820903196  rzold =  6.744851615121794  alpha =  0.03895409273222697
 delta_qm =   0.348915E+00 delta_en =   0.210370E+06 tol =   0.100000E-03
 Iteration #        173
  pAp =  32.42848905626367  rzold =  4.902558830125044  alpha =  0.15118061225791518
 delta_qm =   0.742794E+00 delta_en =   0.953411E+06 tol =   0.100000E-03
 Iteration #        174
  pAp =  -66.59470047079367  rzold =  10.314116785273441  alpha =  -0.15487894250379408
 delta_qm =   0.812143E+00 delta_en =   0.113975E+07 tol =   0.100000E-03
 Iteration #        175
  pAp =  358.1513037285  rzold =  16.734942861933288  alpha =  0.04672590239855547
 delta_qm =   0.320388E+00 delta_en =   0.177377E+06 tol =   0.100000E-03
 Iteration #        176
  pAp =  5.252421698247208  rzold =  2.1652647674634093  alpha =  0.4122412273534668
 delta_qm =   0.402261E+00 delta_en =   0.279615E+06 tol =   0.100000E-03
 Iteration #        177
  pAp =  -1.2826016648263774  rzold =  3.6750298113150888  alpha =  -2.8652931865736884
 delta_qm =   0.329808E+01 delta_en =   0.187960E+08 tol =   0.100000E-03
 Iteration #        178
  pAp =  4085.143764233504  rzold =  191.99108089302874  alpha =  0.046997386621729344
 delta_qm =   0.486615E+00 delta_en =   0.409181E+06 tol =   0.100000E-03
 Iteration #        179
  pAp =  10.223042471825506  rzold =  5.149633564197694  alpha =  0.5037280807929712
 delta_qm =   0.154135E+01 delta_en =   0.410530E+07 tol =   0.100000E-03
 Iteration #        180
  pAp =  -1513.8311862813168  rzold =  84.33621616477515  alpha =  -0.05571044970472874
 delta_qm =   0.123838E+01 delta_en =   0.265004E+07 tol =   0.100000E-03
 Iteration #        181
  pAp =  1214.3044442778364  rzold =  47.897779740389595  alpha =  0.03944462195300213
 delta_qm =   0.339317E+00 delta_en =   0.198955E+06 tol =   0.100000E-03
 Iteration #        182
  pAp =  15.311093050799169  rzold =  2.790913480740311  alpha =  0.18228048588566562
 delta_qm =   0.228387E+00 delta_en =   0.901339E+05 tol =   0.100000E-03
 Iteration #        183
  pAp =  68.07540180143299  rzold =  2.742483934314244  alpha =  0.040285974988641414
 delta_qm =   0.220960E+00 delta_en =   0.843668E+05 tol =   0.100000E-03
 Iteration #        184
  pAp =  10.880776023815127  rzold =  1.6388650972007681  alpha =  0.15062024010178393
 delta_qm =   0.226829E+00 delta_en =   0.889082E+05 tol =   0.100000E-03
 Iteration #        185
  pAp =  11.665838694388556  rzold =  2.0076877570752494  alpha =  0.17209973579019033
 delta_qm =   0.247514E+00 delta_en =   0.105863E+06 tol =   0.100000E-03
 Iteration #        186
  pAp =  16.56550738509543  rzold =  1.4355185520602791  alpha =  0.08665708322051552
 delta_qm =   0.275466E+00 delta_en =   0.131123E+06 tol =   0.100000E-03
 Iteration #        187
  pAp =  46.26070869479113  rzold =  5.064774177516842  alpha =  0.10948328117781574
 delta_qm =   0.385763E+00 delta_en =   0.257149E+06 tol =   0.100000E-03
 Iteration #        188
  pAp =  42.687868772555404  rzold =  4.237043563649541  alpha =  0.09925638560746308
 delta_qm =   0.453519E+00 delta_en =   0.355414E+06 tol =   0.100000E-03
 Iteration #        189
  pAp =  9.471249234265825  rzold =  5.22897953530355  alpha =  0.5520897408533755
 delta_qm =   0.129580E+01 delta_en =   0.290147E+07 tol =   0.100000E-03
 Iteration #        190
  pAp =  -274.77330108860775  rzold =  49.15918778140783  alpha =  -0.17890816752081448
 delta_qm =   0.151000E+01 delta_en =   0.393999E+07 tol =   0.100000E-03
 Iteration #        191
  pAp =  399.67109040955347  rzold =  39.96150651180213  alpha =  0.0999859821506042
 delta_qm =   0.594593E+00 delta_en =   0.610919E+06 tol =   0.100000E-03
 Iteration #        192
  pAp =  8.559557274180035  rzold =  4.532329218465531  alpha =  0.5295050986033277
 delta_qm =   0.141841E+01 delta_en =   0.347655E+07 tol =   0.100000E-03
 Iteration #        193
  pAp =  -177.31018068658187  rzold =  35.488567443779985  alpha =  -0.20014963216641524
 delta_qm =   0.404620E+01 delta_en =   0.282903E+08 tol =   0.100000E-03
 Iteration #        194
  pAp =  6880.862822188569  rzold =  197.2947805643806  alpha =  0.028672971059409642
 delta_qm =   0.104766E+01 delta_en =   0.189664E+07 tol =   0.100000E-03
 Iteration #        195
  pAp =  6.515924328062063  rzold =  9.732463682539837  alpha =  1.4936428344671129
 delta_qm =   0.614459E+01 delta_en =   0.652423E+08 tol =   0.100000E-03
 Iteration #        196
  pAp =  -105307.80552363988  rzold =  1380.5992731265742  alpha =  -0.013110132399603106
 delta_qm =   0.945064E+00 delta_en =   0.154336E+07 tol =   0.100000E-03
 Iteration #        197
  pAp =  135.60706539222699  rzold =  16.808400917930832  alpha =  0.12394930064532089
 delta_qm =   0.467538E+00 delta_en =   0.377727E+06 tol =   0.100000E-03
 Iteration #        198
  pAp =  29.723896223842452  rzold =  5.42330087727416  alpha =  0.18245592153978668
 delta_qm =   0.641057E+00 delta_en =   0.710129E+06 tol =   0.100000E-03
 Iteration #        199
  pAp =  -41.97964493107097  rzold =  9.55738161116904  alpha =  -0.22766704260748055
 delta_qm =   0.758319E+00 delta_en =   0.993682E+06 tol =   0.100000E-03
 Iteration #        200
  pAp =  378.8196385292603  rzold =  13.57136490053848  alpha =  0.03582539953110223
 delta_qm =   0.582844E+00 delta_en =   0.587014E+06 tol =   0.100000E-03
