
     Program PWSCF v.6.1 (svn rev. 13369) starts on 10Oct2017 at 12:39:16 

     This program is part of the open-source Quantum ESPRESSO suite
     for quantum simulation of materials; please cite
         "P. Giannozzi et al., J. Phys.:Condens. Matter 21 395502 (2009);
          URL http://www.quantum-espresso.org", 
     in publications or presentations arising from this work. More details at
     http://www.quantum-espresso.org/quote

     Serial version
     Reading input from cation.in

     Current dimensions of program PWSCF are:
     Max number of different atomic species (ntypx) = 10
     Max number of k-points (npk) =  40000
     Max angular momentum in pseudopotentials (lmaxx) =  3
               file C.pbe-rrkjus.UPF: wavefunction(s)  2S 2P renormalized
               file H.pbe-rrkjus.UPF: wavefunction(s)  1S renormalized
               file N.pbe-rrkjus.UPF: wavefunction(s)  2S renormalized
               file O.pbe-rrkjus.UPF: wavefunction(s)  2S renormalized

     gamma-point specific algorithms are used

     G-vector sticks info
     --------------------
     sticks:   dense  smooth     PW     G-vecs:    dense   smooth      PW
     Sum        9549    3809    949               701475   177509   22119



     bravais-lattice index     =            1
     lattice parameter (alat)  =      20.0000  a.u.
     unit-cell volume          =    8000.0000 (a.u.)^3
     number of atoms/cell      =           10
     number of atomic types    =            4
     number of electrons       =        24.00
     number of Kohn-Sham states=           12
     kinetic-energy cutoff     =      30.0000  Ry
     charge density cutoff     =     300.0000  Ry
     convergence threshold     =      5.0E-03
     mixing beta               =       0.7000
     number of iterations used =            8  plain     mixing
     Exchange-correlation      =  SLA  PW   PBE  PBE ( 1  4  3  4 0 0)


     Environ Module
     ==============

     Plese cite
         O. Andreussi, I. Dabo and N. Marzari, J. Chem. Phys. 136, 064102 (2012)         
     in publications or presentations arising from this work.

     compensation onset threshold      =               0.1000E+03 
     static permittivity               =                    78.30 
     epsilon calculation mode          =                    ionic 
     surface tension in input (dyn/cm) =                    50.00 
     surface tension in internal units =               0.6423E-04 
     external pressure in input (GPa)  =                    -0.35 
     external pressure in inter. units =              -0.2379E-04 

     Electrostatic Setup
     -------------------
     electrostatic problem to solve    = generalized              
     numerical solver adopted          = cg                       
     type of auxiliary density adopted = none                     
     type of core tool for poisson     = fft                      
     type of core tool for s(r) deriv  = analytic                 



     celldm(1)=  20.000000  celldm(2)=   0.000000  celldm(3)=   0.000000
     celldm(4)=   0.000000  celldm(5)=   0.000000  celldm(6)=   0.000000

     crystal axes: (cart. coord. in units of alat)
               a(1) = (   1.000000   0.000000   0.000000 )  
               a(2) = (   0.000000   1.000000   0.000000 )  
               a(3) = (   0.000000   0.000000   1.000000 )  

     reciprocal axes: (cart. coord. in units 2 pi/alat)
               b(1) = (  1.000000  0.000000  0.000000 )  
               b(2) = (  0.000000  1.000000  0.000000 )  
               b(3) = (  0.000000  0.000000  1.000000 )  


     PseudoPot. # 1 for C  read from file:
     /Users/oliviero/PWSCF/espresso-6.1-Environ-1.0/Environ/tests/../..//pseudo/C.pbe-rrkjus.UPF
     MD5 check sum: 00fb224312de0c5b6853bd333518df6f
     Pseudo is Ultrasoft, Zval =  4.0
     Generated by new atomic code, or converted to UPF format
     Using radial grid of  627 points,  4 beta functions with: 
                l(1) =   0
                l(2) =   0
                l(3) =   1
                l(4) =   1
     Q(r) pseudized with 0 coefficients 


     PseudoPot. # 2 for H  read from file:
     /Users/oliviero/PWSCF/espresso-6.1-Environ-1.0/Environ/tests/../..//pseudo/H.pbe-rrkjus.UPF
     MD5 check sum: 7cc9d459525c9a0585f487a71c3c9563
     Pseudo is Ultrasoft, Zval =  1.0
     Generated by new atomic code, or converted to UPF format
     Using radial grid of 1061 points,  2 beta functions with: 
                l(1) =   0
                l(2) =   0
     Q(r) pseudized with 0 coefficients 


     PseudoPot. # 3 for N  read from file:
     /Users/oliviero/PWSCF/espresso-6.1-Environ-1.0/Environ/tests/../..//pseudo/N.pbe-rrkjus.UPF
     MD5 check sum: 0c3fbe5807a93f9ba59d5a7019aa238b
     Pseudo is Ultrasoft, Zval =  5.0
     Generated by new atomic code, or converted to UPF format
     Using radial grid of 1257 points,  4 beta functions with: 
                l(1) =   0
                l(2) =   0
                l(3) =   1
                l(4) =   1
     Q(r) pseudized with 0 coefficients 


     PseudoPot. # 4 for O  read from file:
     /Users/oliviero/PWSCF/espresso-6.1-Environ-1.0/Environ/tests/../..//pseudo/O.pbe-rrkjus.UPF
     MD5 check sum: 390ba29e75625707450f3bd3f0eb6be9
     Pseudo is Ultrasoft, Zval =  6.0
     Generated by new atomic code, or converted to UPF format
     Using radial grid of 1269 points,  4 beta functions with: 
                l(1) =   0
                l(2) =   0
                l(3) =   1
                l(4) =   1
     Q(r) pseudized with 0 coefficients 


     atomic species   valence    mass     pseudopotential
        C              4.00    12.00000     C ( 1.00)
        H              1.00     1.00000     H ( 1.00)
        N              5.00    14.00000     N ( 1.00)
        O              6.00    16.00000     O ( 1.00)

     No symmetry found



   Cartesian axes

     site n.     atom                  positions (alat units)
         1           C   tau(   1) = (   0.0000000   0.0000000   0.0000000  )
         2           C   tau(   2) = (   0.0000000   0.0000000   0.1455089  )
         3           N   tau(   3) = (   0.1170969   0.0000000  -0.0545024  )
         4           H   tau(   4) = (   0.0476617  -0.0825466   0.1792090  )
         5           H   tau(   5) = (  -0.0953183  -0.0000030   0.1792090  )
         6           H   tau(   6) = (   0.0476566   0.0825496   0.1792090  )
         7           O   tau(   7) = (  -0.0984002  -0.0000019  -0.0641310  )
         8           H   tau(   8) = (   0.1263131  -0.0000015  -0.1475548  )
         9           H   tau(   9) = (   0.1944645   0.0000134  -0.0025716  )
        10           H   tau(  10) = (  -0.0770366  -0.0000045  -0.1522861  )

     number of k points=     1
                       cart. coord. in units 2pi/alat
        k(    1) = (   0.0000000   0.0000000   0.0000000), wk =   2.0000000

     Dense  grid:   350738 G-vectors     FFT dimensions: ( 120, 120, 120)

     Smooth grid:    88755 G-vectors     FFT dimensions: (  72,  72,  72)

     Estimated max dynamical RAM per process >     298.98MB

     Initial potential from superposition of free atoms
     Check: negative starting charge=   -0.000452

     starting charge   24.42266, renormalised to   24.00000

     negative rho (up, down):  4.438E-04 0.000E+00
     Starting wfc are   22 randomized atomic wfcs

     total cpu time spent up to now is      187.4 secs

     Self-consistent Calculation

     iteration #  1     ecut=    30.00 Ry     beta=0.70
     Davidson diagonalization with overlap
     ethr =  1.00E-02,  avg # of iterations =  2.0

     negative rho (up, down):  1.277E-04 0.000E+00

     add environment contribution to local potential
 Warning: Polarization charge not converged
     polarization accuracy = 3.4E+01, # of iterations = 201

     total cpu time spent up to now is      236.1 secs

     total energy              =     -80.22674268 Ry
     Harris-Foulkes estimate   =     -83.01879009 Ry
     estimated scf accuracy    <       3.73442311 Ry
     electrostatic embedding   =       0.00242302 Ry
     cavitation energy         =       0.02741319 Ry
     PV energy                 =      -0.01754709 Ry
     correction to one-el term =       0.00000000 Ry

     iteration #  2     ecut=    30.00 Ry     beta=0.70
     Davidson diagonalization with overlap
     ethr =  1.00E-02,  avg # of iterations =  4.0

     negative rho (up, down):  7.253E-04 0.000E+00

     add environment contribution to local potential
 Warning: Polarization charge not converged
     polarization accuracy = 7.0E+01, # of iterations = 201

     total cpu time spent up to now is      285.2 secs

     total energy              =     -80.88523538 Ry
     Harris-Foulkes estimate   =     -78.71632789 Ry
     estimated scf accuracy    <       1.63602932 Ry
     electrostatic embedding   =      -0.05432822 Ry
     cavitation energy         =       0.02741319 Ry
     PV energy                 =      -0.01754709 Ry
     correction to one-el term =      -2.98923284 Ry

     iteration #  3     ecut=    30.00 Ry     beta=0.70
     Davidson diagonalization with overlap
     ethr =  6.82E-03,  avg # of iterations =  3.0

     negative rho (up, down):  3.562E-04 0.000E+00

     add environment contribution to local potential
 Warning: Polarization charge not converged
     polarization accuracy = 1.1E+01, # of iterations = 201

     total cpu time spent up to now is      334.9 secs

     total energy              =     -81.23839600 Ry
     Harris-Foulkes estimate   =     -78.84518743 Ry
     estimated scf accuracy    <       0.25905597 Ry
     electrostatic embedding   =      -0.04008366 Ry
     cavitation energy         =       0.02741319 Ry
     PV energy                 =      -0.01754709 Ry
     correction to one-el term =      -2.50072999 Ry

     iteration #  4     ecut=    30.00 Ry     beta=0.70
     Davidson diagonalization with overlap
     ethr =  1.08E-03,  avg # of iterations =  4.0

     negative rho (up, down):  1.048E-04 0.000E+00

     add environment contribution to local potential
 Warning: Polarization charge not converged
     polarization accuracy = 1.5E+01, # of iterations = 201

     total cpu time spent up to now is      383.3 secs

     total energy              =     -81.29349792 Ry
     Harris-Foulkes estimate   =     -78.97225673 Ry
     estimated scf accuracy    <       0.02557103 Ry
     electrostatic embedding   =      -0.03370182 Ry
     cavitation energy         =       0.02741319 Ry
     PV energy                 =      -0.01754709 Ry
     correction to one-el term =      -2.31033732 Ry

     iteration #  5     ecut=    30.00 Ry     beta=0.70
     Davidson diagonalization with overlap
     ethr =  1.07E-04,  avg # of iterations =  4.0

     negative rho (up, down):  2.923E-04 0.000E+00

     total cpu time spent up to now is      387.3 secs

     End of self-consistent calculation

          k = 0.0000 0.0000 0.0000 ( 11060 PWs)   bands (ev):

   -30.1356 -24.3934 -19.7062 -17.1917 -15.9518 -14.7054 -12.7457 -12.0371
   -10.5107 -10.4975 -10.3789  -8.5260

     highest occupied level (ev):    -8.5260

!    total energy              =     -81.29680027 Ry
     Harris-Foulkes estimate   =     -79.18718605 Ry
     estimated scf accuracy    <       0.00271764 Ry

     The total energy is the sum of the following terms:

     one-electron contribution =    -243.50086880 Ry
     hartree contribution      =     122.93695097 Ry
     xc contribution           =     -22.92900880 Ry
     ewald contribution        =      64.30784006 Ry
     electrostatic embedding   =      -0.03199081 Ry
     cavitation energy         =       0.02741319 Ry
     PV energy                 =      -0.01754709 Ry
     correction to one-el term =      -2.08958899 Ry

     convergence has been achieved in   5 iterations

     Forces acting on atoms (cartesian axes, Ry/au):

     atom    1 type  1   force =     0.28908504    0.00245249    0.04501387
     atom    2 type  1   force =     0.00195767   -0.00103970   -0.15386770
     atom    3 type  3   force =    -0.18248681    0.00255675   -0.00659905
     atom    4 type  2   force =    -0.05492991    0.02720583   -0.00188060
     atom    5 type  2   force =     0.01941197   -0.00157622    0.01348063
     atom    6 type  2   force =    -0.05523670   -0.03274582   -0.00017028
     atom    7 type  4   force =     0.17718471    0.00850262   -0.18429238
     atom    8 type  2   force =    -0.07622045   -0.00176979    0.11867224
     atom    9 type  2   force =    -0.12210237   -0.00217813    0.02553924
     atom   10 type  2   force =     0.00333685   -0.00140805    0.14410402

     Total force =     0.522256     Total SCF correction =     0.124613
     SCF correction compared to forces is large: reduce conv_thr to get better values

     Writing output data file pwscf.save

     init_run     :    180.19s CPU    187.08s WALL (       1 calls)
     electrons    :    180.15s CPU    200.13s WALL (       1 calls)
     forces       :    241.99s CPU   4517.47s WALL (       1 calls)

     Called by init_run:
     wfcinit      :      0.25s CPU      0.25s WALL (       1 calls)
     potinit      :      1.97s CPU      2.10s WALL (       1 calls)

     Called by electrons:
     c_bands      :      2.30s CPU      2.14s WALL (       5 calls)
     sum_band     :      7.15s CPU      7.12s WALL (       5 calls)
     v_of_rho     :      7.90s CPU      8.49s WALL (       6 calls)
     newd         :      3.76s CPU      5.28s WALL (       6 calls)
     mix_rho      :      0.65s CPU      0.72s WALL (       5 calls)

     Called by c_bands:
     init_us_2    :      0.09s CPU      0.14s WALL (      11 calls)
     regterg      :      2.17s CPU      1.98s WALL (       5 calls)

     Called by sum_band:
     sum_band:bec :      0.00s CPU      0.00s WALL (       5 calls)
     addusdens    :      5.66s CPU      5.59s WALL (       5 calls)

     Called by *egterg:
     h_psi        :      1.99s CPU      1.92s WALL (      23 calls)
     s_psi        :      0.11s CPU      0.04s WALL (      23 calls)
     g_psi        :      0.02s CPU      0.02s WALL (      17 calls)
     rdiaghg      :      0.01s CPU      0.01s WALL (      22 calls)

     Called by h_psi:
     h_psi:pot    :      1.97s CPU      1.90s WALL (      23 calls)
     h_psi:calbec :      0.06s CPU      0.06s WALL (      23 calls)
     vloc_psi     :      1.79s CPU      1.80s WALL (      23 calls)
     add_vuspsi   :      0.13s CPU      0.04s WALL (      23 calls)

     General routines
     calbec       :      0.08s CPU      0.08s WALL (      32 calls)
     fft          :    102.63s CPU    103.36s WALL (    1717 calls)
     ffts         :      0.11s CPU      0.12s WALL (      11 calls)
     fftw         :      1.48s CPU      1.48s WALL (     244 calls)
     interpolate  :      0.90s CPU      0.99s WALL (      11 calls)
     davcio       :      0.01s CPU      0.11s WALL (       1 calls)


     Environ routines
     calc_eelect  :      0.02s CPU      0.02s WALL (      10 calls)
     calc_velect  :    159.60s CPU    177.71s WALL (       8 calls)
     dielectric   :      0.24s CPU      0.29s WALL (       2 calls)
     calc_felect  :      0.96s CPU      1.00s WALL (       1 calls)

     PWSCF        :     0h10m CPU        1h21m WALL


   This run was terminated on:  14: 1: 2  10Oct2017            

=------------------------------------------------------------------------------=
   JOB DONE.
=------------------------------------------------------------------------------=

%%%% IONS %%%%%%%%%%%%%%%%%%%%%%%%%%%%%%%%%%%%%%%%%%%%%%%%%%%%%%%%%%%%%%%%%%%%%%
 number of ions             =         10
 ionic center of charge     =      0.0095530    -0.0000002     0.0063981
 total ionic charge         =    -25.0000000
 ionic dipole               =      0.0000000     0.0000000     0.0000000
 ionic quadrupole (pc)      =    -79.0828058    -5.4513517  -105.8059629
 ionic quadrupole (gauss)   =    -82.2078058    -8.5763517  -108.9309629
 ion   1 type =  1 coordinates =      0.0000000     0.0000000     0.0000000
 ion   2 type =  1 coordinates =      0.0000000     0.0000000     2.9101782
 ion   3 type =  3 coordinates =      2.3419379     0.0000000    -1.0900479
 ion   4 type =  2 coordinates =      0.9532347    -1.6509323     3.5841800
 ion   5 type =  2 coordinates =     -1.9063663    -0.0000596     3.5841809
 ion   6 type =  2 coordinates =      0.9531315     1.6509919     3.5841800
 ion   7 type =  4 coordinates =     -1.9680045    -0.0000375    -1.2826193
 ion   8 type =  2 coordinates =      2.5262613    -0.0000303    -2.9510950
 ion   9 type =  2 coordinates =      3.8892907     0.0002681    -0.0514326
 ion  10 type =  2 coordinates =     -1.5407317    -0.0000890    -3.0457220

%%%% SYSTEM %%%%%%%%%%%%%%%%%%%%%%%%%%%%%%%%%%%%%%%%%%%%%%%%%%%%%%%%%%%%%%%%%%%%
 system is built from all present ionic types
 system defined dimension   =  0 
 system defined axis        =  3 
 system center              =      0.0095530    -0.0000002     0.0063981 
 system width               =      0.5223840 

%%%% BOUNDARY %%%%%%%%%%%%%%%%%%%%%%%%%%%%%%%%%%%%%%%%%%%%%%%%%%%%%%%%%%%%%%%%%%
 boundary mode              = ionic                
 boundary is built from soft-spheres centered on ionic positions
 solvent-dependent scaling  =      1.1000000 
 softness parameter         =      0.5000000 

%%%% DIELECTRIC %%%%%%%%%%%%%%%%%%%%%%%%%%%%%%%%%%%%%%%%%%%%%%%%%%%%%%%%%%%%%%%%%
 dielectric build on homogeneous background
 environment bulk permitt.  =     78.3000000 
 dielectric flags
 need gradient              =  F 
 need factor depend. sqrt   =  T 
 need gradient of logarithm =  T 

%%%% ELECTRONS %%%%%%%%%%%%%%%%%%%%%%%%%%%%%%%%%%%%%%%%%%%%%%%%%%%%%%%%%%%%%%%%%
 number of electrons        =         24
 total electronic charge    =     24.0000000
 number of spin components  =  1

%%%% COMPUTE ELECTROSTATIC POTENTIAL %%%%%%%%%%%%%%%%%%%%%%%%%%%%%%%%%%%%%%%%%%%
 Iteration #          1
  pAp =  81.13870444757767  rzold =  89.10992969436455  alpha =  1.0982419586442493
 delta_qm =   0.644242E-01 delta_en =   0.717202E+04 tol =   0.100000E-03
 Iteration #          2
  pAp =  -5272.366494070977  rzold =  216.74202816509379  alpha =  -0.04110905954827502
 delta_qm =   0.869075E-02 delta_en =   0.130514E+03 tol =   0.100000E-03
 Iteration #          3
  pAp =  -14.081327191232543  rzold =  1.500864781010711  alpha =  -0.10658546319023071
 delta_qm =   0.518653E-02 delta_en =   0.464833E+02 tol =   0.100000E-03
 Iteration #          4
  pAp =  -2.859716255920579  rzold =  0.2717942225194203  alpha =  -0.095042374206432
 delta_qm =   0.486700E-02 delta_en =   0.409324E+02 tol =   0.100000E-03
 Iteration #          5
  pAp =  -0.6596333685184104  rzold =  0.11795445545031027  alpha =  -0.17881820580915347
 delta_qm =   0.530924E-02 delta_en =   0.487090E+02 tol =   0.100000E-03
 Iteration #          6
  pAp =  -0.17711929190683193  rzold =  0.1541653641570156  alpha =  -0.8704041355252791
 delta_qm =   0.123872E-01 delta_en =   0.265150E+03 tol =   0.100000E-03
 Iteration #          7
  pAp =  2.2703864540248677  rzold =  1.4918608936148134  alpha =  0.657095575499973
 delta_qm =   0.419713E-01 delta_en =   0.304403E+04 tol =   0.100000E-03
 Iteration #          8
  pAp =  -980.8888167204356  rzold =  24.93264319735263  alpha =  -0.025418419266634084
 delta_qm =   0.689949E-02 delta_en =   0.822580E+02 tol =   0.100000E-03
 Iteration #          9
  pAp =  -1.4621713519002464  rzold =  0.25666192854205455  alpha =  -0.1755347813431683
 delta_qm =   0.581158E-02 delta_en =   0.583622E+02 tol =   0.100000E-03
 Iteration #         10
  pAp =  -0.35409623095200937  rzold =  0.12857444797032172  alpha =  -0.36310594898070914
 delta_qm =   0.768925E-02 delta_en =   0.102167E+03 tol =   0.100000E-03
 Iteration #         11
  pAp =  0.021100228648862726  rzold =  0.19202035090074046  alpha =  9.100391948173987
 delta_qm =   0.166132E+00 delta_en =   0.476924E+05 tol =   0.100000E-03
 Iteration #         12
  pAp =  -10152.183330124246  rzold =  128.71916556402073  alpha =  -0.012678963862096196
 delta_qm =   0.695713E-02 delta_en =   0.836380E+02 tol =   0.100000E-03
 Iteration #         13
  pAp =  -1.1588297482851657  rzold =  0.17042625337807552  alpha =  -0.14706755123457263
 delta_qm =   0.578549E-02 delta_en =   0.578395E+02 tol =   0.100000E-03
 Iteration #         14
  pAp =  -0.7188459140322168  rzold =  0.10873797953774303  alpha =  -0.1512674377291789
 delta_qm =   0.609001E-02 delta_en =   0.640884E+02 tol =   0.100000E-03
 Iteration #         15
  pAp =  -0.17443009008866703  rzold =  0.05874229179137292  alpha =  -0.33676696355263475
 delta_qm =   0.902306E-02 delta_en =   0.140686E+03 tol =   0.100000E-03
 Iteration #         16
  pAp =  0.014715592104604262  rzold =  0.1523043209671747  alpha =  10.34986019485558
 delta_qm =   0.335320E+00 delta_en =   0.194295E+06 tol =   0.100000E-03
 Iteration #         17
  pAp =  -47792.779456607816  rzold =  270.12308705069165  alpha =  -0.005651964378760242
 delta_qm =   0.407669E-02 delta_en =   0.287183E+02 tol =   0.100000E-03
 Iteration #         18
  pAp =  -0.27413687220076216  rzold =  0.06398860100252911  alpha =  -0.23341843980647564
 delta_qm =   0.201674E-02 delta_en =   0.702819E+01 tol =   0.100000E-03
 Iteration #         19
  pAp =  -0.03836616871380837  rzold =  0.015621155062908147  alpha =  -0.4071596301271004
 delta_qm =   0.204519E-02 delta_en =   0.722786E+01 tol =   0.100000E-03
 Iteration #         20
  pAp =  -0.02848236421550563  rzold =  0.013634369800166902  alpha =  -0.47869515665923656
 delta_qm =   0.333663E-02 delta_en =   0.192380E+02 tol =   0.100000E-03
 Iteration #         21
  pAp =  0.0009621243448822652  rzold =  0.02572724854787482  alpha =  26.740045280761557
 delta_qm =   0.222488E+00 delta_en =   0.855372E+05 tol =   0.100000E-03
 Iteration #         22
  pAp =  -19177.966195700432  rzold =  113.32087946806287  alpha =  -0.005908910168663695
 delta_qm =   0.416552E-02 delta_en =   0.299835E+02 tol =   0.100000E-03
 Iteration #         23
  pAp =  -0.49393077842731914  rzold =  0.06510842679902132  alpha =  -0.13181690561241646
 delta_qm =   0.197233E-02 delta_en =   0.672207E+01 tol =   0.100000E-03
 Iteration #         24
  pAp =  -0.02557979145362373  rzold =  0.00917803843402462  alpha =  -0.35880036202267096
 delta_qm =   0.183791E-02 delta_en =   0.583704E+01 tol =   0.100000E-03
 Iteration #         25
  pAp =  -0.2419444461515233  rzold =  0.021789490086864302  alpha =  -0.09005988950545338
 delta_qm =   0.209768E-02 delta_en =   0.760365E+01 tol =   0.100000E-03
 Iteration #         26
  pAp =  -0.007762792720866141  rzold =  0.010935191331768956  alpha =  -1.4086671800955741
 delta_qm =   0.712427E-02 delta_en =   0.877049E+02 tol =   0.100000E-03
 Iteration #         27
  pAp =  0.541313162063883  rzold =  0.13134758613661043  alpha =  0.24264620803938527
 delta_qm =   0.561398E-02 delta_en =   0.544610E+02 tol =   0.100000E-03
 Iteration #         28
  pAp =  -0.8062668535314672  rzold =  0.09010276578030234  alpha =  -0.11175303236844002
 delta_qm =   0.241909E-02 delta_en =   0.101123E+02 tol =   0.100000E-03
 Iteration #         29
  pAp =  -0.03283664422361717  rzold =  0.011820832331919296  alpha =  -0.35998904916773966
 delta_qm =   0.221638E-02 delta_en =   0.848851E+01 tol =   0.100000E-03
 Iteration #         30
  pAp =  -0.03979733404088739  rzold =  0.008676286138622525  alpha =  -0.21801174243753602
 delta_qm =   0.274288E-02 delta_en =   0.130004E+02 tol =   0.100000E-03
 Iteration #         31
  pAp =  -0.03185233288689353  rzold =  0.026552576936898123  alpha =  -0.8336148259904653
 delta_qm =   0.118044E-01 delta_en =   0.240786E+03 tol =   0.100000E-03
 Iteration #         32
  pAp =  2.0589116212170455  rzold =  0.2502647888382177  alpha =  0.12155198225083765
 delta_qm =   0.231834E-02 delta_en =   0.928745E+01 tol =   0.100000E-03
 Iteration #         33
  pAp =  -0.5046959141141781  rzold =  0.032110046725944315  alpha =  -0.06362256128485322
 delta_qm =   0.156143E-02 delta_en =   0.421298E+01 tol =   0.100000E-03
 Iteration #         34
  pAp =  -0.018374749632784612  rzold =  0.007097886034171488  alpha =  -0.3862847753586417
 delta_qm =   0.124054E-02 delta_en =   0.265930E+01 tol =   0.100000E-03
 Iteration #         35
  pAp =  -0.006583855378194734  rzold =  0.004024604408605486  alpha =  -0.6112838416734809
 delta_qm =   0.186652E-02 delta_en =   0.602019E+01 tol =   0.100000E-03
 Iteration #         36
  pAp =  0.0002549805647044561  rzold =  0.005225886744451209  alpha =  20.49523558985153
 delta_qm =   0.701118E-01 delta_en =   0.849426E+04 tol =   0.100000E-03
 Iteration #         37
  pAp =  -385.1427158077491  rzold =  6.303101434963662  alpha =  -0.01636562545845984
 delta_qm =   0.216924E-02 delta_en =   0.813125E+01 tol =   0.100000E-03
 Iteration #         38
  pAp =  -0.028195479791008168  rzold =  0.007825545637381795  alpha =  -0.2775461065173093
 delta_qm =   0.147378E-02 delta_en =   0.375326E+01 tol =   0.100000E-03
 Iteration #         39
  pAp =  -0.07628478422386636  rzold =  0.008820086851745311  alpha =  -0.11562052565898023
 delta_qm =   0.137436E-02 delta_en =   0.326397E+01 tol =   0.100000E-03
 Iteration #         40
  pAp =  -0.008337498250682727  rzold =  0.0040366329771009705  alpha =  -0.48415398189384035
 delta_qm =   0.204202E-02 delta_en =   0.720549E+01 tol =   0.100000E-03
 Iteration #         41
  pAp =  0.0011370844183994783  rzold =  0.00831081102829141  alpha =  7.308877770033494
 delta_qm =   0.382422E-01 delta_en =   0.252714E+04 tol =   0.100000E-03
 Iteration #         42
  pAp =  -122.67388131615438  rzold =  2.6339927228987063  alpha =  -0.021471503914597734
 delta_qm =   0.179702E-02 delta_en =   0.558021E+01 tol =   0.100000E-03
 Iteration #         43
  pAp =  -0.019878812684216145  rzold =  0.005800988782372398  alpha =  -0.29181766911956497
 delta_qm =   0.134240E-02 delta_en =   0.311393E+01 tol =   0.100000E-03
 Iteration #         44
  pAp =  -0.012887455438809776  rzold =  0.0033709646916420775  alpha =  -0.26156945470326326
 delta_qm =   0.155960E-02 delta_en =   0.420312E+01 tol =   0.100000E-03
 Iteration #         45
  pAp =  -0.028517319153089374  rzold =  0.006752009302249634  alpha =  -0.23676872520880585
 delta_qm =   0.233994E-02 delta_en =   0.946135E+01 tol =   0.100000E-03
 Iteration #         46
  pAp =  -0.07433536949405271  rzold =  0.016375473538296968  alpha =  -0.22029181599221223
 delta_qm =   0.470301E-02 delta_en =   0.382205E+02 tol =   0.100000E-03
 Iteration #         47
  pAp =  0.19035147124745314  rzold =  0.03911808270514378  alpha =  0.2055044936022115
 delta_qm =   0.166107E-02 delta_en =   0.476783E+01 tol =   0.100000E-03
 Iteration #         48
  pAp =  -0.015608232718115058  rzold =  0.005234974995970228  alpha =  -0.33539831770284073
 delta_qm =   0.877156E-03 delta_en =   0.132953E+01 tol =   0.100000E-03
 Iteration #         49
  pAp =  -0.004442009602521174  rzold =  0.001794908803747531  alpha =  -0.40407584952738185
 delta_qm =   0.939206E-03 delta_en =   0.152428E+01 tol =   0.100000E-03
 Iteration #         50
  pAp =  -0.012245922874509856  rzold =  0.0032278752733889363  alpha =  -0.2635877513247961
 delta_qm =   0.134309E-02 delta_en =   0.311713E+01 tol =   0.100000E-03
 Iteration #         51
  pAp =  -0.0047144522960281  rzold =  0.0037116009111779823  alpha =  -0.7872814651884347
 delta_qm =   0.387165E-02 delta_en =   0.259021E+02 tol =   0.100000E-03
 Iteration #         52
  pAp =  0.15381444830499316  rzold =  0.02985232629024751  alpha =  0.19408011808522954
 delta_qm =   0.209778E-02 delta_en =   0.760441E+01 tol =   0.100000E-03
 Iteration #         53
  pAp =  -0.05711462634301112  rzold =  0.0065889255300768685  alpha =  -0.11536319069140033
 delta_qm =   0.162908E-02 delta_en =   0.458593E+01 tol =   0.100000E-03
 Iteration #         54
  pAp =  -0.03426136395681984  rzold =  0.006924561656200362  alpha =  -0.20210992373005057
 delta_qm =   0.117135E-02 delta_en =   0.237092E+01 tol =   0.100000E-03
 Iteration #         55
  pAp =  -0.005730454254046058  rzold =  0.0024990793135794566  alpha =  -0.4361049234124766
 delta_qm =   0.151250E-02 delta_en =   0.395307E+01 tol =   0.100000E-03
 Iteration #         56
  pAp =  -0.028994247671964013  rzold =  0.006337238770851988  alpha =  -0.2185688293260936
 delta_qm =   0.232344E-02 delta_en =   0.932840E+01 tol =   0.100000E-03
 Iteration #         57
  pAp =  0.03419466795162667  rzold =  0.01811340059093035  alpha =  0.5297141828238949
 delta_qm =   0.517876E-02 delta_en =   0.463442E+02 tol =   0.100000E-03
 Iteration #         58
  pAp =  -0.4805301957894417  rzold =  0.05285848541801055  alpha =  -0.1100003410424015
 delta_qm =   0.136335E-02 delta_en =   0.321187E+01 tol =   0.100000E-03
 Iteration #         59
  pAp =  -0.02588243197431997  rzold =  0.004444581890968172  alpha =  -0.171721957788897
 delta_qm =   0.111928E-02 delta_en =   0.216481E+01 tol =   0.100000E-03
 Iteration #         60
  pAp =  -0.0034232420866472366  rzold =  0.0023800875024794447  alpha =  -0.6952729144582732
 delta_qm =   0.157686E-02 delta_en =   0.429664E+01 tol =   0.100000E-03
 Iteration #         61
  pAp =  -0.0004369941199566433  rzold =  0.0033240443382266506  alpha =  -7.606611133706898
 delta_qm =   0.218770E-01 delta_en =   0.827026E+03 tol =   0.100000E-03
 Iteration #         62
  pAp =  12.698113045764146  rzold =  0.6182884966181029  alpha =  0.04869136811034711
 delta_qm =   0.348038E-02 delta_en =   0.209313E+02 tol =   0.100000E-03
 Iteration #         63
  pAp =  -0.21497074304301755  rzold =  0.024345241550139535  alpha =  -0.11324909243704775
 delta_qm =   0.159305E-02 delta_en =   0.438533E+01 tol =   0.100000E-03
 Iteration #         64
  pAp =  -0.004355370419463161  rzold =  0.0030152604346506888  alpha =  -0.6923086085114999
 delta_qm =   0.142356E-02 delta_en =   0.350181E+01 tol =   0.100000E-03
 Iteration #         65
  pAp =  -0.03618310684326713  rzold =  0.004852648961568803  alpha =  -0.13411366200776573
 delta_qm =   0.158705E-02 delta_en =   0.435238E+01 tol =   0.100000E-03
 Iteration #         66
  pAp =  -0.0035869613758406083  rzold =  0.005440562146474399  alpha =  -1.5167607276505444
 delta_qm =   0.687344E-02 delta_en =   0.816379E+02 tol =   0.100000E-03
 Iteration #         67
  pAp =  0.6101682284866051  rzold =  0.140195150331035  alpha =  0.22976474976214312
 delta_qm =   0.156143E-01 delta_en =   0.421299E+03 tol =   0.100000E-03
 Iteration #         68
  pAp =  -20.457948086301144  rzold =  0.6415477140837162  alpha =  -0.03135933825706124
 delta_qm =   0.223747E-02 delta_en =   0.865086E+01 tol =   0.100000E-03
 Iteration #         69
  pAp =  -0.02350338494947598  rzold =  0.007688510263828684  alpha =  -0.32712353051938176
 delta_qm =   0.153078E-02 delta_en =   0.404921E+01 tol =   0.100000E-03
 Iteration #         70
  pAp =  -0.013201560669107475  rzold =  0.0045986946350345375  alpha =  -0.34834477152355076
 delta_qm =   0.176098E-02 delta_en =   0.535863E+01 tol =   0.100000E-03
 Iteration #         71
  pAp =  -0.0022342038015285347  rzold =  0.005839242172084122  alpha =  -2.613567378271039
 delta_qm =   0.101394E-01 delta_en =   0.177652E+03 tol =   0.100000E-03
 Iteration #         72
  pAp =  1.109431271382713  rzold =  0.14738472891793786  alpha =  0.13284710168143038
 delta_qm =   0.231200E-02 delta_en =   0.923675E+01 tol =   0.100000E-03
 Iteration #         73
  pAp =  -0.015496784283792487  rzold =  0.005955840035002463  alpha =  -0.38432747891002494
 delta_qm =   0.187942E-02 delta_en =   0.610371E+01 tol =   0.100000E-03
 Iteration #         74
  pAp =  -0.030904114436960773  rzold =  0.008301104276018769  alpha =  -0.2686083852346468
 delta_qm =   0.205571E-02 delta_en =   0.730240E+01 tol =   0.100000E-03
 Iteration #         75
  pAp =  -0.005853405887343817  rzold =  0.006282690311932439  alpha =  -1.073339254589677
 delta_qm =   0.519874E-02 delta_en =   0.467025E+02 tol =   0.100000E-03
 Iteration #         76
  pAp =  -0.18178533636326866  rzold =  0.08281150751401829  alpha =  -0.4555455856380674
 delta_qm =   0.251649E-01 delta_en =   0.109429E+04 tol =   0.100000E-03
 Iteration #         77
  pAp =  30.21397931682662  rzold =  1.226930284396987  alpha =  0.04060803350433523
 delta_qm =   0.256655E-02 delta_en =   0.113826E+02 tol =   0.100000E-03
 Iteration #         78
  pAp =  -0.03439881866869883  rzold =  0.010137346387316507  alpha =  -0.29470042227179666
 delta_qm =   0.187494E-02 delta_en =   0.607463E+01 tol =   0.100000E-03
 Iteration #         79
  pAp =  -0.058258966110532814  rzold =  0.007061119393661237  alpha =  -0.12120227777925904
 delta_qm =   0.191670E-02 delta_en =   0.634823E+01 tol =   0.100000E-03
 Iteration #         80
  pAp =  -0.006714711079130623  rzold =  0.00765513218504494  alpha =  -1.1400538451813889
 delta_qm =   0.565695E-02 delta_en =   0.552978E+02 tol =   0.100000E-03
 Iteration #         81
  pAp =  0.04655079782995792  rzold =  0.041318084455535614  alpha =  0.8875913277891281
 delta_qm =   0.162281E-01 delta_en =   0.455070E+03 tol =   0.100000E-03
 Iteration #         82
  pAp =  -19.653825583184986  rzold =  0.6915094474352443  alpha =  -0.03518447055044956
 delta_qm =   0.246198E-02 delta_en =   0.104740E+02 tol =   0.100000E-03
 Iteration #         83
  pAp =  -0.006502814303927752  rzold =  0.005693114551458146  alpha =  -0.8754847186731841
 delta_qm =   0.229528E-02 delta_en =   0.910362E+01 tol =   0.100000E-03
 Iteration #         84
  pAp =  -0.0025730751330256593  rzold =  0.006498948586635805  alpha =  -2.525751581530284
 delta_qm =   0.902025E-02 delta_en =   0.140599E+03 tol =   0.100000E-03
 Iteration #         85
  pAp =  0.9237562906921252  rzold =  0.19632172700888945  alpha =  0.21252545610465637
 delta_qm =   0.104601E-01 delta_en =   0.189067E+03 tol =   0.100000E-03
 Iteration #         86
  pAp =  -10.412227588151557  rzold =  0.3931646765892755  alpha =  -0.037759900392176554
 delta_qm =   0.391740E-02 delta_en =   0.265180E+02 tol =   0.100000E-03
 Iteration #         87
  pAp =  -0.09837098263499454  rzold =  0.024199808129592444  alpha =  -0.2460055544975678
 delta_qm =   0.253545E-02 delta_en =   0.111085E+02 tol =   0.100000E-03
 Iteration #         88
  pAp =  -0.03172827994473618  rzold =  0.010350939115473926  alpha =  -0.32623700791543153
 delta_qm =   0.271299E-02 delta_en =   0.127186E+02 tol =   0.100000E-03
 Iteration #         89
  pAp =  -0.041547915370698456  rzold =  0.010145259051029882  alpha =  -0.24418214392977214
 delta_qm =   0.355494E-02 delta_en =   0.218377E+02 tol =   0.100000E-03
 Iteration #         90
  pAp =  0.003214958141586817  rzold =  0.015689299892710794  alpha =  4.880094608313307
 delta_qm =   0.440041E-01 delta_en =   0.334603E+04 tol =   0.100000E-03
 Iteration #         91
  pAp =  -54.979507159864795  rzold =  1.9081619881617993  alpha =  -0.03470678597778998
 delta_qm =   0.466444E-02 delta_en =   0.375961E+02 tol =   0.100000E-03
 Iteration #         92
  pAp =  -0.5436382339673651  rzold =  0.0489613317261216  alpha =  -0.09006234048111629
 delta_qm =   0.255771E-02 delta_en =   0.113044E+02 tol =   0.100000E-03
 Iteration #         93
  pAp =  -0.057812479574381896  rzold =  0.012530207133838227  alpha =  -0.21673879456626288
 delta_qm =   0.201009E-02 delta_en =   0.698193E+01 tol =   0.100000E-03
 Iteration #         94
  pAp =  -0.009467200944874266  rzold =  0.006601093222744656  alpha =  -0.6972592280634564
 delta_qm =   0.292559E-02 delta_en =   0.147901E+02 tol =   0.100000E-03
 Iteration #         95
  pAp =  0.005789751138846144  rzold =  0.011984969093505007  alpha =  2.070031821072974
 delta_qm =   0.104117E-01 delta_en =   0.187323E+03 tol =   0.100000E-03
 Iteration #         96
  pAp =  -1.0654148550019171  rzold =  0.1369916985752931  alpha =  -0.12858061620986747
 delta_qm =   0.265506E-02 delta_en =   0.121813E+02 tol =   0.100000E-03
 Iteration #         97
  pAp =  -0.01424910587872517  rzold =  0.006963214918826973  alpha =  -0.4886773232012754
 delta_qm =   0.271404E-02 delta_en =   0.127285E+02 tol =   0.100000E-03
 Iteration #         98
  pAp =  -0.16427105482954765  rzold =  0.015830352155066438  alpha =  -0.09636726428458418
 delta_qm =   0.307992E-02 delta_en =   0.163917E+02 tol =   0.100000E-03
 Iteration #         99
  pAp =  -0.007787016650131341  rzold =  0.009758467656673068  alpha =  -1.2531715411843218
 delta_qm =   0.102185E-01 delta_en =   0.180433E+03 tol =   0.100000E-03
 Iteration #        100
  pAp =  1.267498006722318  rzold =  0.1885741118288094  alpha =  0.14877665355581265
 delta_qm =   0.801904E-02 delta_en =   0.111119E+03 tol =   0.100000E-03
 Iteration #        101
  pAp =  -0.3204706337101284  rzold =  0.06025211606498332  alpha =  -0.18801134870748398
 delta_qm =   0.240656E-02 delta_en =   0.100078E+02 tol =   0.100000E-03
 Iteration #        102
  pAp =  -0.0653942780758042  rzold =  0.011699579718755317  alpha =  -0.17890830915196154
 delta_qm =   0.188953E-02 delta_en =   0.616954E+01 tol =   0.100000E-03
 Iteration #        103
  pAp =  -0.07788100462027973  rzold =  0.009296457987630615  alpha =  -0.11936746364478554
 delta_qm =   0.198662E-02 delta_en =   0.681985E+01 tol =   0.100000E-03
 Iteration #        104
  pAp =  -0.007046296352333078  rzold =  0.006585990734119579  alpha =  -0.9346741046363898
 delta_qm =   0.459070E-02 delta_en =   0.364168E+02 tol =   0.100000E-03
 Iteration #        105
  pAp =  0.005510694592159727  rzold =  0.05024060059255367  alpha =  9.11692705018218
 delta_qm =   0.247810E+00 delta_en =   0.106116E+06 tol =   0.100000E-03
 Iteration #        106
  pAp =  -10688.973795507183  rzold =  69.08633079353909  alpha =  -0.006463326799676283
 delta_qm =   0.373088E-02 delta_en =   0.240529E+02 tol =   0.100000E-03
 Iteration #        107
  pAp =  -1.397368223136298  rzold =  0.06973986973572886  alpha =  -0.04990801177602455
 delta_qm =   0.212876E-02 delta_en =   0.783065E+01 tol =   0.100000E-03
 Iteration #        108
  pAp =  -0.003237695674661208  rzold =  0.003699972377576311  alpha =  -1.1427795411820092
 delta_qm =   0.303618E-02 delta_en =   0.159294E+02 tol =   0.100000E-03
 Iteration #        109
  pAp =  0.0035866017476671188  rzold =  0.007684091589951936  alpha =  2.1424434968142205
 delta_qm =   0.806977E-02 delta_en =   0.112530E+03 tol =   0.100000E-03
 Iteration #        110
  pAp =  -0.447179820285517  rzold =  0.07021893608383568  alpha =  -0.1570261735849396
 delta_qm =   0.213870E-02 delta_en =   0.790392E+01 tol =   0.100000E-03
 Iteration #        111
  pAp =  -0.00605791886500158  rzold =  0.004352110054856001  alpha =  -0.7184166958721502
 delta_qm =   0.224998E-02 delta_en =   0.874788E+01 tol =   0.100000E-03
 Iteration #        112
  pAp =  -0.007748538306166754  rzold =  0.005319416038648846  alpha =  -0.6865057419171993
 delta_qm =   0.415573E-02 delta_en =   0.298427E+02 tol =   0.100000E-03
 Iteration #        113
  pAp =  0.05135048096036371  rzold =  0.03394530441308219  alpha =  0.6610513432052139
 delta_qm =   0.112174E-01 delta_en =   0.217434E+03 tol =   0.100000E-03
 Iteration #        114
  pAp =  -2.495631802521323  rzold =  0.17703239266530385  alpha =  -0.07093690362754994
 delta_qm =   0.345051E-02 delta_en =   0.205736E+02 tol =   0.100000E-03
 Iteration #        115
  pAp =  -0.06485767341621368  rzold =  0.017280844465216164  alpha =  -0.2664425588367798
 delta_qm =   0.187088E-02 delta_en =   0.604830E+01 tol =   0.100000E-03
 Iteration #        116
  pAp =  -0.02832684190138472  rzold =  0.005247387826739681  alpha =  -0.18524436451502804
 delta_qm =   0.194773E-02 delta_en =   0.655542E+01 tol =   0.100000E-03
 Iteration #        117
  pAp =  -0.022199150220497954  rzold =  0.008062341588994684  alpha =  -0.3631824420715973
 delta_qm =   0.306941E-02 delta_en =   0.162800E+02 tol =   0.100000E-03
 Iteration #        118
  pAp =  -0.012403683070519844  rzold =  0.017172717810006517  alpha =  -1.384485375220636
 delta_qm =   0.178752E-01 delta_en =   0.552137E+03 tol =   0.100000E-03
 Iteration #        119
  pAp =  4.968981832229205  rzold =  0.39944495251392015  alpha =  0.08038768625054914
 delta_qm =   0.378465E-02 delta_en =   0.247511E+02 tol =   0.100000E-03
 Iteration #        120
  pAp =  -0.6206721663638208  rzold =  0.03963270164840418  alpha =  -0.06385448517949585
 delta_qm =   0.241455E-02 delta_en =   0.100743E+02 tol =   0.100000E-03
 Iteration #        121
  pAp =  -0.04713031309427099  rzold =  0.00937122359640062  alpha =  -0.1988364384012496
 delta_qm =   0.195552E-02 delta_en =   0.660796E+01 tol =   0.100000E-03
 Iteration #        122
  pAp =  -0.022076950598082967  rzold =  0.007103903947495834  alpha =  -0.3217792201841814
 delta_qm =   0.217448E-02 delta_en =   0.817065E+01 tol =   0.100000E-03
 Iteration #        123
  pAp =  -0.0020602827089465335  rzold =  0.004762864121035187  alpha =  -2.311752702846563
 delta_qm =   0.905859E-02 delta_en =   0.141796E+03 tol =   0.100000E-03
 Iteration #        124
  pAp =  1.5655061017044507  rzold =  0.2643828081456955  alpha =  0.16888008795229076
 delta_qm =   0.210589E-01 delta_en =   0.766332E+03 tol =   0.100000E-03
 Iteration #        125
  pAp =  -8.604757214581175  rzold =  0.5078784366919331  alpha =  -0.05902298275555162
 delta_qm =   0.220347E-02 delta_en =   0.838994E+01 tol =   0.100000E-03
 Iteration #        126
  pAp =  -0.011004654478189501  rzold =  0.004829135167127348  alpha =  -0.4388266052967292
 delta_qm =   0.200001E-02 delta_en =   0.691206E+01 tol =   0.100000E-03
 Iteration #        127
  pAp =  -0.05918111973372832  rzold =  0.008652495099743224  alpha =  -0.14620363958426458
 delta_qm =   0.232013E-02 delta_en =   0.930186E+01 tol =   0.100000E-03
 Iteration #        128
  pAp =  -0.026413897446330124  rzold =  0.008398306017107653  alpha =  -0.31795027728005704
 delta_qm =   0.371506E-02 delta_en =   0.238493E+02 tol =   0.100000E-03
 Iteration #        129
  pAp =  0.020482250019090223  rzold =  0.026068127891926463  alpha =  1.2727179810631153
 delta_qm =   0.197331E-01 delta_en =   0.672878E+03 tol =   0.100000E-03
 Iteration #        130
  pAp =  -24.586484475715157  rzold =  0.7938618432171003  alpha =  -0.032288546335334053
 delta_qm =   0.248973E-02 delta_en =   0.107114E+02 tol =   0.100000E-03
 Iteration #        131
  pAp =  -0.026116083805012968  rzold =  0.008362618790958964  alpha =  -0.32020952503429184
 delta_qm =   0.171197E-02 delta_en =   0.506447E+01 tol =   0.100000E-03
 Iteration #        132
  pAp =  -0.008550824388966661  rzold =  0.004603389033583338  alpha =  -0.5383561659298258
 delta_qm =   0.219102E-02 delta_en =   0.829535E+01 tol =   0.100000E-03
 Iteration #        133
  pAp =  -0.0006680180044140747  rzold =  0.006644708494222043  alpha =  -9.946900308548095
 delta_qm =   0.432940E-01 delta_en =   0.323891E+04 tol =   0.100000E-03
 Iteration #        134
  pAp =  67.15072884208197  rzold =  2.17931738496205  alpha =  0.0324541136416723
 delta_qm =   0.238132E-02 delta_en =   0.979892E+01 tol =   0.100000E-03
 Iteration #        135
  pAp =  -0.007514610685920273  rzold =  0.004778624731636615  alpha =  -0.6359111511378853
 delta_qm =   0.215852E-02 delta_en =   0.805109E+01 tol =   0.100000E-03
 Iteration #        136
  pAp =  -0.003059879089183876  rzold =  0.003740591413736605  alpha =  -1.222463798311157
 delta_qm =   0.473487E-02 delta_en =   0.387401E+02 tol =   0.100000E-03
 Iteration #        137
  pAp =  0.054562891704975205  rzold =  0.03740972080037845  alpha =  0.6856256996541722
 delta_qm =   0.137018E-01 delta_en =   0.324413E+03 tol =   0.100000E-03
 Iteration #        138
  pAp =  -3.901864090815702  rzold =  0.25173288493532436  alpha =  -0.0645160567042453
 delta_qm =   0.300755E-02 delta_en =   0.156303E+02 tol =   0.100000E-03
 Iteration #        139
  pAp =  -0.10496832228857055  rzold =  0.015115995424939677  alpha =  -0.14400530650936755
 delta_qm =   0.203668E-02 delta_en =   0.716784E+01 tol =   0.100000E-03
 Iteration #        140
  pAp =  -0.16292484622439754  rzold =  0.016022612531692505  alpha =  -0.09834357928209701
 delta_qm =   0.165273E-02 delta_en =   0.472006E+01 tol =   0.100000E-03
 Iteration #        141
  pAp =  -0.007143393901730037  rzold =  0.0035348316120917497  alpha =  -0.4948392403834345
 delta_qm =   0.216733E-02 delta_en =   0.811700E+01 tol =   0.100000E-03
 Iteration #        142
  pAp =  -0.03831110825528369  rzold =  0.0103066046724971  alpha =  -0.2690239239183497
 delta_qm =   0.372001E-02 delta_en =   0.239129E+02 tol =   0.100000E-03
 Iteration #        143
  pAp =  -0.055103127043851084  rzold =  0.029761807435205366  alpha =  -0.5401110432720254
 delta_qm =   0.148021E-01 delta_en =   0.378609E+03 tol =   0.100000E-03
 Iteration #        144
  pAp =  7.57319415401498  rzold =  0.4329545561639897  alpha =  0.057169345900693155
 delta_qm =   0.343076E-02 delta_en =   0.203388E+02 tol =   0.100000E-03
 Iteration #        145
  pAp =  -0.05043175985633277  rzold =  0.01358379096399267  alpha =  -0.2693499295422057
 delta_qm =   0.179740E-02 delta_en =   0.558254E+01 tol =   0.100000E-03
 Iteration #        146
  pAp =  -0.03352306647099827  rzold =  0.005727295165334974  alpha =  -0.17084639826400772
 delta_qm =   0.175220E-02 delta_en =   0.530529E+01 tol =   0.100000E-03
 Iteration #        147
  pAp =  -0.029248274470703245  rzold =  0.007040235223726607  alpha =  -0.2407060023584814
 delta_qm =   0.222419E-02 delta_en =   0.854848E+01 tol =   0.100000E-03
 Iteration #        148
  pAp =  0.00031983237237154986  rzold =  0.006571026008191978  alpha =  20.545218607697425
 delta_qm =   0.914429E-01 delta_en =   0.144492E+05 tol =   0.100000E-03
 Iteration #        149
  pAp =  -473.8516645507533  rzold =  7.906942631994437  alpha =  -0.016686535520542715
 delta_qm =   0.176617E-02 delta_en =   0.539026E+01 tol =   0.100000E-03
 Iteration #        150
  pAp =  -0.015824032981210184  rzold =  0.0035098314257450266  alpha =  -0.22180384924075172
 delta_qm =   0.169716E-02 delta_en =   0.497726E+01 tol =   0.100000E-03
 Iteration #        151
  pAp =  -0.029544459921157888  rzold =  0.008594780410249416  alpha =  -0.290910053295453
 delta_qm =   0.221144E-02 delta_en =   0.845071E+01 tol =   0.100000E-03
 Iteration #        152
  pAp =  -0.039683267647472854  rzold =  0.008107663316952268  alpha =  -0.20430936758980803
 delta_qm =   0.305969E-02 delta_en =   0.161771E+02 tol =   0.100000E-03
 Iteration #        153
  pAp =  0.015645910315189616  rzold =  0.01188536019035962  alpha =  0.759646447597292
 delta_qm =   0.444906E-02 delta_en =   0.342043E+02 tol =   0.100000E-03
 Iteration #        154
  pAp =  -0.20962250193742066  rzold =  0.029766072817532546  alpha =  -0.14199846172248587
 delta_qm =   0.172860E-02 delta_en =   0.516334E+01 tol =   0.100000E-03
 Iteration #        155
  pAp =  -0.013378978525106295  rzold =  0.004796927737633674  alpha =  -0.3585421509296849
 delta_qm =   0.140606E-02 delta_en =   0.341627E+01 tol =   0.100000E-03
 Iteration #        156
  pAp =  -0.008128014638736684  rzold =  0.0036281268605144316  alpha =  -0.4463730716260548
 delta_qm =   0.194266E-02 delta_en =   0.652136E+01 tol =   0.100000E-03
 Iteration #        157
  pAp =  0.002414768832270979  rzold =  0.00456176958590779  alpha =  1.8891123344579763
 delta_qm =   0.565116E-02 delta_en =   0.551848E+02 tol =   0.100000E-03
 Iteration #        158
  pAp =  -0.7095518500002822  rzold =  0.05090369249748619  alpha =  -0.07174062402552533
 delta_qm =   0.288860E-02 delta_en =   0.144185E+02 tol =   0.100000E-03
 Iteration #        159
  pAp =  -0.2218961298194667  rzold =  0.022622652447168056  alpha =  -0.10195154131608201
 delta_qm =   0.161071E-02 delta_en =   0.448309E+01 tol =   0.100000E-03
 Iteration #        160
  pAp =  -0.00506528809271642  rzold =  0.0027738311795358858  alpha =  -0.5476156792590906
 delta_qm =   0.185513E-02 delta_en =   0.594690E+01 tol =   0.100000E-03
 Iteration #        161
  pAp =  -0.007497207934910466  rzold =  0.005930594819488118  alpha =  -0.791040460792414
 delta_qm =   0.432018E-02 delta_en =   0.322513E+02 tol =   0.100000E-03
 Iteration #        162
  pAp =  0.030565478103096615  rzold =  0.016434728250554385  alpha =  0.537689225574043
 delta_qm =   0.311753E-02 delta_en =   0.167944E+02 tol =   0.100000E-03
 Iteration #        163
  pAp =  -0.17546546923824638  rzold =  0.019329971135258552  alpha =  -0.11016396114390112
 delta_qm =   0.169617E-02 delta_en =   0.497144E+01 tol =   0.100000E-03
 Iteration #        164
  pAp =  -0.10288447143795364  rzold =  0.009851284447769162  alpha =  -0.09575093607503402
 delta_qm =   0.132993E-02 delta_en =   0.305632E+01 tol =   0.100000E-03
 Iteration #        165
  pAp =  -0.011484653842231178  rzold =  0.0030987117450286166  alpha =  -0.2698132471031983
 delta_qm =   0.139346E-02 delta_en =   0.335529E+01 tol =   0.100000E-03
 Iteration #        166
  pAp =  -0.007860120282374346  rzold =  0.003713687584983068  alpha =  -0.47247210622345026
 delta_qm =   0.231173E-02 delta_en =   0.923459E+01 tol =   0.100000E-03
 Iteration #        167
  pAp =  -0.0007770501699711247  rzold =  0.006220960130580069  alpha =  -8.005866765090909
 delta_qm =   0.512891E-01 delta_en =   0.454562E+04 tol =   0.100000E-03
 Iteration #        168
  pAp =  701.3752571522448  rzold =  6.155548359292037  alpha =  0.008776397936084986
 delta_qm =   0.232236E-02 delta_en =   0.931972E+01 tol =   0.100000E-03
 Iteration #        169
  pAp =  -0.00783096926496621  rzold =  0.004332271416424838  alpha =  -0.5532228859339714
 delta_qm =   0.147460E-02 delta_en =   0.375742E+01 tol =   0.100000E-03
 Iteration #        170
  pAp =  -0.008550715516300732  rzold =  0.0030754210554913963  alpha =  -0.3596682698223956
 delta_qm =   0.177490E-02 delta_en =   0.544369E+01 tol =   0.100000E-03
 Iteration #        171
  pAp =  -0.013902275793556487  rzold =  0.005114319674486112  alpha =  -0.3678764362347443
 delta_qm =   0.303239E-02 delta_en =   0.158896E+02 tol =   0.100000E-03
 Iteration #        172
  pAp =  0.03668258292694008  rzold =  0.024218495066596367  alpha =  0.6602178236693917
 delta_qm =   0.102548E-01 delta_en =   0.181718E+03 tol =   0.100000E-03
 Iteration #        173
  pAp =  -3.8634743984712867  rzold =  0.20565396211594714  alpha =  -0.05323031574826043
 delta_qm =   0.192601E-02 delta_en =   0.641002E+01 tol =   0.100000E-03
 Iteration #        174
  pAp =  -0.019976984034749068  rzold =  0.005092587904154522  alpha =  -0.254922759876876
 delta_qm =   0.153054E-02 delta_en =   0.404792E+01 tol =   0.100000E-03
 Iteration #        175
  pAp =  -0.07234095790784556  rzold =  0.007552363079188418  alpha =  -0.10439954484441995
 delta_qm =   0.146360E-02 delta_en =   0.370160E+01 tol =   0.100000E-03
 Iteration #        176
  pAp =  -0.002134739426864493  rzold =  0.00267206111375142  alpha =  -1.2517036412618028
 delta_qm =   0.343868E-02 delta_en =   0.204327E+02 tol =   0.100000E-03
 Iteration #        177
  pAp =  0.0007661558151950829  rzold =  0.015588289815874123  alpha =  20.346109116074445
 delta_qm =   0.268102E+00 delta_en =   0.124206E+06 tol =   0.100000E-03
 Iteration #        178
  pAp =  -167668.287427355  rzold =  227.67679160808433  alpha =  -0.0013579001437986832
 delta_qm =   0.377390E-02 delta_en =   0.246107E+02 tol =   0.100000E-03
 Iteration #        179
  pAp =  -0.06511067807392686  rzold =  0.015572663736047154  alpha =  -0.2391721941271431
 delta_qm =   0.168865E-02 delta_en =   0.492745E+01 tol =   0.100000E-03
 Iteration #        180
  pAp =  -0.01192170518516561  rzold =  0.003247210166048519  alpha =  -0.27237799590020734
 delta_qm =   0.170766E-02 delta_en =   0.503905E+01 tol =   0.100000E-03
 Iteration #        181
  pAp =  -0.007770776912131374  rzold =  0.004514346107144971  alpha =  -0.5809388376723805
 delta_qm =   0.293670E-02 delta_en =   0.149026E+02 tol =   0.100000E-03
 Iteration #        182
  pAp =  -0.0005919438044676184  rzold =  0.009824720358225741  alpha =  -16.597386920979574
 delta_qm =   0.141275E+00 delta_en =   0.344886E+05 tol =   0.100000E-03
 Iteration #        183
  pAp =  4004.7121989869784  rzold =  25.944157625672474  alpha =  0.006478407520079781
 delta_qm =   0.235687E-02 delta_en =   0.959877E+01 tol =   0.100000E-03
 Iteration #        184
  pAp =  -0.06234096061596144  rzold =  0.009386065692283034  alpha =  -0.15056017102630073
 delta_qm =   0.157955E-02 delta_en =   0.431134E+01 tol =   0.100000E-03
 Iteration #        185
  pAp =  -0.007475199038029077  rzold =  0.003920655191540877  alpha =  -0.5244884011241797
 delta_qm =   0.162671E-02 delta_en =   0.457259E+01 tol =   0.100000E-03
 Iteration #        186
  pAp =  -0.007434322569233451  rzold =  0.0028003701008672784  alpha =  -0.37668127455976436
 delta_qm =   0.237943E-02 delta_en =   0.978337E+01 tol =   0.100000E-03
 Iteration #        187
  pAp =  0.014800110062377561  rzold =  0.019027910709771112  alpha =  1.2856600815517434
 delta_qm =   0.190073E-01 delta_en =   0.624288E+03 tol =   0.100000E-03
 Iteration #        188
  pAp =  -6.611157736482792  rzold =  0.36396101480483206  alpha =  -0.05505253834685592
 delta_qm =   0.270881E-02 delta_en =   0.126794E+02 tol =   0.100000E-03
 Iteration #        189
  pAp =  -0.10218624931022507  rzold =  0.012564018001941851  alpha =  -0.1229521397130353
 delta_qm =   0.183659E-02 delta_en =   0.582866E+01 tol =   0.100000E-03
 Iteration #        190
  pAp =  -0.008934050068197186  rzold =  0.0037610721944685835  alpha =  -0.4209817681520488
 delta_qm =   0.178779E-02 delta_en =   0.552305E+01 tol =   0.100000E-03
 Iteration #        191
  pAp =  -0.0006258949349695008  rzold =  0.0021633947904310053  alpha =  -3.456482341619245
 delta_qm =   0.832060E-02 delta_en =   0.119634E+03 tol =   0.100000E-03
 Iteration #        192
  pAp =  0.3348244875370291  rzold =  0.057791094623230045  alpha =  0.17260115903810286
 delta_qm =   0.199464E-02 delta_en =   0.687501E+01 tol =   0.100000E-03
 Iteration #        193
  pAp =  -0.09566951877282749  rzold =  0.0069042825711197135  alpha =  -0.07216804954893011
 delta_qm =   0.165895E-02 delta_en =   0.475565E+01 tol =   0.100000E-03
 Iteration #        194
  pAp =  -0.00985418995416078  rzold =  0.003981262723813769  alpha =  -0.40401724975199427
 delta_qm =   0.132205E-02 delta_en =   0.302023E+01 tol =   0.100000E-03
 Iteration #        195
  pAp =  -0.0048812045140921665  rzold =  0.002021447987704153  alpha =  -0.414128926962224
 delta_qm =   0.181211E-02 delta_en =   0.567430E+01 tol =   0.100000E-03
 Iteration #        196
  pAp =  0.005429652288496979  rzold =  0.004505687617453903  alpha =  0.8298298635069972
 delta_qm =   0.232518E-02 delta_en =   0.934238E+01 tol =   0.100000E-03
 Iteration #        197
  pAp =  -0.054560795365099855  rzold =  0.006255272075112829  alpha =  -0.11464774355386417
 delta_qm =   0.186541E-02 delta_en =   0.601300E+01 tol =   0.100000E-03
 Iteration #        198
  pAp =  -0.020965256898035176  rzold =  0.006521497494046059  alpha =  -0.31106213130435056
 delta_qm =   0.134303E-02 delta_en =   0.311686E+01 tol =   0.100000E-03
 Iteration #        199
  pAp =  -0.005207850794085889  rzold =  0.0019488690807604033  alpha =  -0.3742175338382519
 delta_qm =   0.186185E-02 delta_en =   0.599011E+01 tol =   0.100000E-03
 Iteration #        200
  pAp =  -0.01720217988412562  rzold =  0.007011735276754235  alpha =  -0.4076073686001126
 delta_qm =   0.445574E-02 delta_en =   0.343071E+02 tol =   0.100000E-03

%%%% ELECTRONS %%%%%%%%%%%%%%%%%%%%%%%%%%%%%%%%%%%%%%%%%%%%%%%%%%%%%%%%%%%%%%%%%
 number of electrons        =         24
 total electronic charge    =     24.0000000
 number of spin components  =  1

%%%% COMPUTE ELECTROSTATIC POTENTIAL %%%%%%%%%%%%%%%%%%%%%%%%%%%%%%%%%%%%%%%%%%%
 Warning: bad guess with residual norm =   0.286803E+06, reset to no guess
 Iteration #          1
  pAp =  86.2936771444176  rzold =  92.91241432545482  alpha =  1.0767001407294345
 delta_qm =   0.576538E-01 delta_en =   0.574380E+04 tol =   0.100000E-03
 Iteration #          2
  pAp =  -4119.964667141839  rzold =  173.24081700859375  alpha =  -0.0420491026028087
 delta_qm =   0.730051E-02 delta_en =   0.920979E+02 tol =   0.100000E-03
 Iteration #          3
  pAp =  -11.659062977200627  rzold =  1.0925020384940298  alpha =  -0.0937041030338737
 delta_qm =   0.462392E-02 delta_en =   0.369458E+02 tol =   0.100000E-03
 Iteration #          4
  pAp =  -2.3134542309863457  rzold =  0.20358489726345919  alpha =  -0.08800039980763327
 delta_qm =   0.446450E-02 delta_en =   0.344421E+02 tol =   0.100000E-03
 Iteration #          5
  pAp =  -0.330878448023697  rzold =  0.08207036129317528  alpha =  -0.24803779691114103
 delta_qm =   0.505169E-02 delta_en =   0.440979E+02 tol =   0.100000E-03
 Iteration #          6
  pAp =  -0.10842606953371184  rzold =  0.15926576243942916  alpha =  -1.468888092359654
 delta_qm =   0.184839E-01 delta_en =   0.590380E+03 tol =   0.100000E-03
 Iteration #          7
  pAp =  19.56321077779331  rzold =  3.748239016205401  alpha =  0.19159631099308713
 delta_qm =   0.243712E-01 delta_en =   0.102636E+04 tol =   0.100000E-03
 Iteration #          8
  pAp =  -138.4949496348288  rzold =  6.554123097981348  alpha =  -0.04732391408685067
 delta_qm =   0.627837E-02 delta_en =   0.681142E+02 tol =   0.100000E-03
 Iteration #          9
  pAp =  -1.0971233645205989  rzold =  0.199407617617459  alpha =  -0.1817549639958607
 delta_qm =   0.564047E-02 delta_en =   0.549762E+02 tol =   0.100000E-03
 Iteration #         10
  pAp =  -0.23075646325068133  rzold =  0.10653232849937078  alpha =  -0.461665632236874
 delta_qm =   0.845147E-02 delta_en =   0.123426E+03 tol =   0.100000E-03
 Iteration #         11
  pAp =  0.050656390174914426  rzold =  0.2506980893130295  alpha =  4.9489923866935515
 delta_qm =   0.125976E+00 delta_en =   0.274234E+05 tol =   0.100000E-03
 Iteration #         12
  pAp =  -6102.841602067372  rzold =  81.95875368965828  alpha =  -0.013429605261570984
 delta_qm =   0.916346E-02 delta_en =   0.145098E+03 tol =   0.100000E-03
 Iteration #         13
  pAp =  -5.200906006787738  rzold =  0.487869664345759  alpha =  -0.09380474550184852
 delta_qm =   0.549644E-02 delta_en =   0.522044E+02 tol =   0.100000E-03
 Iteration #         14
  pAp =  -0.27832578289777365  rzold =  0.07309456976518612  alpha =  -0.2626223449518978
 delta_qm =   0.568937E-02 delta_en =   0.559336E+02 tol =   0.100000E-03
 Iteration #         15
  pAp =  -0.18087012028658395  rzold =  0.05363895621868797  alpha =  -0.29656062667342986
 delta_qm =   0.791942E-02 delta_en =   0.108375E+03 tol =   0.100000E-03
 Iteration #         16
  pAp =  0.05366455472361001  rzold =  0.11235625110153279  alpha =  2.093677133448776
 delta_qm =   0.447007E-01 delta_en =   0.345281E+04 tol =   0.100000E-03
 Iteration #         17
  pAp =  -115.6009534141644  rzold =  4.73036887691545  alpha =  -0.040919808506837504
 delta_qm =   0.359876E-02 delta_en =   0.223795E+02 tol =   0.100000E-03
 Iteration #         18
  pAp =  -0.1958218044716066  rzold =  0.05111780991186679  alpha =  -0.2610424822189741
 delta_qm =   0.186449E-02 delta_en =   0.600709E+01 tol =   0.100000E-03
 Iteration #         19
  pAp =  -0.0410796144185375  rzold =  0.014189667755513708  alpha =  -0.3454187181735209
 delta_qm =   0.189500E-02 delta_en =   0.620530E+01 tol =   0.100000E-03
 Iteration #         20
  pAp =  -0.01818493177644291  rzold =  0.010449619968754174  alpha =  -0.574630694094261
 delta_qm =   0.332349E-02 delta_en =   0.190867E+02 tol =   0.100000E-03
 Iteration #         21
  pAp =  -0.0029714301577807743  rzold =  0.024991589132259268  alpha =  -8.410626467803082
 delta_qm =   0.824470E-01 delta_en =   0.117461E+05 tol =   0.100000E-03
 Iteration #         22
  pAp =  1176.3590279313667  rzold =  16.3732295148582  alpha =  0.013918564933063511
 delta_qm =   0.454218E-02 delta_en =   0.356510E+02 tol =   0.100000E-03
 Iteration #         23
  pAp =  -0.3706942369442828  rzold =  0.05905493231606026  alpha =  -0.15930901112157433
 delta_qm =   0.178340E-02 delta_en =   0.549593E+01 tol =   0.100000E-03
 Iteration #         24
  pAp =  -0.024567482730768215  rzold =  0.007978456411944855  alpha =  -0.324756772982389
 delta_qm =   0.163276E-02 delta_en =   0.460669E+01 tol =   0.100000E-03
 Iteration #         25
  pAp =  -0.22547141872015952  rzold =  0.021450195423549742  alpha =  -0.09513487583174492
 delta_qm =   0.182860E-02 delta_en =   0.577807E+01 tol =   0.100000E-03
 Iteration #         26
  pAp =  -0.007983360221610208  rzold =  0.008172118118010505  alpha =  -1.0236439157398094
 delta_qm =   0.476750E-02 delta_en =   0.392759E+02 tol =   0.100000E-03
 Iteration #         27
  pAp =  0.14324520356544077  rzold =  0.04798656993943667  alpha =  0.33499599808599717
 delta_qm =   0.311849E-02 delta_en =   0.168047E+02 tol =   0.100000E-03
 Iteration #         28
  pAp =  -0.06321040180226375  rzold =  0.017145095054637318  alpha =  -0.27123850767902097
 delta_qm =   0.194938E-02 delta_en =   0.656656E+01 tol =   0.100000E-03
 Iteration #         29
  pAp =  -0.11880622996439699  rzold =  0.012275353661590367  alpha =  -0.10332247446340952
 delta_qm =   0.188000E-02 delta_en =   0.610745E+01 tol =   0.100000E-03
 Iteration #         30
  pAp =  -0.0324206267794761  rzold =  0.008797143342151186  alpha =  -0.27134402434564353
 delta_qm =   0.237963E-02 delta_en =   0.978501E+01 tol =   0.100000E-03
 Iteration #         31
  pAp =  -0.016510474831684958  rzold =  0.015042838730433302  alpha =  -0.9111087890437202
 delta_qm =   0.787978E-02 delta_en =   0.107293E+03 tol =   0.100000E-03
 Iteration #         32
  pAp =  0.7751378376992495  rzold =  0.12731969065711285  alpha =  0.16425425835877258
 delta_qm =   0.202795E-02 delta_en =   0.710657E+01 tol =   0.100000E-03
 Iteration #         33
  pAp =  -0.020478709966772733  rzold =  0.008631682327060073  alpha =  -0.4214954135814812
 delta_qm =   0.128910E-02 delta_en =   0.287155E+01 tol =   0.100000E-03
 Iteration #         34
  pAp =  -0.0739618288632126  rzold =  0.0077837754546347514  alpha =  -0.10524044056604274
 delta_qm =   0.130158E-02 delta_en =   0.292744E+01 tol =   0.100000E-03
 Iteration #         35
  pAp =  -0.014784914150805488  rzold =  0.0057166816139195865  alpha =  -0.3866563955400539
 delta_qm =   0.192286E-02 delta_en =   0.638910E+01 tol =   0.100000E-03
 Iteration #         36
  pAp =  -0.0047843536925189995  rzold =  0.006585509727778122  alpha =  -1.376467993592422
 delta_qm =   0.762273E-02 delta_en =   0.100407E+03 tol =   0.100000E-03
 Iteration #         37
  pAp =  0.42043569881513676  rzold =  0.09935841347530369  alpha =  0.2363224953430775
 delta_qm =   0.934072E-02 delta_en =   0.150766E+03 tol =   0.100000E-03
 Iteration #         38
  pAp =  -4.848664391372024  rzold =  0.22859434019295669  alpha =  -0.047145836820492226
 delta_qm =   0.208076E-02 delta_en =   0.748151E+01 tol =   0.100000E-03
 Iteration #         39
  pAp =  -0.03642059327401066  rzold =  0.008599232740163375  alpha =  -0.2361090791538449
 delta_qm =   0.130975E-02 delta_en =   0.296428E+01 tol =   0.100000E-03
 Iteration #         40
  pAp =  -0.005725626090673928  rzold =  0.003255927173596882  alpha =  -0.5686587147037482
 delta_qm =   0.161677E-02 delta_en =   0.451688E+01 tol =   0.100000E-03
 Iteration #         41
  pAp =  -0.0014719429179490334  rzold =  0.004813189108702012  alpha =  -3.2699563617647502
 delta_qm =   0.111332E-01 delta_en =   0.214182E+03 tol =   0.100000E-03
 Iteration #         42
  pAp =  2.138049112194309  rzold =  0.20252488300745622  alpha =  0.09472414915651875
 delta_qm =   0.179832E-02 delta_en =   0.558830E+01 tol =   0.100000E-03
 Iteration #         43
  pAp =  -0.013499184015585934  rzold =  0.005044684506163017  alpha =  -0.3737029216238928
 delta_qm =   0.137775E-02 delta_en =   0.328007E+01 tol =   0.100000E-03
 Iteration #         44
  pAp =  -0.008263748139998023  rzold =  0.0028660322082822475  alpha =  -0.3468198884728998
 delta_qm =   0.169170E-02 delta_en =   0.494525E+01 tol =   0.100000E-03
 Iteration #         45
  pAp =  -0.07747672730004986  rzold =  0.012029860227659131  alpha =  -0.15527062960558724
 delta_qm =   0.257662E-02 delta_en =   0.114721E+02 tol =   0.100000E-03
 Iteration #         46
  pAp =  0.011569216204967783  rzold =  0.010685969935491679  alpha =  0.92365547900325
 delta_qm =   0.490366E-02 delta_en =   0.415513E+02 tol =   0.100000E-03
 Iteration #         47
  pAp =  -1.2032250488147342  rzold =  0.07487209767165762  alpha =  -0.06222617933811483
 delta_qm =   0.167097E-02 delta_en =   0.482482E+01 tol =   0.100000E-03
 Iteration #         48
  pAp =  -0.025149280456998678  rzold =  0.006436255578788398  alpha =  -0.2559220566883965
 delta_qm =   0.102245E-02 delta_en =   0.180645E+01 tol =   0.100000E-03
 Iteration #         49
  pAp =  -0.0072796067975124425  rzold =  0.0026387751245423277  alpha =  -0.36248868901051623
 delta_qm =   0.106305E-02 delta_en =   0.195278E+01 tol =   0.100000E-03
 Iteration #         50
  pAp =  -0.003521169611934006  rzold =  0.002533571971087687  alpha =  -0.7195256833129717
 delta_qm =   0.205435E-02 delta_en =   0.729276E+01 tol =   0.100000E-03
 Iteration #         51
  pAp =  0.00006526137746708776  rzold =  0.007211866580410405  alpha =  110.50742200541892
 delta_qm =   0.689406E+00 delta_en =   0.821284E+06 tol =   0.100000E-03
 Iteration #         52
  pAp =  -2643935.710274878  rzold =  1447.111541476139  alpha =  -0.0005473323484577806
 delta_qm =   0.276641E-02 delta_en =   0.132244E+02 tol =   0.100000E-03
 Iteration #         53
  pAp =  -0.16342825246616538  rzold =  0.015175336814766795  alpha =  -0.09285626313546093
 delta_qm =   0.190705E-02 delta_en =   0.628446E+01 tol =   0.100000E-03
 Iteration #         54
  pAp =  -0.03661949335108994  rzold =  0.007895549989744495  alpha =  -0.2156105742383105
 delta_qm =   0.128606E-02 delta_en =   0.285803E+01 tol =   0.100000E-03
 Iteration #         55
  pAp =  -0.005915477014083707  rzold =  0.0030138126105357945  alpha =  -0.5094792192346346
 delta_qm =   0.164995E-02 delta_en =   0.470421E+01 tol =   0.100000E-03
 Iteration #         56
  pAp =  0.0003682775379406134  rzold =  0.005471975033682859  alpha =  14.85829155989753
 delta_qm =   0.500538E-01 delta_en =   0.432931E+04 tol =   0.100000E-03
 Iteration #         57
  pAp =  -263.77474550323245  rzold =  4.531922140396082  alpha =  -0.01718103123083307
 delta_qm =   0.159367E-02 delta_en =   0.438872E+01 tol =   0.100000E-03
 Iteration #         58
  pAp =  -0.0244327808500902  rzold =  0.005130576473868388  alpha =  -0.20998741425904643
 delta_qm =   0.132436E-02 delta_en =   0.303079E+01 tol =   0.100000E-03
 Iteration #         59
  pAp =  -0.019632842948168503  rzold =  0.005042383377797769  alpha =  -0.25683409127806217
 delta_qm =   0.146620E-02 delta_en =   0.371475E+01 tol =   0.100000E-03
 Iteration #         60
  pAp =  -0.04505628632549877  rzold =  0.005927426469786812  alpha =  -0.13155603697485152
 delta_qm =   0.172090E-02 delta_en =   0.511745E+01 tol =   0.100000E-03
 Iteration #         61
  pAp =  -0.0013506699984140967  rzold =  0.005691105955913021  alpha =  -4.213542880640936
 delta_qm =   0.184170E-01 delta_en =   0.586115E+03 tol =   0.100000E-03
 Iteration #         62
  pAp =  5.534258548074099  rzold =  0.45193260849107175  alpha =  0.08166091348376606
 delta_qm =   0.887268E-02 delta_en =   0.136036E+03 tol =   0.100000E-03
 Iteration #         63
  pAp =  -1.9919061299262033  rzold =  0.13989187370054873  alpha =  -0.07023015372001064
 delta_qm =   0.234054E-02 delta_en =   0.946621E+01 tol =   0.100000E-03
 Iteration #         64
  pAp =  -0.08187763499372204  rzold =  0.011393691417868104  alpha =  -0.13915511138959635
 delta_qm =   0.164691E-02 delta_en =   0.468687E+01 tol =   0.100000E-03
 Iteration #         65
  pAp =  -0.010535812206643591  rzold =  0.004710611933452398  alpha =  -0.4471047738001648
 delta_qm =   0.159816E-02 delta_en =   0.441353E+01 tol =   0.100000E-03
 Iteration #         66
  pAp =  -0.001690942705437037  rzold =  0.0036944197045114535  alpha =  -2.184828434832511
 delta_qm =   0.573484E-02 delta_en =   0.568311E+02 tol =   0.100000E-03
 Iteration #         67
  pAp =  0.07606783365178905  rzold =  0.06535964110278379  alpha =  0.8592283750576691
 delta_qm =   0.292495E-01 delta_en =   0.147836E+04 tol =   0.100000E-03
 Iteration #         68
  pAp =  -247.65774252638047  rzold =  3.277949844647922  alpha =  -0.013235806041067968
 delta_qm =   0.280103E-02 delta_en =   0.135575E+02 tol =   0.100000E-03
 Iteration #         69
  pAp =  -0.03321472756321939  rzold =  0.011535219437745678  alpha =  -0.3472923092862969
 delta_qm =   0.163497E-02 delta_en =   0.461914E+01 tol =   0.100000E-03
 Iteration #         70
  pAp =  -0.0035526558102428056  rzold =  0.0035296410901087608  alpha =  -0.9935218266662111
 delta_qm =   0.262578E-02 delta_en =   0.119140E+02 tol =   0.100000E-03
 Iteration #         71
  pAp =  -0.01381620110774245  rzold =  0.014699441347417084  alpha =  -1.0639278650322825
 delta_qm =   0.108392E-01 delta_en =   0.203019E+03 tol =   0.100000E-03
 Iteration #         72
  pAp =  1.6408041111946774  rzold =  0.20168717731189778  alpha =  0.122919717189792
 delta_qm =   0.379304E-02 delta_en =   0.248610E+02 tol =   0.100000E-03
 Iteration #         73
  pAp =  -0.8654151206770857  rzold =  0.04812141063349882  alpha =  -0.05560500329119448
 delta_qm =   0.243018E-02 delta_en =   0.102052E+02 tol =   0.100000E-03
 Iteration #         74
  pAp =  -0.020596671340975835  rzold =  0.008438976582823844  alpha =  -0.4097252630348579
 delta_qm =   0.189640E-02 delta_en =   0.621443E+01 tol =   0.100000E-03
 Iteration #         75
  pAp =  -0.0032536918310788593  rzold =  0.004576255898655707  alpha =  -1.406481048679497
 delta_qm =   0.396430E-02 delta_en =   0.271566E+02 tol =   0.100000E-03
 Iteration #         76
  pAp =  0.02019785495615249  rzold =  0.02400214760417815  alpha =  1.1883513202904168
 delta_qm =   0.109490E-01 delta_en =   0.207155E+03 tol =   0.100000E-03
 Iteration #         77
  pAp =  -1.6148216373827136  rzold =  0.17808954706202684  alpha =  -0.11028434530433501
 delta_qm =   0.220652E-02 delta_en =   0.841314E+01 tol =   0.100000E-03
 Iteration #         78
  pAp =  -0.015476366933174399  rzold =  0.005782328986688087  alpha =  -0.37362315145768243
 delta_qm =   0.225939E-02 delta_en =   0.882117E+01 tol =   0.100000E-03
 Iteration #         79
  pAp =  -0.03085040995243064  rzold =  0.013732632363177464  alpha =  -0.44513613868834495
 delta_qm =   0.386291E-02 delta_en =   0.257853E+02 tol =   0.100000E-03
 Iteration #         80
  pAp =  -0.013940168705655438  rzold =  0.021614325500665568  alpha =  -1.5505067375473565
 delta_qm =   0.200894E-01 delta_en =   0.697393E+03 tol =   0.100000E-03
 Iteration #         81
  pAp =  18.939436429399404  rzold =  0.9431870845890895  alpha =  0.049800166341010775
 delta_qm =   0.392178E-02 delta_en =   0.265772E+02 tol =   0.100000E-03
 Iteration #         82
  pAp =  -0.03683449665872132  rzold =  0.016369616913229006  alpha =  -0.44440995257507243
 delta_qm =   0.237941E-02 delta_en =   0.978323E+01 tol =   0.100000E-03
 Iteration #         83
  pAp =  -0.025371027410829385  rzold =  0.00749794739362627  alpha =  -0.29553187863514907
 delta_qm =   0.269815E-02 delta_en =   0.125799E+02 tol =   0.100000E-03
 Iteration #         84
  pAp =  -0.05960761207808457  rzold =  0.02439770709125931  alpha =  -0.40930522530073654
 delta_qm =   0.590380E-02 delta_en =   0.602292E+02 tol =   0.100000E-03
 Iteration #         85
  pAp =  -0.07270035362047089  rzold =  0.09992785638591424  alpha =  -1.3745167858134963
 delta_qm =   0.594311E-01 delta_en =   0.610340E+04 tol =   0.100000E-03
 Iteration #         86
  pAp =  304.57258659973377  rzold =  7.204243286050957  alpha =  0.023653616914376806
 delta_qm =   0.831086E-02 delta_en =   0.119354E+03 tol =   0.100000E-03
 Iteration #         87
  pAp =  -2.709642977649682  rzold =  0.19112267162002627  alpha =  -0.07053426344226509
 delta_qm =   0.380235E-02 delta_en =   0.249832E+02 tol =   0.100000E-03
 Iteration #         88
  pAp =  -0.25980601473456294  rzold =  0.03555441429971003  alpha =  -0.13684985059347085
 delta_qm =   0.284948E-02 delta_en =   0.140306E+02 tol =   0.100000E-03
 Iteration #         89
  pAp =  -0.08709393612237464  rzold =  0.01411811106406298  alpha =  -0.16210211287529586
 delta_qm =   0.293605E-02 delta_en =   0.148961E+02 tol =   0.100000E-03
 Iteration #         90
  pAp =  -0.05558275820302464  rzold =  0.015518823722401376  alpha =  -0.27920211634184233
 delta_qm =   0.393289E-02 delta_en =   0.267280E+02 tol =   0.100000E-03
 Iteration #         91
  pAp =  -0.001695168532999371  rzold =  0.01636410414379503  alpha =  -9.653378897283424
 delta_qm =   0.872805E-01 delta_en =   0.131637E+05 tol =   0.100000E-03
 Iteration #         92
  pAp =  336.53843635507195  rzold =  7.488331842063082  alpha =  0.02225104485290459
 delta_qm =   0.295621E-02 delta_en =   0.151013E+02 tol =   0.100000E-03
 Iteration #         93
  pAp =  -0.09626381446335462  rzold =  0.012980560242844566  alpha =  -0.13484360987779018
 delta_qm =   0.250281E-02 delta_en =   0.108243E+02 tol =   0.100000E-03
 Iteration #         94
  pAp =  -0.07434176408661712  rzold =  0.018527989920802523  alpha =  -0.2492272028844403
 delta_qm =   0.225638E-02 delta_en =   0.879768E+01 tol =   0.100000E-03
 Iteration #         95
  pAp =  -0.006460402777434308  rzold =  0.007078960698433902  alpha =  -1.0957460304425863
 delta_qm =   0.506709E-02 delta_en =   0.443671E+02 tol =   0.100000E-03
 Iteration #         96
  pAp =  0.08563896711695586  rzold =  0.05140568343724912  alpha =  0.6002604324623059
 delta_qm =   0.104120E-01 delta_en =   0.187334E+03 tol =   0.100000E-03
 Iteration #         97
  pAp =  -0.8279506758394252  rzold =  0.12636331066491682  alpha =  -0.15262178575650326
 delta_qm =   0.268218E-02 delta_en =   0.124314E+02 tol =   0.100000E-03
 Iteration #         98
  pAp =  -0.01335014742019657  rzold =  0.0067398296077411145  alpha =  -0.5048505754734112
 delta_qm =   0.293973E-02 delta_en =   0.149334E+02 tol =   0.100000E-03
 Iteration #         99
  pAp =  -0.032575533603740256  rzold =  0.010853285325350456  alpha =  -0.33317290999353893
 delta_qm =   0.435757E-02 delta_en =   0.328119E+02 tol =   0.100000E-03
 Iteration #        100
  pAp =  0.010570989598535769  rzold =  0.02438815455079848  alpha =  2.3070833930417054
 delta_qm =   0.292684E-01 delta_en =   0.148027E+04 tol =   0.100000E-03
 Iteration #        101
  pAp =  -11.847885798988095  rzold =  0.7599639078452612  alpha =  -0.06414341940316207
 delta_qm =   0.234879E-02 delta_en =   0.953306E+01 tol =   0.100000E-03
 Iteration #        102
  pAp =  -0.005832084872355789  rzold =  0.005675153194209637  alpha =  -0.9730916676315855
 delta_qm =   0.228772E-02 delta_en =   0.904376E+01 tol =   0.100000E-03
 Iteration #        103
  pAp =  -0.0019721599246863247  rzold =  0.005628346903378632  alpha =  -2.853899845000567
 delta_qm =   0.106839E-01 delta_en =   0.197245E+03 tol =   0.100000E-03
 Iteration #        104
  pAp =  1.4628416801983406  rzold =  0.19582382713562757  alpha =  0.1338653593115262
 delta_qm =   0.494021E-02 delta_en =   0.421731E+02 tol =   0.100000E-03
 Iteration #        105
  pAp =  -0.5462456939499833  rzold =  0.04119302177647929  alpha =  -0.07541116064202989
 delta_qm =   0.353598E-02 delta_en =   0.216054E+02 tol =   0.100000E-03
 Iteration #        106
  pAp =  -0.1193713097282776  rzold =  0.023288299097465263  alpha =  -0.19509125895054624
 delta_qm =   0.233784E-02 delta_en =   0.944437E+01 tol =   0.100000E-03
 Iteration #        107
  pAp =  -0.006657711982813536  rzold =  0.0047362298044337  alpha =  -0.7113900115625277
 delta_qm =   0.339499E-02 delta_en =   0.199169E+02 tol =   0.100000E-03
 Iteration #        108
  pAp =  -0.09177532804085695  rzold =  0.02261936029586659  alpha =  -0.24646449954171565
 delta_qm =   0.602044E-02 delta_en =   0.626326E+02 tol =   0.100000E-03
 Iteration #        109
  pAp =  0.06964101361635497  rzold =  0.07039264257512962  alpha =  1.0107929066471562
 delta_qm =   0.352365E-01 delta_en =   0.214550E+04 tol =   0.100000E-03
 Iteration #        110
  pAp =  -117.3800922376337  rzold =  2.570024840421258  alpha =  -0.021894895390082783
 delta_qm =   0.353189E-02 delta_en =   0.215554E+02 tol =   0.100000E-03
 Iteration #        111
  pAp =  -0.15090566697141616  rzold =  0.018906918692137814  alpha =  -0.12528965327537417
 delta_qm =   0.272378E-02 delta_en =   0.128200E+02 tol =   0.100000E-03
 Iteration #        112
  pAp =  -0.06281764345302912  rzold =  0.014157723681347305  alpha =  -0.22537814064823228
 delta_qm =   0.233837E-02 delta_en =   0.944869E+01 tol =   0.100000E-03
 Iteration #        113
  pAp =  -0.02037717576988648  rzold =  0.006964702961729314  alpha =  -0.3417894138216051
 delta_qm =   0.301524E-02 delta_en =   0.157104E+02 tol =   0.100000E-03
 Iteration #        114
  pAp =  -0.0444219032790761  rzold =  0.01742947986414083  alpha =  -0.3923622937685018
 delta_qm =   0.621480E-02 delta_en =   0.667418E+02 tol =   0.100000E-03
 Iteration #        115
  pAp =  0.2841907865038425  rzold =  0.10088823189122204  alpha =  0.3550017688200386
 delta_qm =   0.140654E-01 delta_en =   0.341858E+03 tol =   0.100000E-03
 Iteration #        116
  pAp =  -4.306239671456831  rzold =  0.2836792008250672  alpha =  -0.06587631494488938
 delta_qm =   0.440591E-02 delta_en =   0.335441E+02 tol =   0.100000E-03
 Iteration #        117
  pAp =  -0.173498438879226  rzold =  0.03476084141722849  alpha =  -0.2003524737270164
 delta_qm =   0.206035E-02 delta_en =   0.733541E+01 tol =   0.100000E-03
 Iteration #        118
  pAp =  -0.002159560075209266  rzold =  0.003640746753526567  alpha =  -1.685874264541481
 delta_qm =   0.425513E-02 delta_en =   0.312874E+02 tol =   0.100000E-03
 Iteration #        119
  pAp =  0.0026719382938462438  rzold =  0.019273740040190057  alpha =  7.213392646297079
 delta_qm =   0.822112E-01 delta_en =   0.116790E+05 tol =   0.100000E-03
 Iteration #        120
  pAp =  -1818.3921832348722  rzold =  15.261781993993049  alpha =  -0.008393009019013015
 delta_qm =   0.343972E-02 delta_en =   0.204452E+02 tol =   0.100000E-03
 Iteration #        121
  pAp =  -0.05187968379755739  rzold =  0.014898383015446886  alpha =  -0.2871718161117307
 delta_qm =   0.200984E-02 delta_en =   0.698019E+01 tol =   0.100000E-03
 Iteration #        122
  pAp =  -0.018502294981417592  rzold =  0.005813100660921722  alpha =  -0.3141826820272832
 delta_qm =   0.217464E-02 delta_en =   0.817178E+01 tol =   0.100000E-03
 Iteration #        123
  pAp =  -0.002753968969993094  rzold =  0.005412530103294794  alpha =  -1.9653562412173318
 delta_qm =   0.818703E-02 delta_en =   0.115823E+03 tol =   0.100000E-03
 Iteration #        124
  pAp =  0.25309515108516106  rzold =  0.06372792656953433  alpha =  0.25179434017718993
 delta_qm =   0.328102E-02 delta_en =   0.186021E+02 tol =   0.100000E-03
 Iteration #        125
  pAp =  -0.08027336520903897  rzold =  0.014726551294297141  alpha =  -0.18345501345244336
 delta_qm =   0.207215E-02 delta_en =   0.741967E+01 tol =   0.100000E-03
 Iteration #        126
  pAp =  -0.013453020197005384  rzold =  0.005535578504436251  alpha =  -0.41147477840466334
 delta_qm =   0.210195E-02 delta_en =   0.763464E+01 tol =   0.100000E-03
 Iteration #        127
  pAp =  -0.046528602786894635  rzold =  0.007419135485547368  alpha =  -0.1594532189055344
 delta_qm =   0.249651E-02 delta_en =   0.107699E+02 tol =   0.100000E-03
 Iteration #        128
[...]
 delta_qm =   0.299018E-02 delta_en =   0.154503E+02 tol =   0.100000E-03
 Iteration #         97
  pAp =  -0.37259996622411545  rzold =  0.026088191979658438  alpha =  -0.07001662464984398
 delta_qm =   0.226635E-02 delta_en =   0.887562E+01 tol =   0.100000E-03
 Iteration #         98
  pAp =  -0.009467984169878561  rzold =  0.005272310855201739  alpha =  -0.5568567459137781
 delta_qm =   0.267104E-02 delta_en =   0.123283E+02 tol =   0.100000E-03
 Iteration #         99
  pAp =  -0.007619353344234445  rzold =  0.007220344048005047  alpha =  -0.9476321312055532
 delta_qm =   0.650514E-02 delta_en =   0.731236E+02 tol =   0.100000E-03
 Iteration #        100
  pAp =  0.09386210748625703  rzold =  0.056467526466299066  alpha =  0.6016008800416808
 delta_qm =   0.171914E-01 delta_en =   0.510702E+03 tol =   0.100000E-03
 Iteration #        101
  pAp =  -5.1841204058453965  rzold =  0.35164572876714645  alpha =  -0.06783131972989005
 delta_qm =   0.193241E-02 delta_en =   0.645274E+01 tol =   0.100000E-03
 Iteration #        102
  pAp =  -0.004160613563472829  rzold =  0.003904508676355057  alpha =  -0.9384454039745035
 delta_qm =   0.194096E-02 delta_en =   0.650993E+01 tol =   0.100000E-03
 Iteration #        103
  pAp =  -0.0037928461010251356  rzold =  0.004672579531641065  alpha =  -1.23194545921021
 delta_qm =   0.519664E-02 delta_en =   0.466648E+02 tol =   0.100000E-03
 Iteration #        104
  pAp =  0.1578712716161161  rzold =  0.045489392319980865  alpha =  0.2881423064140134
 delta_qm =   0.409281E-02 delta_en =   0.289459E+02 tol =   0.100000E-03
 Iteration #        105
  pAp =  -0.04885888913361351  rzold =  0.01643101256548687  alpha =  -0.33629525469875665
 delta_qm =   0.191171E-02 delta_en =   0.631524E+01 tol =   0.100000E-03
 Iteration #        106
  pAp =  -0.008960377171325692  rzold =  0.0032394445744767723  alpha =  -0.3615299347937488
 delta_qm =   0.224938E-02 delta_en =   0.874321E+01 tol =   0.100000E-03
 Iteration #        107
  pAp =  -0.029305464365302816  rzold =  0.010887910269624467  alpha =  -0.3715317434968058
 delta_qm =   0.440944E-02 delta_en =   0.335978E+02 tol =   0.100000E-03
 Iteration #        108
  pAp =  -0.05440805166934274  rzold =  0.04140101424861992  alpha =  -0.7609354310319499
 delta_qm =   0.252717E-01 delta_en =   0.110360E+04 tol =   0.100000E-03
 Iteration #        109
  pAp =  18.729257370560692  rzold =  0.8656186913197882  alpha =  0.04621745935748623
 delta_qm =   0.259087E-02 delta_en =   0.115994E+02 tol =   0.100000E-03
 Iteration #        110
  pAp =  -0.01831438839379149  rzold =  0.007103652265978448  alpha =  -0.38787275410117217
 delta_qm =   0.185404E-02 delta_en =   0.593997E+01 tol =   0.100000E-03
 Iteration #        111
  pAp =  -0.013240881792905113  rzold =  0.0042916484577382695  alpha =  -0.324121046080018
 delta_qm =   0.218376E-02 delta_en =   0.824050E+01 tol =   0.100000E-03
 Iteration #        112
  pAp =  -0.006232614478782995  rzold =  0.007888548694050616  alpha =  -1.2656885358311085
 delta_qm =   0.787576E-02 delta_en =   0.107184E+03 tol =   0.100000E-03
 Iteration #        113
  pAp =  -0.13802355389925555  rzold =  0.1228766621918701  alpha =  -0.8902586458653189
 delta_qm =   0.796266E-01 delta_en =   0.109562E+05 tol =   0.100000E-03
 Iteration #        114
  pAp =  767.4159459593739  rzold =  9.748626566332312  alpha =  0.012703184782204661
 delta_qm =   0.274850E-02 delta_en =   0.130538E+02 tol =   0.100000E-03
 Iteration #        115
  pAp =  -0.06616241310083289  rzold =  0.012495232046196588  alpha =  -0.18885695760754065
 delta_qm =   0.183442E-02 delta_en =   0.581491E+01 tol =   0.100000E-03
 Iteration #        116
  pAp =  -0.013678886963501492  rzold =  0.004649721284820226  alpha =  -0.33991956342842683
 delta_qm =   0.200701E-02 delta_en =   0.696055E+01 tol =   0.100000E-03
 Iteration #        117
  pAp =  -0.12124467312813919  rzold =  0.015364067331869896  alpha =  -0.12671952454053104
 delta_qm =   0.252871E-02 delta_en =   0.110495E+02 tol =   0.100000E-03
 Iteration #        118
  pAp =  0.0034152717863128856  rzold =  0.006092852324299406  alpha =  1.7840021835794293
 delta_qm =   0.590230E-02 delta_en =   0.601986E+02 tol =   0.100000E-03
 Iteration #        119
  pAp =  -0.20853685817795786  rzold =  0.03526907309396723  alpha =  -0.16912632808474495
 delta_qm =   0.247504E-02 delta_en =   0.105854E+02 tol =   0.100000E-03
 Iteration #        120
  pAp =  -0.17139092910155201  rzold =  0.01787730853664261  alpha =  -0.1043072035979804
 delta_qm =   0.174624E-02 delta_en =   0.526928E+01 tol =   0.100000E-03
 Iteration #        121
  pAp =  -0.025569271287094  rzold =  0.005132405173472397  alpha =  -0.20072551602450087
 delta_qm =   0.174827E-02 delta_en =   0.528157E+01 tol =   0.100000E-03
 Iteration #        122
  pAp =  -0.0022763286119072347  rzold =  0.0036637862767374568  alpha =  -1.609515540758297
 delta_qm =   0.517371E-02 delta_en =   0.462538E+02 tol =   0.100000E-03
 Iteration #        123
  pAp =  0.06679148995645177  rzold =  0.026976877967763917  alpha =  0.40389693335712246
 delta_qm =   0.358583E-02 delta_en =   0.222190E+02 tol =   0.100000E-03
 Iteration #        124
  pAp =  -0.09162649851501252  rzold =  0.016917705151680836  alpha =  -0.18463769134328492
 delta_qm =   0.190923E-02 delta_en =   0.629883E+01 tol =   0.100000E-03
 Iteration #        125
  pAp =  -0.019498249263004294  rzold =  0.004991987052549001  alpha =  -0.25602232206666514
 delta_qm =   0.172345E-02 delta_en =   0.513267E+01 tol =   0.100000E-03
 Iteration #        126
  pAp =  -0.019053610416239666  rzold =  0.005500112610540458  alpha =  -0.2886651133505193
 delta_qm =   0.225501E-02 delta_en =   0.878697E+01 tol =   0.100000E-03
 Iteration #        127
  pAp =  -0.0005435826080594239  rzold =  0.00685305566074928  alpha =  -12.607201847782648
 delta_qm =   0.629706E-01 delta_en =   0.685203E+04 tol =   0.100000E-03
 Iteration #        128
  pAp =  264.0740576644905  rzold =  4.900966401198852  alpha =  0.018559060456539028
 delta_qm =   0.247270E-02 delta_en =   0.105654E+02 tol =   0.100000E-03
 Iteration #        129
  pAp =  -0.05160828706980133  rzold =  0.01062531972722957  alpha =  -0.2058839835714484
 delta_qm =   0.156709E-02 delta_en =   0.424358E+01 tol =   0.100000E-03
 Iteration #        130
  pAp =  -0.006627134055018673  rzold =  0.0030689727318307367  alpha =  -0.46309199517499267
 delta_qm =   0.189173E-02 delta_en =   0.618390E+01 tol =   0.100000E-03
 Iteration #        131
  pAp =  -0.07607582794034391  rzold =  0.015764895666636154  alpha =  -0.20722608078611318
 delta_qm =   0.318767E-02 delta_en =   0.175587E+02 tol =   0.100000E-03
 Iteration #        132
  pAp =  -0.020096852341762006  rzold =  0.013936397922273107  alpha =  -0.6934617265069294
 delta_qm =   0.981776E-02 delta_en =   0.166559E+03 tol =   0.100000E-03
 Iteration #        133
  pAp =  2.837855214193056  rzold =  0.22714276284911208  alpha =  0.08004029300476491
 delta_qm =   0.355055E-02 delta_en =   0.217839E+02 tol =   0.100000E-03
 Iteration #        134
  pAp =  -0.6397425195031893  rzold =  0.03544040528743794  alpha =  -0.05539792058054891
 delta_qm =   0.236063E-02 delta_en =   0.962941E+01 tol =   0.100000E-03
 Iteration #        135
  pAp =  -0.021558724913450004  rzold =  0.006473566850119807  alpha =  -0.3002759614081394
 delta_qm =   0.194933E-02 delta_en =   0.656621E+01 tol =   0.100000E-03
 Iteration #        136
  pAp =  -0.00441406086468688  rzold =  0.0036878133183486156  alpha =  -0.8354695214675563
 delta_qm =   0.317324E-02 delta_en =   0.174000E+02 tol =   0.100000E-03
 Iteration #        137
  pAp =  0.0054357192520701  rzold =  0.010832635192978382  alpha =  1.992861421025922
 delta_qm =   0.124041E-01 delta_en =   0.265873E+03 tol =   0.100000E-03
 Iteration #        138
  pAp =  -1.764430002976098  rzold =  0.16422299696743048  alpha =  -0.09307424873213015
 delta_qm =   0.268208E-02 delta_en =   0.124304E+02 tol =   0.100000E-03
 Iteration #        139
  pAp =  -0.4674221907746693  rzold =  0.029455419385351417  alpha =  -0.06301673298080754
 delta_qm =   0.174044E-02 delta_en =   0.523434E+01 tol =   0.100000E-03
 Iteration #        140
  pAp =  -0.00623599605192869  rzold =  0.0036221059369117414  alpha =  -0.5808383948209018
 delta_qm =   0.186263E-02 delta_en =   0.599512E+01 tol =   0.100000E-03
 Iteration #        141
  pAp =  -0.03127133006232474  rzold =  0.007517091935969185  alpha =  -0.24038286574275494
 delta_qm =   0.247295E-02 delta_en =   0.105675E+02 tol =   0.100000E-03
 Iteration #        142
  pAp =  0.003367181612811449  rzold =  0.007073211455996895  alpha =  2.10063259703152
 delta_qm =   0.914387E-02 delta_en =   0.144479E+03 tol =   0.100000E-03
 Iteration #        143
  pAp =  -0.8422763014907769  rzold =  0.0945223652717227  alpha =  -0.11222251546722134
 delta_qm =   0.205280E-02 delta_en =   0.728180E+01 tol =   0.100000E-03
 Iteration #        144
  pAp =  -0.014855826857640775  rzold =  0.005479988814102551  alpha =  -0.36887807502172365
 delta_qm =   0.166636E-02 delta_en =   0.479826E+01 tol =   0.100000E-03
 Iteration #        145
  pAp =  -0.03379808991085434  rzold =  0.00521118313354153  alpha =  -0.15418572905411276
 delta_qm =   0.183451E-02 delta_en =   0.581548E+01 tol =   0.100000E-03
 Iteration #        146
  pAp =  -0.010793620360199525  rzold =  0.006415243470141859  alpha =  -0.5943551149711986
 delta_qm =   0.396952E-02 delta_en =   0.272282E+02 tol =   0.100000E-03
 Iteration #        147
  pAp =  0.034225103512037544  rzold =  0.0178735902309406  alpha =  0.5222362651044768
 delta_qm =   0.380576E-02 delta_en =   0.250281E+02 tol =   0.100000E-03
 Iteration #        148
  pAp =  -0.3402799836241639  rzold =  0.030035154242186224  alpha =  -0.08826600354888865
 delta_qm =   0.201412E-02 delta_en =   0.700991E+01 tol =   0.100000E-03
 Iteration #        149
  pAp =  -0.008076684029142139  rzold =  0.004784307417405828  alpha =  -0.5923603548366111
 delta_qm =   0.156148E-02 delta_en =   0.421323E+01 tol =   0.100000E-03
 Iteration #        150
  pAp =  -0.0011388067162726259  rzold =  0.002315723851799932  alpha =  -2.0334652217185876
 delta_qm =   0.469165E-02 delta_en =   0.380359E+02 tol =   0.100000E-03
 Iteration #        151
  pAp =  -0.06080464986711669  rzold =  0.04417583700016539  alpha =  -0.7265207035433616
 delta_qm =   0.296381E-01 delta_en =   0.151790E+04 tol =   0.100000E-03
 Iteration #        152
  pAp =  87.94654513465932  rzold =  1.9161705589725118  alpha =  0.021787900321025323
 delta_qm =   0.375528E-02 delta_en =   0.243685E+02 tol =   0.100000E-03
 Iteration #        153
  pAp =  -0.17205118935693797  rzold =  0.02562787259899057  alpha =  -0.1489549284418075
 delta_qm =   0.136595E-02 delta_en =   0.322415E+01 tol =   0.100000E-03
 Iteration #        154
  pAp =  -0.007025306445482556  rzold =  0.002640951635243681  alpha =  -0.37591977741296645
 delta_qm =   0.142412E-02 delta_en =   0.350459E+01 tol =   0.100000E-03
 Iteration #        155
  pAp =  -0.04319398506627522  rzold =  0.006528073919619129  alpha =  -0.15113386527320177
 delta_qm =   0.174138E-02 delta_en =   0.524002E+01 tol =   0.100000E-03
 Iteration #        156
  pAp =  -0.01658646285841618  rzold =  0.006007895036276653  alpha =  -0.36221677204842806
 delta_qm =   0.332346E-02 delta_en =   0.190865E+02 tol =   0.100000E-03
 Iteration #        157
  pAp =  0.07511234042144523  rzold =  0.021507781197801373  alpha =  0.2863415129541179
 delta_qm =   0.239197E-02 delta_en =   0.988679E+01 tol =   0.100000E-03
 Iteration #        158
  pAp =  -0.009123853768610402  rzold =  0.004916340608150129  alpha =  -0.5388447396060039
 delta_qm =   0.153249E-02 delta_en =   0.405826E+01 tol =   0.100000E-03
 Iteration #        159
  pAp =  -0.004109066094222945  rzold =  0.0024806956597016056  alpha =  -0.6037127665552247
 delta_qm =   0.220428E-02 delta_en =   0.839610E+01 tol =   0.100000E-03
 Iteration #        160
  pAp =  -0.07198367049929537  rzold =  0.011092364154187444  alpha =  -0.15409556191353183
 delta_qm =   0.324634E-02 delta_en =   0.182109E+02 tol =   0.100000E-03
 Iteration #        161
  pAp =  0.035505517864794875  rzold =  0.018831177679892674  alpha =  0.5303732718841578
 delta_qm =   0.529589E-02 delta_en =   0.484643E+02 tol =   0.100000E-03
 Iteration #        162
  pAp =  -0.1420690395107016  rzold =  0.029754063102585403  alpha =  -0.20943383023536333
 delta_qm =   0.127680E-02 delta_en =   0.281702E+01 tol =   0.100000E-03
 Iteration #        163
  pAp =  -0.02840681145231064  rzold =  0.0035814139682021615  alpha =  -0.1260758876164134
 delta_qm =   0.116801E-02 delta_en =   0.235740E+01 tol =   0.100000E-03
 Iteration #        164
  pAp =  -0.0011599951790494574  rzold =  0.0016955077070208537  alpha =  -1.4616506496261605
 delta_qm =   0.268606E-02 delta_en =   0.124674E+02 tol =   0.100000E-03
 Iteration #        165
  pAp =  0.003870398500145468  rzold =  0.00914609014487221  alpha =  2.3630874558597665
 delta_qm =   0.181798E-01 delta_en =   0.571113E+03 tol =   0.100000E-03
 Iteration #        166
  pAp =  -8.089142678879709  rzold =  0.38052825990602546  alpha =  -0.04704185288999328
 delta_qm =   0.190368E-02 delta_en =   0.626227E+01 tol =   0.100000E-03
 Iteration #        167
  pAp =  -0.04345051179039535  rzold =  0.006573334484551503  alpha =  -0.15128324647270383
 delta_qm =   0.135367E-02 delta_en =   0.316642E+01 tol =   0.100000E-03
 Iteration #        168
  pAp =  -0.009763337516076786  rzold =  0.0027637441705480564  alpha =  -0.283073709783887
 delta_qm =   0.144067E-02 delta_en =   0.358652E+01 tol =   0.100000E-03
 Iteration #        169
  pAp =  -0.004506672529504255  rzold =  0.003573890216931071  alpha =  -0.7930219454672043
 delta_qm =   0.299446E-02 delta_en =   0.154946E+02 tol =   0.100000E-03
 Iteration #        170
  pAp =  -0.0351022293815729  rzold =  0.014375244389163551  alpha =  -0.40952511115176954
 delta_qm =   0.783295E-02 delta_en =   0.106022E+03 tol =   0.100000E-03
 Iteration #        171
  pAp =  1.570873571760879  rzold =  0.13571642818157661  alpha =  0.08639551305802705
 delta_qm =   0.269961E-02 delta_en =   0.125934E+02 tol =   0.100000E-03
 Iteration #        172
  pAp =  -0.2661524691849969  rzold =  0.01929489484111884  alpha =  -0.07249564469645169
 delta_qm =   0.163884E-02 delta_en =   0.464103E+01 tol =   0.100000E-03
 Iteration #        173
  pAp =  -0.054490948385767415  rzold =  0.006422137759923492  alpha =  -0.11785696432475565
 delta_qm =   0.133052E-02 delta_en =   0.305906E+01 tol =   0.100000E-03
 Iteration #        174
  pAp =  -0.004152648221426782  rzold =  0.002277764939594183  alpha =  -0.5485090039270363
 delta_qm =   0.166585E-02 delta_en =   0.479529E+01 tol =   0.100000E-03
 Iteration #        175
  pAp =  -0.0017264357901546276  rzold =  0.0040765323045779565  alpha =  -2.3612417721094876
 delta_qm =   0.899140E-02 delta_en =   0.139701E+03 tol =   0.100000E-03
 Iteration #        176
  pAp =  0.4658095045032039  rzold =  0.0756888875413795  alpha =  0.1624889290786442
 delta_qm =   0.206387E-02 delta_en =   0.736052E+01 tol =   0.100000E-03
 Iteration #        177
  pAp =  -0.01329447894886891  rzold =  0.004230958577816528  alpha =  -0.3182492968764674
 delta_qm =   0.162380E-02 delta_en =   0.455626E+01 tol =   0.100000E-03
 Iteration #        178
  pAp =  -0.08589924931857534  rzold =  0.008705206405170458  alpha =  -0.10134205449089989
 delta_qm =   0.153600E-02 delta_en =   0.407688E+01 tol =   0.100000E-03
 Iteration #        179
  pAp =  -0.0010326808585933095  rzold =  0.0023454461354128326  alpha =  -2.271220693107198
 delta_qm =   0.519215E-02 delta_en =   0.465841E+02 tol =   0.100000E-03
 Iteration #        180
  pAp =  0.061420070720601426  rzold =  0.02194745749131121  alpha =  0.35733364084111396
 delta_qm =   0.242279E-02 delta_en =   0.101432E+02 tol =   0.100000E-03
 Iteration #        181
  pAp =  -0.15003286506390326  rzold =  0.013843089651647525  alpha =  -0.09226704859466198
 delta_qm =   0.149076E-02 delta_en =   0.384027E+01 tol =   0.100000E-03
 Iteration #        182
  pAp =  -0.029197623005319376  rzold =  0.0039047909151306254  alpha =  -0.13373660295631704
 delta_qm =   0.135380E-02 delta_en =   0.316703E+01 tol =   0.100000E-03
 Iteration #        183
  pAp =  -0.014136418571297818  rzold =  0.004494245857915505  alpha =  -0.3179196933967769
 delta_qm =   0.154649E-02 delta_en =   0.413276E+01 tol =   0.100000E-03
 Iteration #        184
  pAp =  -0.004923160654767179  rzold =  0.0031862370143691874  alpha =  -0.6471933860789005
 delta_qm =   0.300581E-02 delta_en =   0.156123E+02 tol =   0.100000E-03
 Iteration #        185
  pAp =  0.015093316754049166  rzold =  0.009424663443809439  alpha =  0.6244262674260138
 delta_qm =   0.339858E-02 delta_en =   0.199590E+02 tol =   0.100000E-03
 Iteration #        186
  pAp =  -0.14130931192879237  rzold =  0.015841946923793464  alpha =  -0.11210830133952128
 delta_qm =   0.188933E-02 delta_en =   0.616818E+01 tol =   0.100000E-03
 Iteration #        187
  pAp =  -0.014556013640565897  rzold =  0.004233598234401917  alpha =  -0.2908487405235302
 delta_qm =   0.144165E-02 delta_en =   0.359139E+01 tol =   0.100000E-03
 Iteration #        188
  pAp =  -0.005218621089422912  rzold =  0.0021730636471283178  alpha =  -0.4164057152056273
 delta_qm =   0.178587E-02 delta_en =   0.551114E+01 tol =   0.100000E-03
 Iteration #        189
  pAp =  -0.0009761663071918217  rzold =  0.0030573545026295764  alpha =  -3.132001668265724
 delta_qm =   0.115285E-01 delta_en =   0.229663E+03 tol =   0.100000E-03
 Iteration #        190
  pAp =  1.068652063074902  rzold =  0.1244665693369095  alpha =  0.11647062092293517
 delta_qm =   0.465023E-02 delta_en =   0.373674E+02 tol =   0.100000E-03
 Iteration #        191
  pAp =  -1.599892661713765  rzold =  0.06936542195853738  alpha =  -0.043356297343244816
 delta_qm =   0.157616E-02 delta_en =   0.429284E+01 tol =   0.100000E-03
 Iteration #        192
  pAp =  -0.02180522514079957  rzold =  0.0041426896376062  alpha =  -0.18998609786673787
 delta_qm =   0.114138E-02 delta_en =   0.225115E+01 tol =   0.100000E-03
 Iteration #        193
  pAp =  -0.0007572903232127274  rzold =  0.0012339199230197845  alpha =  -1.6293882084548557
 delta_qm =   0.216992E-02 delta_en =   0.813637E+01 tol =   0.100000E-03
 Iteration #        194
  pAp =  0.000983941582343238  rzold =  0.00541374909064855  alpha =  5.502104177522217
 delta_qm =   0.281920E-01 delta_en =   0.137340E+04 tol =   0.100000E-03
 Iteration #        195
  pAp =  -73.2766091236573  rzold =  1.3728472143628105  alpha =  -0.018735135683558644
 delta_qm =   0.273346E-02 delta_en =   0.129113E+02 tol =   0.100000E-03
 Iteration #        196
  pAp =  -0.2134692499793791  rzold =  0.019588017119454362  alpha =  -0.09176036886505454
 delta_qm =   0.120076E-02 delta_en =   0.249147E+01 tol =   0.100000E-03
 Iteration #        197
  pAp =  -0.007554344454988875  rzold =  0.0017493026974300823  alpha =  -0.23156247479221656
 delta_qm =   0.120863E-02 delta_en =   0.252422E+01 tol =   0.100000E-03
 Iteration #        198
  pAp =  -0.0016269650027870288  rzold =  0.001966696123319365  alpha =  -1.2088128017199933
 delta_qm =   0.302894E-02 delta_en =   0.158535E+02 tol =   0.100000E-03
 Iteration #        199
  pAp =  0.010757218561602201  rzold =  0.010819715108205799  alpha =  1.005809731042063
 delta_qm =   0.911834E-02 delta_en =   0.143673E+03 tol =   0.100000E-03
 Iteration #        200
  pAp =  -2.828677367125795  rzold =  0.13036704610442096  alpha =  -0.04608763361262591
 delta_qm =   0.290712E-02 delta_en =   0.146039E+02 tol =   0.100000E-03

%%%% ELECTRONS %%%%%%%%%%%%%%%%%%%%%%%%%%%%%%%%%%%%%%%%%%%%%%%%%%%%%%%%%%%%%%%%%
 number of electrons        =         24
 total electronic charge    =     24.0000000
 number of spin components  =  1
