
     Program PWSCF v.6.7MaX starts on 22Jan2021 at 12:57:21 

     This program is part of the open-source Quantum ESPRESSO suite
     for quantum simulation of materials; please cite
         "P. Giannozzi et al., J. Phys.:Condens. Matter 21 395502 (2009);
         "P. Giannozzi et al., J. Phys.:Condens. Matter 29 465901 (2017);
          URL http://www.quantum-espresso.org", 
     in publications or presentations arising from this work. More details at
     http://www.quantum-espresso.org/quote

     Parallel version (MPI), running on     1 processors

     MPI processes distributed on     1 nodes
     Reading input from anion.in

     Current dimensions of program PWSCF are:
     Max number of different atomic species (ntypx) = 10
     Max number of k-points (npk) =  40000
     Max angular momentum in pseudopotentials (lmaxx) =  3
     file C.pbe-rrkjus.UPF: wavefunction(s)  2S 2P renormalized
     file H.pbe-rrkjus.UPF: wavefunction(s)  1S renormalized

     gamma-point specific algorithms are used

     Subspace diagonalization in iterative solution of the eigenvalue problem:
     a serial algorithm will be used


     G-vector sticks info
     --------------------
     sticks:   dense  smooth     PW     G-vecs:    dense   smooth      PW
     Sum        9549    3809    949               701475   177509   22119



     bravais-lattice index     =            1
     lattice parameter (alat)  =      20.0000  a.u.
     unit-cell volume          =    8000.0000 (a.u.)^3
     number of atoms/cell      =            4
     number of atomic types    =            2
     number of electrons       =         8.00
     number of Kohn-Sham states=            4
     kinetic-energy cutoff     =      30.0000  Ry
     charge density cutoff     =     300.0000  Ry
     scf convergence threshold =      1.0E-03
     mixing beta               =       0.7000
     number of iterations used =            8  plain     mixing
     Exchange-correlation= SLA  PW   PBE  PBE
                           (   1   4   3   4   0   0   0)


     Environ Module
     ==============

     Plese cite
         O. Andreussi, I. Dabo and N. Marzari, J. Chem. Phys. 136, 064102 (2012)         
     in publications or presentations arising from this work.

     compensation onset threshold      =               0.1000E+03 
     static permittivity               =                    78.30 
     epsilon calculation mode          =               electronic 
     external pressure in input (GPa)  =                     0.45 
     external pressure in inter. units =               0.3059E-04 

     Electrostatic Setup
     -------------------
     electrostatic problem to solve    = generalized              
     numerical solver adopted          = cg                       
     type of auxiliary density adopted = none                     
     type of core tool for poisson     = fft                      



     celldm(1)=  20.000000  celldm(2)=   0.000000  celldm(3)=   0.000000
     celldm(4)=   0.000000  celldm(5)=   0.000000  celldm(6)=   0.000000

     crystal axes: (cart. coord. in units of alat)
               a(1) = (   1.000000   0.000000   0.000000 )  
               a(2) = (   0.000000   1.000000   0.000000 )  
               a(3) = (   0.000000   0.000000   1.000000 )  

     reciprocal axes: (cart. coord. in units 2 pi/alat)
               b(1) = (  1.000000  0.000000  0.000000 )  
               b(2) = (  0.000000  1.000000  0.000000 )  
               b(3) = (  0.000000  0.000000  1.000000 )  


     PseudoPot. # 1 for C  read from file:
     /Users/gabrielmedrano/Desktop/q-e/Environ/tests/../..//pseudo/C.pbe-rrkjus.UPF
     MD5 check sum: c9ac5a99bc85b198593446162950cd17
     Pseudo is Ultrasoft, Zval =  4.0
     Generated by new atomic code, or converted to UPF format
     Using radial grid of  627 points,  4 beta functions with: 
                l(1) =   0
                l(2) =   0
                l(3) =   1
                l(4) =   1
     Q(r) pseudized with 0 coefficients 


     PseudoPot. # 2 for H  read from file:
     /Users/gabrielmedrano/Desktop/q-e/Environ/tests/../..//pseudo/H.pbe-rrkjus.UPF
     MD5 check sum: 2d52a7f45632fd764c17cc6affed14c8
     Pseudo is Ultrasoft, Zval =  1.0
     Generated by new atomic code, or converted to UPF format
     Using radial grid of 1061 points,  2 beta functions with: 
                l(1) =   0
                l(2) =   0
     Q(r) pseudized with 0 coefficients 


     atomic species   valence    mass     pseudopotential
        C              4.00    12.00000     C ( 1.00)
        H              1.00     1.00000     H ( 1.00)

      2 Sym. Ops. (no inversion) found



   Cartesian axes

     site n.     atom                  positions (alat units)
         1           C   tau(   1) = (   0.0000000   0.0000000   0.0297065  )
         2           H   tau(   2) = (  -0.0000000   0.0981713  -0.0066140  )
         3           H   tau(   3) = (   0.0850377  -0.0491140  -0.0066140  )
         4           H   tau(   4) = (  -0.0850377  -0.0491140  -0.0066140  )

     number of k points=     1
                       cart. coord. in units 2pi/alat
        k(    1) = (   0.0000000   0.0000000   0.0000000), wk =   2.0000000

     Dense  grid:   350738 G-vectors     FFT dimensions: ( 120, 120, 120)

     Smooth grid:    88755 G-vectors     FFT dimensions: (  72,  72,  72)

     Estimated max dynamical RAM per process >     547.31 MB

     Initial potential from superposition of free atoms

     starting charge    6.71133, renormalised to    8.00000

     negative rho (up, down):  8.422E-04 0.000E+00
     Starting wfcs are    7 randomized atomic wfcs

     total cpu time spent up to now is        3.5 secs

     Self-consistent Calculation

     iteration #  1     ecut=    30.00 Ry     beta= 0.70
     Davidson diagonalization with overlap
     ethr =  1.00E-02,  avg # of iterations =  2.0

     negative rho (up, down):  2.413E-04 0.000E+00

     add environment contribution to local potential
     polarization accuracy = 5.3E-06, # of iterations =  19

     total cpu time spent up to now is        8.8 secs

     total energy              =     -14.76001747 Ry
     estimated scf accuracy    <       0.70384899 Ry
     electrostatic embedding   =       0.00000000 Ry
     PV energy                 =       0.00541586 Ry
     correction to one-el term =      -0.00000000 Ry

     iteration #  2     ecut=    30.00 Ry     beta= 0.70
     Davidson diagonalization with overlap
     ethr =  8.80E-03,  avg # of iterations =  2.0

     negative rho (up, down):  8.861E-05 0.000E+00

     add environment contribution to local potential
     polarization accuracy = 9.6E-06, # of iterations =  18

     total cpu time spent up to now is       14.1 secs

     total energy              =     -15.01918409 Ry
     estimated scf accuracy    <       0.11460847 Ry
     electrostatic embedding   =      -0.10009409 Ry
     PV energy                 =       0.00497498 Ry
     correction to one-el term =       1.50960903 Ry

     iteration #  3     ecut=    30.00 Ry     beta= 0.70
     Davidson diagonalization with overlap
     ethr =  1.43E-03,  avg # of iterations =  2.0

     negative rho (up, down):  2.205E-05 0.000E+00

     add environment contribution to local potential
     polarization accuracy = 5.0E-06, # of iterations =  19

     total cpu time spent up to now is       19.5 secs

     total energy              =     -15.04808005 Ry
     estimated scf accuracy    <       0.00685890 Ry
     electrostatic embedding   =      -0.11398367 Ry
     PV energy                 =       0.00557210 Ry
     correction to one-el term =       1.65546002 Ry

     iteration #  4     ecut=    30.00 Ry     beta= 0.70
     Davidson diagonalization with overlap
     ethr =  8.57E-05,  avg # of iterations =  2.0

     negative rho (up, down):  1.735E-05 0.000E+00

     the potential shift due to the Gaussian-smeared nuclei is    -0.0187 ev

     total cpu time spent up to now is       21.4 secs

     End of self-consistent calculation

          k = 0.0000 0.0000 0.0000 ( 11060 PWs)   bands (ev):

   -14.7050  -7.9067  -7.9049  -3.5730

     highest occupied level (ev):    -3.5730

!    total energy              =     -15.05149860 Ry
     estimated scf accuracy    <       0.00051780 Ry

     The total energy is the sum of the following terms:
     one-electron contribution =     -37.05817210 Ry
     hartree contribution      =      19.92749421 Ry
     xc contribution           =      -5.95751615 Ry
     ewald contribution        =       6.32058455 Ry
     electrostatic embedding   =      -0.13917228 Ry
     PV energy                 =       0.00567915 Ry
     correction to one-el term =       1.84960402 Ry

     convergence has been achieved in   4 iterations
 forces lc
       1    0.0000    0.0000   -0.1742
       2    0.0000    0.0519   -0.0334
       3    0.0449   -0.0260   -0.0335
       4   -0.0449   -0.0260   -0.0335

     Forces acting on atoms (cartesian axes, Ry/au):

     atom    1 type  1   force =     0.00000000   -0.00026515    0.00140822
     atom    2 type  2   force =     0.00000000   -0.00531537   -0.00050053
     atom    3 type  2   force =    -0.00488737    0.00279026   -0.00045385
     atom    4 type  2   force =     0.00488737    0.00279026   -0.00045385

     Total force =     0.009711     Total SCF correction =     0.016858
     SCF correction compared to forces is large: reduce conv_thr to get better values

     Writing output data file /Users/gabrielmedrano/Desktop/q-e/Environ/tests/../..//tempdir/pwscf.save/

     init_run     :      3.16s CPU      3.49s WALL (       1 calls)
     electrons    :     17.48s CPU     17.95s WALL (       1 calls)
     forces       :      0.66s CPU      0.74s WALL (       1 calls)

     Called by init_run:
     wfcinit      :      0.04s CPU      0.05s WALL (       1 calls)
     potinit      :      1.39s CPU      1.52s WALL (       1 calls)
     hinit0       :      1.26s CPU      1.33s WALL (       1 calls)

     Called by electrons:
     c_bands      :      0.24s CPU      0.25s WALL (       4 calls)
     sum_band     :      2.11s CPU      1.32s WALL (       4 calls)
     v_of_rho     :      2.68s CPU      3.08s WALL (       5 calls)
     newd         :      0.92s CPU      1.15s WALL (       5 calls)
     mix_rho      :      0.24s CPU      0.28s WALL (       4 calls)

     Called by c_bands:
     init_us_2    :      0.02s CPU      0.02s WALL (       9 calls)
     regterg      :      0.22s CPU      0.23s WALL (       4 calls)

     Called by *egterg:
     rdiaghg      :      0.00s CPU      0.00s WALL (      12 calls)
     h_psi        :      0.23s CPU      0.24s WALL (      13 calls)
     s_psi        :      0.01s CPU      0.00s WALL (      13 calls)
     g_psi        :      0.00s CPU      0.00s WALL (       8 calls)

     Called by h_psi:
     h_psi:calbec :      0.00s CPU      0.00s WALL (      13 calls)
     vloc_psi     :      0.21s CPU      0.21s WALL (      13 calls)
     add_vuspsi   :      0.02s CPU      0.02s WALL (      13 calls)

     General routines
     calbec       :      0.01s CPU      0.01s WALL (      21 calls)
     fft          :      9.18s CPU      9.58s WALL (     236 calls)
     ffts         :      0.04s CPU      0.04s WALL (       9 calls)
     fftw         :      0.19s CPU      0.19s WALL (      62 calls)
     interpolate  :      0.22s CPU      0.25s WALL (       5 calls)

     Parallel routines
     fft_scatt_xy :      0.79s CPU      0.79s WALL (     179 calls)
     fft_scatt_yz :      1.05s CPU      1.05s WALL (     179 calls)

     Environ routines
     calc_eelect  :      0.02s CPU      0.02s WALL (       8 calls)
     calc_velect  :      7.66s CPU      8.07s WALL (       6 calls)
     dielectric   :      0.23s CPU      0.27s WALL (       6 calls)
     calc_felect  :      0.18s CPU      0.19s WALL (       1 calls)

     PWSCF        :     21.34s CPU     22.28s WALL


   This run was terminated on:  12:57:43  22Jan2021            

=------------------------------------------------------------------------------=
   JOB DONE.
=------------------------------------------------------------------------------=
 Calling electrostatic_initbase now
 electrolyte_distance:    0.0000000000000000     
 sc_distance:    0.0000000000000000     
 velectrostatic started
 vreference created

%%%% IONS %%%%%%%%%%%%%%%%%%%%%%%%%%%%%%%%%%%%%%%%%%%%%%%%%%%%%%%%%%%%%%%%%%%%%%
 number of ions             =          4
 ionic center of charge     =     -0.0000000    -0.0000081     0.0141406
 total ionic charge         =     -7.0000000
 ionic dipole               =      0.0000000     0.0000000     0.0000000
 ionic quadrupole (pc)      =     -5.7851250    -5.7847859    -0.9045815
 ionic quadrupole (gauss)   =     -6.6601250    -6.6597859    -1.7795815
 ion   1 type =  1 coordinates =      0.0000000     0.0000000     0.5941299
 ion   2 type =  2 coordinates =     -0.0000000     1.9634254    -0.1322808
 ion   3 type =  2 coordinates =      1.7007535    -0.9822796    -0.1322808
 ion   4 type =  2 coordinates =     -1.7007535    -0.9822796    -0.1322808

%%%% SYSTEM %%%%%%%%%%%%%%%%%%%%%%%%%%%%%%%%%%%%%%%%%%%%%%%%%%%%%%%%%%%%%%%%%%%%
 system is built from all present ionic types
 system defined dimension   =  0 
 system defined axis        =  3 
 system center              =     -0.0000000    -0.0000081     0.0141406 
 system width               =      0.1003671 

%%%% IONS %%%%%%%%%%%%%%%%%%%%%%%%%%%%%%%%%%%%%%%%%%%%%%%%%%%%%%%%%%%%%%%%%%%%%%
 number of ions             =          4
 ionic center of charge     =     -0.0000000    -0.0000081     0.0141406
 total ionic charge         =     -7.0000000
 ionic dipole               =      0.0000000     0.0000000     0.0000000
 ionic quadrupole (pc)      =     -5.7851250    -5.7847859    -0.9045815
 ionic quadrupole (gauss)   =     -6.6601250    -6.6597859    -1.7795815
 ion   1 type =  1 coordinates =      0.0000000     0.0000000     0.5941299
 ion   2 type =  2 coordinates =     -0.0000000     1.9634254    -0.1322808
 ion   3 type =  2 coordinates =      1.7007535    -0.9822796    -0.1322808
 ion   4 type =  2 coordinates =     -1.7007535    -0.9822796    -0.1322808

%%%% SYSTEM %%%%%%%%%%%%%%%%%%%%%%%%%%%%%%%%%%%%%%%%%%%%%%%%%%%%%%%%%%%%%%%%%%%%
 system is built from all present ionic types
 system defined dimension   =  0 
 system defined axis        =  3 
 system center              =     -0.0000000    -0.0000081     0.0141406 
 system width               =      0.1003671 

%%%% ELECTRONS %%%%%%%%%%%%%%%%%%%%%%%%%%%%%%%%%%%%%%%%%%%%%%%%%%%%%%%%%%%%%%%%%
 number of electrons        =          8
 total electronic charge    =      8.0000000

%%%% ELECTRONS %%%%%%%%%%%%%%%%%%%%%%%%%%%%%%%%%%%%%%%%%%%%%%%%%%%%%%%%%%%%%%%%%
 number of electrons        =          8
 total electronic charge    =      8.0000000

%%%% BOUNDARY %%%%%%%%%%%%%%%%%%%%%%%%%%%%%%%%%%%%%%%%%%%%%%%%%%%%%%%%%%%%%%%%%%
 boundary label             = solvent              
 boundary mode              = electronic           
 boundary is built as a function of a smooth density
 function type              =  2 
 using the modified SCCS function with parameters 
 rhomax                     =      0.0155000 
 rhomin                     =      0.0024000 
 volume of the QM region    =    177.0445409 
 surface of the QM region   =    154.9698962 

%%%% DIELECTRIC %%%%%%%%%%%%%%%%%%%%%%%%%%%%%%%%%%%%%%%%%%%%%%%%%%%%%%%%%%%%%%%%%
 dielectric build on homogeneous background
 environment bulk permitt.  =     78.3000000 
 dielectric flags
 need gradient              =  F 
 need factor depend. sqrt   =  T 
 total dielectric charge    =      0.0000000

%%%% DENSITY %%%%%%%%%%%%%%%%%%%%%%%%%%%%%%%%%%%%%%%%%%%%%%%%%%%%%%%%%%%%%%%%%%%
 density label              = dvtot                                                                           
 integral of density        =      0.000000000    

%%%% DENSITY %%%%%%%%%%%%%%%%%%%%%%%%%%%%%%%%%%%%%%%%%%%%%%%%%%%%%%%%%%%%%%%%%%%
 density label              = vreference                                                                      
 integral of density        =      0.000000000    

%%%% DENSITY %%%%%%%%%%%%%%%%%%%%%%%%%%%%%%%%%%%%%%%%%%%%%%%%%%%%%%%%%%%%%%%%%%%
 density label              = velectrostatic                                                                  
 integral of density        =      0.000000000    

%%%% CHARGES %%%%%%%%%%%%%%%%%%%%%%%%%%%%%%%%%%%%%%%%%%%%%%%%%%%%%%%%%%%%%%%%%%%
 total number of charges    =         12
 total charge               =      1.0000000

%%%% DENSITY %%%%%%%%%%%%%%%%%%%%%%%%%%%%%%%%%%%%%%%%%%%%%%%%%%%%%%%%%%%%%%%%%%%
 density label              = vsoftcavity                                                                     
 integral of density        =      0.000000000    

%%%% ELECTRONS %%%%%%%%%%%%%%%%%%%%%%%%%%%%%%%%%%%%%%%%%%%%%%%%%%%%%%%%%%%%%%%%%
 number of electrons        =          8
 total electronic charge    =      8.0000000

%%%% ELECTRONS %%%%%%%%%%%%%%%%%%%%%%%%%%%%%%%%%%%%%%%%%%%%%%%%%%%%%%%%%%%%%%%%%
 number of electrons        =          8
 total electronic charge    =      8.0000000

%%%% BOUNDARY %%%%%%%%%%%%%%%%%%%%%%%%%%%%%%%%%%%%%%%%%%%%%%%%%%%%%%%%%%%%%%%%%%
 boundary label             = solvent              
 boundary mode              = electronic           
 boundary is built as a function of a smooth density
 function type              =  2 
 using the modified SCCS function with parameters 
 rhomax                     =      0.0155000 
 rhomin                     =      0.0024000 
 volume of the QM region    =    162.6321112 
 surface of the QM region   =    146.9853699 

%%%% DIELECTRIC %%%%%%%%%%%%%%%%%%%%%%%%%%%%%%%%%%%%%%%%%%%%%%%%%%%%%%%%%%%%%%%%%
 dielectric build on homogeneous background
 environment bulk permitt.  =     78.3000000 
 dielectric flags
 need gradient              =  F 
 need factor depend. sqrt   =  T 
 total dielectric charge    =      0.0000000

%%%% DENSITY %%%%%%%%%%%%%%%%%%%%%%%%%%%%%%%%%%%%%%%%%%%%%%%%%%%%%%%%%%%%%%%%%%%
 density label              = vreference                                                                      
 integral of density        =     0.2681599798E-12

%%%% COMPUTE ELECTROSTATIC POTENTIAL %%%%%%%%%%%%%%%%%%%%%%%%%%%%%%%%%%%%%%%%%%%
 Iteration #          1
  pAp =    20.769575727409517       rzold =    20.305366019921141       alpha =   0.97764953345311911     
 delta_qm =   0.200386E-01 delta_en =   0.693873E+03 tol =   0.100000E-04
 Iteration #          2
  pAp =    24.166849991299259       rzold =    2.9402054429015085       alpha =   0.12166275058437755     
 delta_qm =   0.483138E-02 delta_en =   0.403353E+02 tol =   0.100000E-04
 Iteration #          3
  pAp =    3.3717463215947321       rzold =   0.28070063298411418       alpha =    8.3250816108654174E-002
 delta_qm =   0.312042E-02 delta_en =   0.168256E+02 tol =   0.100000E-04
 Iteration #          4
  pAp =   0.37273411497010922       rzold =    4.2959762271081871E-002  alpha =   0.11525578299836321     
 delta_qm =   0.171167E-02 delta_en =   0.506270E+01 tol =   0.100000E-04
 Iteration #          5
  pAp =    4.4281178804226251E-003  rzold =    1.7252634377998152E-003  alpha =   0.38961551710885212     
 delta_qm =   0.129118E-02 delta_en =   0.288085E+01 tol =   0.100000E-04
 Iteration #          6
  pAp =    1.8471476328004335E-003  rzold =    9.1299983700586474E-004  alpha =   0.49427550932768649     
 delta_qm =   0.874606E-03 delta_en =   0.132181E+01 tol =   0.100000E-04
 Iteration #          7
  pAp =    5.2047774391690246E-004  rzold =    3.4201151745579152E-004  alpha =   0.65711074383690804     
 delta_qm =   0.632625E-03 delta_en =   0.691571E+00 tol =   0.100000E-04
 Iteration #          8
  pAp =    1.0881554231006419E-003  rzold =    3.5658042890617534E-004  alpha =   0.32769255322931540     
 delta_qm =   0.474001E-03 delta_en =   0.388242E+00 tol =   0.100000E-04
 Iteration #          9
  pAp =    1.7222726115581667E-003  rzold =    5.1851864812964027E-004  alpha =   0.30106653537300837     
 delta_qm =   0.198087E-03 delta_en =   0.678039E-01 tol =   0.100000E-04
 Iteration #         10
  pAp =    2.2509348698767802E-004  rzold =    6.3564472306952734E-005  alpha =   0.28239143281134721     
 delta_qm =   0.138369E-03 delta_en =   0.330841E-01 tol =   0.100000E-04
 Iteration #         11
  pAp =    9.6732247579834179E-006  rzold =    5.0319950051004020E-006  alpha =   0.52019829281310159     
 delta_qm =   0.896281E-04 delta_en =   0.138814E-01 tol =   0.100000E-04
 Iteration #         12
  pAp =    4.8061873131168582E-006  rzold =    2.2784992065425176E-006  alpha =   0.47407623925187575     
 delta_qm =   0.519254E-04 delta_en =   0.465912E-02 tol =   0.100000E-04
 Iteration #         13
  pAp =    6.0864439085669466E-006  rzold =    2.0839791649057316E-006  alpha =   0.34239684062025710     
 delta_qm =   0.296767E-04 delta_en =   0.152186E-02 tol =   0.100000E-04
 Iteration #         14
  pAp =    1.8922974993609703E-006  rzold =    6.8636554505259912E-007  alpha =   0.36271545319083554     
 delta_qm =   0.225443E-04 delta_en =   0.878251E-03 tol =   0.100000E-04
 Iteration #         15
  pAp =    3.6958926773809112E-006  rzold =    7.3217827571516731E-007  alpha =   0.19810593532548795     
 delta_qm =   0.154223E-04 delta_en =   0.411000E-03 tol =   0.100000E-04
 Iteration #         16
  pAp =    4.6027994934270822E-007  rzold =    2.1670158632465734E-007  alpha =   0.47080388062550382     
 delta_qm =   0.515841E-05 delta_en =   0.459807E-04 tol =   0.100000E-04
 Iteration #         17
  pAp =    7.5212172883540319E-008  rzold =    2.9969402142516984E-008  alpha =   0.39846478294041665     
 delta_qm =   0.291320E-05 delta_en =   0.146651E-04 tol =   0.100000E-04
 Iteration #         18
  pAp =    8.5566611773205519E-009  rzold =    2.6902556890269868E-009  alpha =   0.31440484007448083     
 delta_qm =   0.254407E-05 delta_en =   0.111841E-04 tol =   0.100000E-04
 Iteration #         19
  pAp =    4.2914478301491488E-008  rzold =    6.7158322890476091E-009  alpha =   0.15649339232009726     
 delta_qm =   0.175311E-05 delta_en =   0.531080E-05 tol =   0.100000E-04
 Charges are converged, EXIT

%%%% DENSITY %%%%%%%%%%%%%%%%%%%%%%%%%%%%%%%%%%%%%%%%%%%%%%%%%%%%%%%%%%%%%%%%%%%
 density label              = velectrostatic                                                                  
 integral of density        =    -0.1622720477E-11

%%%% CHARGES %%%%%%%%%%%%%%%%%%%%%%%%%%%%%%%%%%%%%%%%%%%%%%%%%%%%%%%%%%%%%%%%%%%
 total number of charges    =         12
 total charge               =      1.0000000

%%%% DENSITY %%%%%%%%%%%%%%%%%%%%%%%%%%%%%%%%%%%%%%%%%%%%%%%%%%%%%%%%%%%%%%%%%%%
 density label              = vsoftcavity                                                                     
 integral of density        =      3.734482625    

%%%% DENSITY %%%%%%%%%%%%%%%%%%%%%%%%%%%%%%%%%%%%%%%%%%%%%%%%%%%%%%%%%%%%%%%%%%%
 density label              = dvtot                                                                           
 integral of density        =      3.734482625    

%%%% ELECTRONS %%%%%%%%%%%%%%%%%%%%%%%%%%%%%%%%%%%%%%%%%%%%%%%%%%%%%%%%%%%%%%%%%
 number of electrons        =          8
 total electronic charge    =      8.0000000

%%%% ELECTRONS %%%%%%%%%%%%%%%%%%%%%%%%%%%%%%%%%%%%%%%%%%%%%%%%%%%%%%%%%%%%%%%%%
 number of electrons        =          8
 total electronic charge    =      8.0000000

%%%% BOUNDARY %%%%%%%%%%%%%%%%%%%%%%%%%%%%%%%%%%%%%%%%%%%%%%%%%%%%%%%%%%%%%%%%%%
 boundary label             = solvent              
 boundary mode              = electronic           
 boundary is built as a function of a smooth density
 function type              =  2 
 using the modified SCCS function with parameters 
 rhomax                     =      0.0155000 
 rhomin                     =      0.0024000 
 volume of the QM region    =    182.1519495 
 surface of the QM region   =    158.2790386 

%%%% DIELECTRIC %%%%%%%%%%%%%%%%%%%%%%%%%%%%%%%%%%%%%%%%%%%%%%%%%%%%%%%%%%%%%%%%%
 dielectric build on homogeneous background
 environment bulk permitt.  =     78.3000000 
 dielectric flags
 need gradient              =  F 
 need factor depend. sqrt   =  T 
 total dielectric charge    =     -0.9855248

%%%% DENSITY %%%%%%%%%%%%%%%%%%%%%%%%%%%%%%%%%%%%%%%%%%%%%%%%%%%%%%%%%%%%%%%%%%%
 density label              = vreference                                                                      
 integral of density        =    -0.4042951159E-11

%%%% COMPUTE ELECTROSTATIC POTENTIAL %%%%%%%%%%%%%%%%%%%%%%%%%%%%%%%%%%%%%%%%%%%
 Warning: bad guess with residual norm =   0.441443E+03, reset to no guess
 Iteration #          1
  pAp =    21.859846003407856       rzold =    21.475830919892623       alpha =   0.98243285504136824     
 delta_qm =   0.157105E-01 delta_en =   0.426506E+03 tol =   0.100000E-04
 Iteration #          2
  pAp =    19.861524867087109       rzold =    2.4131729752362880       alpha =   0.12149988439383123     
 delta_qm =   0.451241E-02 delta_en =   0.351853E+02 tol =   0.100000E-04
 Iteration #          3
  pAp =    3.5120888761846203       rzold =   0.28995839554397029       alpha =    8.2560096218000159E-002
 delta_qm =   0.251814E-02 delta_en =   0.109573E+02 tol =   0.100000E-04
 Iteration #          4
  pAp =   0.18715220792529827       rzold =    2.5860495762134686E-002  alpha =   0.13817895096624719     
 delta_qm =   0.160510E-02 delta_en =   0.445191E+01 tol =   0.100000E-04
 Iteration #          5
  pAp =    1.8040489468517309E-003  rzold =    1.1160682613495236E-003  alpha =   0.61864633068697428     
 delta_qm =   0.104785E-02 delta_en =   0.189734E+01 tol =   0.100000E-04
 Iteration #          6
  pAp =    1.5703061061234902E-003  rzold =    7.6861798263990074E-004  alpha =   0.48947016103588653     
 delta_qm =   0.748551E-03 delta_en =   0.968249E+00 tol =   0.100000E-04
 Iteration #          7
  pAp =    4.8461034674677784E-004  rzold =    3.3496507871178004E-004  alpha =   0.69120496696041134     
 delta_qm =   0.475102E-03 delta_en =   0.390048E+00 tol =   0.100000E-04
 Iteration #          8
  pAp =    2.4555938947612658E-003  rzold =    5.3864645471861003E-004  alpha =   0.21935485988450770     
 delta_qm =   0.304963E-03 delta_en =   0.160709E+00 tol =   0.100000E-04
 Iteration #          9
  pAp =    9.4785625357408183E-004  rzold =    2.9347457225849526E-004  alpha =   0.30961928156499535     
 delta_qm =   0.174576E-03 delta_en =   0.526641E-01 tol =   0.100000E-04
 Iteration #         10
  pAp =    8.3925066797375472E-005  rzold =    2.6311719531273094E-005  alpha =   0.31351443061461970     
 delta_qm =   0.131681E-03 delta_en =   0.299632E-01 tol =   0.100000E-04
 Iteration #         11
  pAp =    6.3309929574533132E-006  rzold =    4.2586235682174081E-006  alpha =   0.67266281874533462     
 delta_qm =   0.792725E-04 delta_en =   0.108590E-01 tol =   0.100000E-04
 Iteration #         12
  pAp =    1.1447784364929887E-005  rzold =    4.3927135167386744E-006  alpha =   0.38371735321951778     
 delta_qm =   0.445240E-04 delta_en =   0.342557E-02 tol =   0.100000E-04
 Iteration #         13
  pAp =    5.8579698879412088E-006  rzold =    2.2674163094843380E-006  alpha =   0.38706520396287397     
 delta_qm =   0.260564E-04 delta_en =   0.117320E-02 tol =   0.100000E-04
 Iteration #         14
  pAp =    1.2341657409046541E-006  rzold =    5.7303789382691145E-007  alpha =   0.46431194355376432     
 delta_qm =   0.153098E-04 delta_en =   0.405028E-03 tol =   0.100000E-04
 Iteration #         15
  pAp =    2.4951814094497771E-006  rzold =    4.1516254966982026E-007  alpha =   0.16638571772678024     
 delta_qm =   0.998169E-05 delta_en =   0.172168E-03 tol =   0.100000E-04
 Iteration #         16
  pAp =    3.2712078727836703E-007  rzold =    1.2743042127553155E-007  alpha =   0.38955158532035822     
 delta_qm =   0.401448E-05 delta_en =   0.278485E-04 tol =   0.100000E-04
 Iteration #         17
  pAp =    2.6716487748840576E-008  rzold =    1.0573633170019957E-008  alpha =   0.39577182709874820     
 delta_qm =   0.308050E-05 delta_en =   0.163979E-04 tol =   0.100000E-04
 Iteration #         18
  pAp =    1.2384698699452825E-008  rzold =    4.7442501470496549E-009  alpha =   0.38307352178533527     
 delta_qm =   0.235222E-05 delta_en =   0.956096E-05 tol =   0.100000E-04
 Charges are converged, EXIT

%%%% DENSITY %%%%%%%%%%%%%%%%%%%%%%%%%%%%%%%%%%%%%%%%%%%%%%%%%%%%%%%%%%%%%%%%%%%
 density label              = velectrostatic                                                                  
 integral of density        =    -0.3679118738E-11

%%%% CHARGES %%%%%%%%%%%%%%%%%%%%%%%%%%%%%%%%%%%%%%%%%%%%%%%%%%%%%%%%%%%%%%%%%%%
 total number of charges    =         12
 total charge               =      1.0000000

%%%% DENSITY %%%%%%%%%%%%%%%%%%%%%%%%%%%%%%%%%%%%%%%%%%%%%%%%%%%%%%%%%%%%%%%%%%%
 density label              = vsoftcavity                                                                     
 integral of density        =      3.326001696    

%%%% DENSITY %%%%%%%%%%%%%%%%%%%%%%%%%%%%%%%%%%%%%%%%%%%%%%%%%%%%%%%%%%%%%%%%%%%
 density label              = dvtot                                                                           
 integral of density        =      3.326001696    

%%%% ELECTRONS %%%%%%%%%%%%%%%%%%%%%%%%%%%%%%%%%%%%%%%%%%%%%%%%%%%%%%%%%%%%%%%%%
 number of electrons        =          8
 total electronic charge    =      8.0000000

%%%% ELECTRONS %%%%%%%%%%%%%%%%%%%%%%%%%%%%%%%%%%%%%%%%%%%%%%%%%%%%%%%%%%%%%%%%%
 number of electrons        =          8
 total electronic charge    =      8.0000000

%%%% BOUNDARY %%%%%%%%%%%%%%%%%%%%%%%%%%%%%%%%%%%%%%%%%%%%%%%%%%%%%%%%%%%%%%%%%%
 boundary label             = solvent              
 boundary mode              = electronic           
 boundary is built as a function of a smooth density
 function type              =  2 
 using the modified SCCS function with parameters 
 rhomax                     =      0.0155000 
 rhomin                     =      0.0024000 
 volume of the QM region    =    185.6513738 
 surface of the QM region   =    160.2411903 

%%%% DIELECTRIC %%%%%%%%%%%%%%%%%%%%%%%%%%%%%%%%%%%%%%%%%%%%%%%%%%%%%%%%%%%%%%%%%
 dielectric build on homogeneous background
 environment bulk permitt.  =     78.3000000 
 dielectric flags
 need gradient              =  F 
 need factor depend. sqrt   =  T 
 total dielectric charge    =     -0.9850541

%%%% DENSITY %%%%%%%%%%%%%%%%%%%%%%%%%%%%%%%%%%%%%%%%%%%%%%%%%%%%%%%%%%%%%%%%%%%
 density label              = vreference                                                                      
 integral of density        =    -0.1658155095E-11

%%%% COMPUTE ELECTROSTATIC POTENTIAL %%%%%%%%%%%%%%%%%%%%%%%%%%%%%%%%%%%%%%%%%%%
 Warning: bad guess with residual norm =   0.611485E+03, reset to no guess
 Iteration #          1
  pAp =    21.955829239658428       rzold =    21.391867355300381       alpha =   0.97431379711501065     
 delta_qm =   0.183417E-01 delta_en =   0.581332E+03 tol =   0.100000E-04
 Iteration #          2
  pAp =    37.764520760983210       rzold =    3.9341866067991034       alpha =   0.10417679153666759     
 delta_qm =   0.751075E-02 delta_en =   0.974790E+02 tol =   0.100000E-04
 Iteration #          3
  pAp =    7.1142561846294186       rzold =   0.63857769601741809       alpha =    8.9760289683844377E-002
 delta_qm =   0.253846E-02 delta_en =   0.111348E+02 tol =   0.100000E-04
 Iteration #          4
  pAp =   0.21184136415845825       rzold =    3.1876071029447971E-002  alpha =   0.15047142070707462     
 delta_qm =   0.161178E-02 delta_en =   0.448904E+01 tol =   0.100000E-04
 Iteration #          5
  pAp =    1.9839554047601671E-003  rzold =    1.2396879759482703E-003  alpha =   0.62485677499294978     
 delta_qm =   0.106452E-02 delta_en =   0.195819E+01 tol =   0.100000E-04
 Iteration #          6
  pAp =    1.7151147286235090E-003  rzold =    8.2173396474583514E-004  alpha =   0.47911311764276554     
 delta_qm =   0.798725E-03 delta_en =   0.110240E+01 tol =   0.100000E-04
 Iteration #          7
  pAp =    4.5337280012978335E-004  rzold =    3.3935513930417698E-004  alpha =   0.74851234835224467     
 delta_qm =   0.482701E-03 delta_en =   0.402625E+00 tol =   0.100000E-04
 Iteration #          8
  pAp =    2.2425199337623900E-003  rzold =    5.1944071890937021E-004  alpha =   0.23163259826095639     
 delta_qm =   0.315098E-03 delta_en =   0.171568E+00 tol =   0.100000E-04
 Iteration #          9
  pAp =    1.1906888046722315E-003  rzold =    3.2524763411767295E-004  alpha =   0.27315922753402050     
 delta_qm =   0.195042E-03 delta_en =   0.657356E-01 tol =   0.100000E-04
 Iteration #         10
  pAp =    8.9084537301820958E-005  rzold =    2.8863033938852340E-005  alpha =   0.32399600214640567     
 delta_qm =   0.147906E-03 delta_en =   0.378019E-01 tol =   0.100000E-04
 Iteration #         11
  pAp =    6.9760515869514530E-006  rzold =    5.2895816418866588E-006  alpha =   0.75824864193675146     
 delta_qm =   0.841188E-04 delta_en =   0.122273E-01 tol =   0.100000E-04
 Iteration #         12
  pAp =    1.3613179211280058E-005  rzold =    5.3942999473295984E-006  alpha =   0.39625570659202158     
 delta_qm =   0.459903E-04 delta_en =   0.365490E-02 tol =   0.100000E-04
 Iteration #         13
  pAp =    8.3953890295843833E-006  rzold =    2.8581504270167673E-006  alpha =   0.34044288084149221     
 delta_qm =   0.276701E-04 delta_en =   0.132302E-02 tol =   0.100000E-04
 Iteration #         14
  pAp =    1.2830337037193476E-006  rzold =    6.8412569914603609E-007  alpha =   0.53320945284823362     
 delta_qm =   0.136519E-04 delta_en =   0.322056E-03 tol =   0.100000E-04
 Iteration #         15
  pAp =    3.3613449395733625E-007  rzold =    1.7440380600317311E-007  alpha =   0.51885126084474165     
 delta_qm =   0.541242E-05 delta_en =   0.506206E-04 tol =   0.100000E-04
 Iteration #         16
  pAp =    1.0569262121902072E-007  rzold =    2.7057757580895243E-008  alpha =   0.25600422497635872     
 delta_qm =   0.442842E-05 delta_en =   0.338877E-04 tol =   0.100000E-04
 Iteration #         17
  pAp =    5.8111574038198394E-008  rzold =    1.3922377241032355E-008  alpha =   0.23958010897933654     
 delta_qm =   0.368069E-05 delta_en =   0.234100E-04 tol =   0.100000E-04
 Iteration #         18
  pAp =    2.4314792975906356E-008  rzold =    7.8101721738432756E-009  alpha =   0.32121072063341904     
 delta_qm =   0.274245E-05 delta_en =   0.129964E-04 tol =   0.100000E-04
 Iteration #         19
  pAp =    9.7160166906203437E-009  rzold =    4.7878097309878940E-009  alpha =   0.49277495947592942     
 delta_qm =   0.170441E-05 delta_en =   0.501984E-05 tol =   0.100000E-04
 Charges are converged, EXIT

%%%% DENSITY %%%%%%%%%%%%%%%%%%%%%%%%%%%%%%%%%%%%%%%%%%%%%%%%%%%%%%%%%%%%%%%%%%%
 density label              = velectrostatic                                                                  
 integral of density        =     0.4024784621E-12

%%%% CHARGES %%%%%%%%%%%%%%%%%%%%%%%%%%%%%%%%%%%%%%%%%%%%%%%%%%%%%%%%%%%%%%%%%%%
 total number of charges    =         12
 total charge               =      1.0000000

%%%% DENSITY %%%%%%%%%%%%%%%%%%%%%%%%%%%%%%%%%%%%%%%%%%%%%%%%%%%%%%%%%%%%%%%%%%%
 density label              = vsoftcavity                                                                     
 integral of density        =      4.045933955    

%%%% DENSITY %%%%%%%%%%%%%%%%%%%%%%%%%%%%%%%%%%%%%%%%%%%%%%%%%%%%%%%%%%%%%%%%%%%
 density label              = dvtot                                                                           
 integral of density        =      4.045933955    

%%%% ELECTRONS %%%%%%%%%%%%%%%%%%%%%%%%%%%%%%%%%%%%%%%%%%%%%%%%%%%%%%%%%%%%%%%%%
 number of electrons        =          8
 total electronic charge    =      8.0000000

%%%% ELECTRONS %%%%%%%%%%%%%%%%%%%%%%%%%%%%%%%%%%%%%%%%%%%%%%%%%%%%%%%%%%%%%%%%%
 number of electrons        =          8
 total electronic charge    =      8.0000000

%%%% BOUNDARY %%%%%%%%%%%%%%%%%%%%%%%%%%%%%%%%%%%%%%%%%%%%%%%%%%%%%%%%%%%%%%%%%%
 boundary label             = solvent              
 boundary mode              = electronic           
 boundary is built as a function of a smooth density
 function type              =  2 
 using the modified SCCS function with parameters 
 rhomax                     =      0.0155000 
 rhomin                     =      0.0024000 
 volume of the QM region    =    185.6513738 
 surface of the QM region   =    160.2411903 

%%%% DIELECTRIC %%%%%%%%%%%%%%%%%%%%%%%%%%%%%%%%%%%%%%%%%%%%%%%%%%%%%%%%%%%%%%%%%
 dielectric build on homogeneous background
 environment bulk permitt.  =     78.3000000 
 dielectric flags
 need gradient              =  F 
 need factor depend. sqrt   =  T 
 total dielectric charge    =     -0.9850642

%%%% DENSITY %%%%%%%%%%%%%%%%%%%%%%%%%%%%%%%%%%%%%%%%%%%%%%%%%%%%%%%%%%%%%%%%%%%
 density label              = dvtot                                                                           
 integral of density        =      4.045933955    

%%%% DENSITY %%%%%%%%%%%%%%%%%%%%%%%%%%%%%%%%%%%%%%%%%%%%%%%%%%%%%%%%%%%%%%%%%%%
 density label              = vreference                                                                      
 integral of density        =    -0.1658155095E-11

%%%% DENSITY %%%%%%%%%%%%%%%%%%%%%%%%%%%%%%%%%%%%%%%%%%%%%%%%%%%%%%%%%%%%%%%%%%%
 density label              = velectrostatic                                                                  
 integral of density        =     0.4024784621E-12

%%%% CHARGES %%%%%%%%%%%%%%%%%%%%%%%%%%%%%%%%%%%%%%%%%%%%%%%%%%%%%%%%%%%%%%%%%%%
 total number of charges    =         12
 total charge               =      1.0000000

%%%% DENSITY %%%%%%%%%%%%%%%%%%%%%%%%%%%%%%%%%%%%%%%%%%%%%%%%%%%%%%%%%%%%%%%%%%%
 density label              = vsoftcavity                                                                     
 integral of density        =      4.045933955    
