
     Program PWSCF v.6.1 (svn rev. 13369) starts on 31Jan2018 at 22:27: 4 

     This program is part of the open-source Quantum ESPRESSO suite
     for quantum simulation of materials; please cite
         "P. Giannozzi et al., J. Phys.:Condens. Matter 21 395502 (2009);
          URL http://www.quantum-espresso.org", 
     in publications or presentations arising from this work. More details at
     http://www.quantum-espresso.org/quote

     Parallel version (MPI), running on     1 processors
     Reading input from cation.in

     Current dimensions of program PWSCF are:
     Max number of different atomic species (ntypx) = 10
     Max number of k-points (npk) =  40000
     Max angular momentum in pseudopotentials (lmaxx) =  3
               file C.pbe-rrkjus.UPF: wavefunction(s)  2S 2P renormalized
               file H.pbe-rrkjus.UPF: wavefunction(s)  1S renormalized
               file N.pbe-rrkjus.UPF: wavefunction(s)  2S renormalized
               file O.pbe-rrkjus.UPF: wavefunction(s)  2S renormalized

     gamma-point specific algorithms are used

     Subspace diagonalization in iterative solution of the eigenvalue problem:
     a serial algorithm will be used

 
     G-vector sticks info
     --------------------
     sticks:   dense  smooth     PW     G-vecs:    dense   smooth      PW
     Sum        9549    3809    949               701475   177509   22119
 


     bravais-lattice index     =            1
     lattice parameter (alat)  =      20.0000  a.u.
     unit-cell volume          =    8000.0000 (a.u.)^3
     number of atoms/cell      =           10
     number of atomic types    =            4
     number of electrons       =        24.00
     number of Kohn-Sham states=           12
     kinetic-energy cutoff     =      30.0000  Ry
     charge density cutoff     =     300.0000  Ry
     convergence threshold     =      1.0E-03
     mixing beta               =       0.7000
     number of iterations used =            8  plain     mixing
     Exchange-correlation      =  SLA  PW   PBE  PBE ( 1  4  3  4 0 0)
 

     Environ Module
     ==============

     Plese cite
         O. Andreussi, I. Dabo and N. Marzari, J. Chem. Phys. 136, 064102 (2012)         
     in publications or presentations arising from this work.

     compensation onset threshold      =               0.1000E+03 
     static permittivity               =                    78.30 
     epsilon calculation mode          =               electronic 
     surface tension in input (dyn/cm) =                     5.00 
     surface tension in internal units =               0.6423E-05 
     external pressure in input (GPa)  =                     0.12 
     external pressure in inter. units =               0.8497E-05 

     Electrostatic Setup
     -------------------
     electrostatic problem to solve    = generalized              
     numerical solver adopted          = cg                       
     type of auxiliary density adopted = none                     
     type of core tool for poisson     = fft                      
     type of core tool for s(r) deriv  = analytic                 



     celldm(1)=  20.000000  celldm(2)=   0.000000  celldm(3)=   0.000000
     celldm(4)=   0.000000  celldm(5)=   0.000000  celldm(6)=   0.000000

     crystal axes: (cart. coord. in units of alat)
               a(1) = (   1.000000   0.000000   0.000000 )  
               a(2) = (   0.000000   1.000000   0.000000 )  
               a(3) = (   0.000000   0.000000   1.000000 )  

     reciprocal axes: (cart. coord. in units 2 pi/alat)
               b(1) = (  1.000000  0.000000  0.000000 )  
               b(2) = (  0.000000  1.000000  0.000000 )  
               b(3) = (  0.000000  0.000000  1.000000 )  


     PseudoPot. # 1 for C  read from file:
     /home/fnattino/Programs/qe-6.1/Environ/tests/../..//pseudo/C.pbe-rrkjus.UPF
     MD5 check sum: 00fb224312de0c5b6853bd333518df6f
     Pseudo is Ultrasoft, Zval =  4.0
     Generated by new atomic code, or converted to UPF format
     Using radial grid of  627 points,  4 beta functions with: 
                l(1) =   0
                l(2) =   0
                l(3) =   1
                l(4) =   1
     Q(r) pseudized with 0 coefficients 


     PseudoPot. # 2 for H  read from file:
     /home/fnattino/Programs/qe-6.1/Environ/tests/../..//pseudo/H.pbe-rrkjus.UPF
     MD5 check sum: 7cc9d459525c9a0585f487a71c3c9563
     Pseudo is Ultrasoft, Zval =  1.0
     Generated by new atomic code, or converted to UPF format
     Using radial grid of 1061 points,  2 beta functions with: 
                l(1) =   0
                l(2) =   0
     Q(r) pseudized with 0 coefficients 


     PseudoPot. # 3 for N  read from file:
     /home/fnattino/Programs/qe-6.1/Environ/tests/../..//pseudo/N.pbe-rrkjus.UPF
     MD5 check sum: 0c3fbe5807a93f9ba59d5a7019aa238b
     Pseudo is Ultrasoft, Zval =  5.0
     Generated by new atomic code, or converted to UPF format
     Using radial grid of 1257 points,  4 beta functions with: 
                l(1) =   0
                l(2) =   0
                l(3) =   1
                l(4) =   1
     Q(r) pseudized with 0 coefficients 


     PseudoPot. # 4 for O  read from file:
     /home/fnattino/Programs/qe-6.1/Environ/tests/../..//pseudo/O.pbe-rrkjus.UPF
     MD5 check sum: 390ba29e75625707450f3bd3f0eb6be9
     Pseudo is Ultrasoft, Zval =  6.0
     Generated by new atomic code, or converted to UPF format
     Using radial grid of 1269 points,  4 beta functions with: 
                l(1) =   0
                l(2) =   0
                l(3) =   1
                l(4) =   1
     Q(r) pseudized with 0 coefficients 


     atomic species   valence    mass     pseudopotential
        C              4.00    12.00000     C ( 1.00)
        H              1.00     1.00000     H ( 1.00)
        N              5.00    14.00000     N ( 1.00)
        O              6.00    16.00000     O ( 1.00)

     No symmetry found



   Cartesian axes

     site n.     atom                  positions (alat units)
         1           C   tau(   1) = (   0.0000000   0.0000000   0.0000000  )
         2           C   tau(   2) = (   0.0000000   0.0000000   0.1455089  )
         3           N   tau(   3) = (   0.1170969   0.0000000  -0.0545024  )
         4           H   tau(   4) = (   0.0476617  -0.0825466   0.1792090  )
         5           H   tau(   5) = (  -0.0953183  -0.0000030   0.1792090  )
         6           H   tau(   6) = (   0.0476566   0.0825496   0.1792090  )
         7           O   tau(   7) = (  -0.0984002  -0.0000019  -0.0641310  )
         8           H   tau(   8) = (   0.1263131  -0.0000015  -0.1475548  )
         9           H   tau(   9) = (   0.1944645   0.0000134  -0.0025716  )
        10           H   tau(  10) = (  -0.0770366  -0.0000045  -0.1522861  )

     number of k points=     1
                       cart. coord. in units 2pi/alat
        k(    1) = (   0.0000000   0.0000000   0.0000000), wk =   2.0000000

     Dense  grid:   350738 G-vectors     FFT dimensions: ( 120, 120, 120)

     Smooth grid:    88755 G-vectors     FFT dimensions: (  72,  72,  72)

     Estimated max dynamical RAM per process >     298.98MB

     Initial potential from superposition of free atoms
     Check: negative starting charge=   -0.000452

     starting charge   24.42266, renormalised to   24.00000

     negative rho (up, down):  4.438E-04 0.000E+00
     Starting wfc are   22 randomized atomic wfcs

     total cpu time spent up to now is        4.2 secs

     per-process dynamical memory:   621.2 Mb

     Self-consistent Calculation

     iteration #  1     ecut=    30.00 Ry     beta=0.70
     Davidson diagonalization with overlap
     ethr =  1.00E-02,  avg # of iterations =  2.0

     negative rho (up, down):  1.277E-04 0.000E+00

     add environment contribution to local potential
     polarization accuracy = 2.2E-06, # of iterations =  17

     total cpu time spent up to now is        8.5 secs

     total energy              =     -80.21768255 Ry
     Harris-Foulkes estimate   =     -83.01879009 Ry
     estimated scf accuracy    <       3.73442311 Ry
     electrostatic embedding   =       0.00000000 Ry
     cavitation energy         =       0.00482850 Ry
     PV energy                 =       0.01652076 Ry
     correction to one-el term =       0.00000000 Ry

     iteration #  2     ecut=    30.00 Ry     beta=0.70
     Davidson diagonalization with overlap
     ethr =  1.00E-02,  avg # of iterations =  4.0

     negative rho (up, down):  6.931E-04 0.000E+00

     add environment contribution to local potential
     polarization accuracy = 7.6E-06, # of iterations =  19

     total cpu time spent up to now is       13.1 secs

     total energy              =     -80.95152815 Ry
     Harris-Foulkes estimate   =     -76.67504677 Ry
     estimated scf accuracy    <       1.54608915 Ry
     electrostatic embedding   =      -0.17977213 Ry
     cavitation energy         =       0.00265722 Ry
     PV energy                 =       0.00631753 Ry
     correction to one-el term =      -4.93308004 Ry

     iteration #  3     ecut=    30.00 Ry     beta=0.70
     Davidson diagonalization with overlap
     ethr =  6.44E-03,  avg # of iterations =  3.0

     negative rho (up, down):  3.264E-04 0.000E+00

     add environment contribution to local potential
     polarization accuracy = 4.5E-06, # of iterations =  21

     total cpu time spent up to now is       17.7 secs

     total energy              =     -81.30887234 Ry
     Harris-Foulkes estimate   =     -77.07851776 Ry
     estimated scf accuracy    <       0.24530393 Ry
     electrostatic embedding   =      -0.14877450 Ry
     cavitation energy         =       0.00259635 Ry
     PV energy                 =       0.00597411 Ry
     correction to one-el term =      -4.22082576 Ry

     iteration #  4     ecut=    30.00 Ry     beta=0.70
     Davidson diagonalization with overlap
     ethr =  1.02E-03,  avg # of iterations =  4.0

     negative rho (up, down):  8.603E-05 0.000E+00

     add environment contribution to local potential
     polarization accuracy = 3.9E-06, # of iterations =  22

     total cpu time spent up to now is       22.4 secs

     total energy              =     -81.36821582 Ry
     Harris-Foulkes estimate   =     -77.27443167 Ry
     estimated scf accuracy    <       0.02092017 Ry
     electrostatic embedding   =      -0.12479730 Ry
     cavitation energy         =       0.00251946 Ry
     PV energy                 =       0.00563355 Ry
     correction to one-el term =      -3.98775692 Ry

     iteration #  5     ecut=    30.00 Ry     beta=0.70
     Davidson diagonalization with overlap
     ethr =  8.72E-05,  avg # of iterations =  4.0

     negative rho (up, down):  9.670E-05 0.000E+00

     add environment contribution to local potential
     polarization accuracy = 4.6E-06, # of iterations =  22

     total cpu time spent up to now is       27.1 secs

     total energy              =     -81.37419320 Ry
     Harris-Foulkes estimate   =     -77.50466567 Ry
     estimated scf accuracy    <       0.00249120 Ry
     electrostatic embedding   =      -0.11900508 Ry
     cavitation energy         =       0.00247831 Ry
     PV energy                 =       0.00544181 Ry
     correction to one-el term =      -3.75969192 Ry

     iteration #  6     ecut=    30.00 Ry     beta=0.70
     Davidson diagonalization with overlap
     ethr =  1.04E-05,  avg # of iterations =  3.0

     negative rho (up, down):  2.784E-04 0.000E+00

     total cpu time spent up to now is       29.2 secs

     End of self-consistent calculation

          k = 0.0000 0.0000 0.0000 ( 11060 PWs)   bands (ev):

   -29.0390 -23.1219 -18.6573 -16.0960 -14.6763 -13.4201 -11.7290 -11.0057
    -9.6386  -9.6282  -9.3676  -7.4215

     highest occupied level (ev):    -7.4215

!    total energy              =     -81.37504714 Ry
     Harris-Foulkes estimate   =     -77.54571147 Ry
     estimated scf accuracy    <       0.00027492 Ry

     The total energy is the sum of the following terms:

     one-electron contribution =    -242.05724289 Ry
     hartree contribution      =     123.17227120 Ry
     xc contribution           =     -22.96845524 Ry
     ewald contribution        =      64.30784006 Ry
     electrostatic embedding   =      -0.11904311 Ry
     cavitation energy         =       0.00248165 Ry
     PV energy                 =       0.00544672 Ry
     correction to one-el term =      -3.71834551 Ry

     convergence has been achieved in   6 iterations

     Forces acting on atoms (cartesian axes, Ry/au):

     atom    1 type  1   force =     0.22399035   -0.00000167    0.09588468
     atom    2 type  1   force =    -0.03073554    0.00000399   -0.07907117
     atom    3 type  3   force =    -0.14068453    0.00000031    0.04315588
     atom    4 type  2   force =     0.01957094   -0.02900035    0.00876055
     atom    5 type  2   force =    -0.03159588   -0.00000021    0.01169537
     atom    6 type  2   force =     0.01956972    0.02900393    0.00876284
     atom    7 type  4   force =    -0.09933368   -0.00001552   -0.00652918
     atom    8 type  2   force =     0.00817228    0.00000157   -0.05241448
     atom    9 type  2   force =     0.04327219    0.00000505    0.03612096
     atom   10 type  2   force =    -0.01222586    0.00000289   -0.06636545

     Total force =     0.335274     Total SCF correction =     0.022309

     Writing output data file pwscf.save
 
     init_run     :      3.91s CPU      4.10s WALL (       1 calls)
     electrons    :     23.08s CPU     25.05s WALL (       1 calls)
     forces       :      0.72s CPU      0.77s WALL (       1 calls)

     Called by init_run:
     wfcinit      :      0.09s CPU      0.10s WALL (       1 calls)
     potinit      :      1.75s CPU      1.80s WALL (       1 calls)

     Called by electrons:
     c_bands      :      1.00s CPU      1.01s WALL (       6 calls)
     sum_band     :      2.66s CPU      2.97s WALL (       6 calls)
     v_of_rho     :      3.65s CPU      3.78s WALL (       7 calls)
     newd         :      1.56s CPU      1.87s WALL (       7 calls)
     mix_rho      :      0.32s CPU      0.32s WALL (       6 calls)

     Called by c_bands:
     init_us_2    :      0.06s CPU      0.06s WALL (      13 calls)
     regterg      :      0.92s CPU      0.93s WALL (       6 calls)

     Called by sum_band:
     sum_band:bec :      0.00s CPU      0.00s WALL (       6 calls)
     addusdens    :      1.96s CPU      2.26s WALL (       6 calls)

     Called by *egterg:
     h_psi        :      0.88s CPU      0.90s WALL (      27 calls)
     s_psi        :      0.02s CPU      0.02s WALL (      27 calls)
     g_psi        :      0.02s CPU      0.01s WALL (      20 calls)
     rdiaghg      :      0.01s CPU      0.01s WALL (      26 calls)

     Called by h_psi:
     h_psi:pot    :      0.87s CPU      0.89s WALL (      27 calls)
     h_psi:calbec :      0.02s CPU      0.03s WALL (      27 calls)
     vloc_psi     :      0.83s CPU      0.84s WALL (      27 calls)
     add_vuspsi   :      0.02s CPU      0.02s WALL (      27 calls)

     General routines
     calbec       :      0.04s CPU      0.04s WALL (      37 calls)
     fft          :      9.16s CPU      9.74s WALL (     441 calls)
     ffts         :      0.04s CPU      0.04s WALL (      13 calls)
     fftw         :      0.64s CPU      0.64s WALL (     286 calls)
     interpolate  :      0.39s CPU      0.42s WALL (      13 calls)
     davcio       :      0.00s CPU      0.00s WALL (       1 calls)
 
     Parallel routines
     fft_scatter  :      2.38s CPU      2.73s WALL (     740 calls)
 
     Environ routines
     calc_eelect  :      0.02s CPU      0.02s WALL (      12 calls)
     calc_velect  :      8.76s CPU      9.78s WALL (      10 calls)
     dielectric   :      0.37s CPU      0.37s WALL (       8 calls)
     calc_felect  :      0.08s CPU      0.08s WALL (       1 calls)
 
     PWSCF        :    27.89s CPU        30.11s WALL

 
   This run was terminated on:  22:27:35  31Jan2018            

=------------------------------------------------------------------------------=
   JOB DONE.
=------------------------------------------------------------------------------=

%%%% IONS %%%%%%%%%%%%%%%%%%%%%%%%%%%%%%%%%%%%%%%%%%%%%%%%%%%%%%%%%%%%%%%%%%%%%%
 number of ions             =         10
 ionic center of charge     =      0.0095530    -0.0000002     0.0063981
 total ionic charge         =    -25.0000000
 ionic dipole               =      0.0000000     0.0000000     0.0000000
 ionic quadrupole (pc)      =    -79.0828058    -5.4513517  -105.8059629
 ionic quadrupole (gauss)   =    -82.2078058    -8.5763517  -108.9309629
 ion   1 type =  1 coordinates =      0.0000000     0.0000000     0.0000000
 ion   2 type =  1 coordinates =      0.0000000     0.0000000     2.9101782
 ion   3 type =  3 coordinates =      2.3419379     0.0000000    -1.0900479
 ion   4 type =  2 coordinates =      0.9532347    -1.6509323     3.5841800
 ion   5 type =  2 coordinates =     -1.9063663    -0.0000596     3.5841809
 ion   6 type =  2 coordinates =      0.9531315     1.6509919     3.5841800
 ion   7 type =  4 coordinates =     -1.9680045    -0.0000375    -1.2826193
 ion   8 type =  2 coordinates =      2.5262613    -0.0000303    -2.9510950
 ion   9 type =  2 coordinates =      3.8892907     0.0002681    -0.0514326
 ion  10 type =  2 coordinates =     -1.5407317    -0.0000890    -3.0457220

%%%% SYSTEM %%%%%%%%%%%%%%%%%%%%%%%%%%%%%%%%%%%%%%%%%%%%%%%%%%%%%%%%%%%%%%%%%%%%
 system is built from all present ionic types
 system defined dimension   =  0 
 system defined axis        =  3 
 system center              =      0.0095530    -0.0000002     0.0063981 
 system width               =      0.2021425 

%%%% ELECTRONS %%%%%%%%%%%%%%%%%%%%%%%%%%%%%%%%%%%%%%%%%%%%%%%%%%%%%%%%%%%%%%%%%
 number of electrons        =         24
 total electronic charge    =     24.0000000
 number of spin components  =  1

%%%% BOUNDARY %%%%%%%%%%%%%%%%%%%%%%%%%%%%%%%%%%%%%%%%%%%%%%%%%%%%%%%%%%%%%%%%%%
 boundary mode              = electronic           
 boundary is built as a function of a smooth density
 function type              =  2 
 using the modified SCCS function with parameters 
 rhomax                     =      0.0035000 
 rhomin                     =      0.0002000 
 volume of the QM region    =   1944.2296171 
 surface of the QM region   =    751.7453187 

%%%% DIELECTRIC %%%%%%%%%%%%%%%%%%%%%%%%%%%%%%%%%%%%%%%%%%%%%%%%%%%%%%%%%%%%%%%%%
 dielectric build on homogeneous background
 environment bulk permitt.  =     78.3000000 
 dielectric flags
 need gradient              =  F 
 need factor depend. sqrt   =  T 
 total dielectric charge    =      0.0000000

%%%% ELECTRONS %%%%%%%%%%%%%%%%%%%%%%%%%%%%%%%%%%%%%%%%%%%%%%%%%%%%%%%%%%%%%%%%%
 number of electrons        =         24
 total electronic charge    =     24.0000000
 number of spin components  =  1

%%%% BOUNDARY %%%%%%%%%%%%%%%%%%%%%%%%%%%%%%%%%%%%%%%%%%%%%%%%%%%%%%%%%%%%%%%%%%
 boundary mode              = electronic           
 boundary is built as a function of a smooth density
 function type              =  2 
 using the modified SCCS function with parameters 
 rhomax                     =      0.0035000 
 rhomin                     =      0.0002000 
 volume of the QM region    =    743.4724281 
 surface of the QM region   =    413.7010027 

%%%% DIELECTRIC %%%%%%%%%%%%%%%%%%%%%%%%%%%%%%%%%%%%%%%%%%%%%%%%%%%%%%%%%%%%%%%%%
 dielectric build on homogeneous background
 environment bulk permitt.  =     78.3000000 
 dielectric flags
 need gradient              =  F 
 need factor depend. sqrt   =  T 
 total dielectric charge    =      0.0000000

%%%% COMPUTE ELECTROSTATIC POTENTIAL %%%%%%%%%%%%%%%%%%%%%%%%%%%%%%%%%%%%%%%%%%%
 Iteration #          1
  pAp =    92.6250648322383       rzold =    89.1130412800715       alpha = 
  0.962083442980281     
 delta_qm =   0.220350E-01 delta_en =   0.839014E+03 tol =   0.100000E-04
 Iteration #          2
  pAp =    250.998423421232       rzold =    27.0585860161958       alpha = 
  0.107803808674867     
 delta_qm =   0.409867E-02 delta_en =   0.290289E+02 tol =   0.100000E-04
 Iteration #          3
  pAp =    1.65005258440936       rzold =   0.295085837133355       alpha = 
  0.178834201965134     
 delta_qm =   0.172624E-02 delta_en =   0.514929E+01 tol =   0.100000E-04
 Iteration #          4
  pAp =   0.194432860200437       rzold =   3.317737231025410E-002  alpha = 
  0.170636652035320     
 delta_qm =   0.127132E-02 delta_en =   0.279289E+01 tol =   0.100000E-04
 Iteration #          5
  pAp =   1.720659419083512E-002  rzold =   5.073894946256954E-003  alpha = 
  0.294880839867747     
 delta_qm =   0.834449E-03 delta_en =   0.120322E+01 tol =   0.100000E-04
 Iteration #          6
  pAp =   5.080956633552099E-003  rzold =   2.042239680613404E-003  alpha = 
  0.401939994356077     
 delta_qm =   0.401672E-03 delta_en =   0.278796E+00 tol =   0.100000E-04
 Iteration #          7
  pAp =   1.460737307048675E-003  rzold =   5.667749398407401E-004  alpha = 
  0.388006068651640     
 delta_qm =   0.262627E-03 delta_en =   0.119185E+00 tol =   0.100000E-04
 Iteration #          8
  pAp =   1.286860989811228E-003  rzold =   3.447674651438768E-004  alpha = 
  0.267913525915842     
 delta_qm =   0.179812E-03 delta_en =   0.558704E-01 tol =   0.100000E-04
 Iteration #          9
  pAp =   6.176940949685514E-004  rzold =   2.254171651537050E-004  alpha = 
  0.364933333489584     
 delta_qm =   0.102912E-03 delta_en =   0.183009E-01 tol =   0.100000E-04
 Iteration #         10
  pAp =   2.338731060751368E-004  rzold =   8.792043057759482E-005  alpha = 
  0.375932196963889     
 delta_qm =   0.428483E-04 delta_en =   0.317256E-02 tol =   0.100000E-04
 Iteration #         11
  pAp =   2.655019172720496E-005  rzold =   1.047306626689378E-005  alpha = 
  0.394462924204138     
 delta_qm =   0.228817E-04 delta_en =   0.904732E-03 tol =   0.100000E-04
 Iteration #         12
  pAp =   2.811714140125774E-006  rzold =   1.203997933219831E-006  alpha = 
  0.428207802506543     
 delta_qm =   0.158960E-04 delta_en =   0.436634E-03 tol =   0.100000E-04
 Iteration #         13
  pAp =   1.227868360493551E-006  rzold =   5.183758146287182E-007  alpha = 
  0.422175398688792     
 delta_qm =   0.101158E-04 delta_en =   0.176825E-03 tol =   0.100000E-04
 Iteration #         14
  pAp =   1.092496169337714E-006  rzold =   4.040470016372233E-007  alpha = 
  0.369838369211090     
 delta_qm =   0.681973E-05 delta_en =   0.803671E-04 tol =   0.100000E-04
 Iteration #         15
  pAp =   4.003581958244274E-007  rzold =   1.666451980796341E-007  alpha = 
  0.416240256394587     
 delta_qm =   0.468784E-05 delta_en =   0.379742E-04 tol =   0.100000E-04
 Iteration #         16
  pAp =   1.665652217096168E-007  rzold =   6.672205348004991E-008  alpha = 
  0.400576139455873     
 delta_qm =   0.263859E-05 delta_en =   0.120306E-04 tol =   0.100000E-04
 Iteration #         17
  pAp =   3.888278997820602E-008  rzold =   1.734039999548975E-008  alpha = 
  0.445965940335277     
 delta_qm =   0.113131E-05 delta_en =   0.221161E-05 tol =   0.100000E-04
 Charges are converged, EXIT

%%%% ELECTRONS %%%%%%%%%%%%%%%%%%%%%%%%%%%%%%%%%%%%%%%%%%%%%%%%%%%%%%%%%%%%%%%%%
 number of electrons        =         24
 total electronic charge    =     24.0000000
 number of spin components  =  1

%%%% BOUNDARY %%%%%%%%%%%%%%%%%%%%%%%%%%%%%%%%%%%%%%%%%%%%%%%%%%%%%%%%%%%%%%%%%%
 boundary mode              = electronic           
 boundary is built as a function of a smooth density
 function type              =  2 
 using the modified SCCS function with parameters 
 rhomax                     =      0.0035000 
 rhomin                     =      0.0002000 
 volume of the QM region    =    703.0574658 
 surface of the QM region   =    404.2242840 

%%%% DIELECTRIC %%%%%%%%%%%%%%%%%%%%%%%%%%%%%%%%%%%%%%%%%%%%%%%%%%%%%%%%%%%%%%%%%
 dielectric build on homogeneous background
 environment bulk permitt.  =     78.3000000 
 dielectric flags
 need gradient              =  F 
 need factor depend. sqrt   =  T 
 total dielectric charge    =      0.9784750

%%%% COMPUTE ELECTROSTATIC POTENTIAL %%%%%%%%%%%%%%%%%%%%%%%%%%%%%%%%%%%%%%%%%%%
 Warning: bad guess with residual norm =   0.154355E+04, reset to no guess
 Iteration #          1
  pAp =    95.9965370157615       rzold =    92.7115968307591       alpha = 
  0.965780638686341     
 delta_qm =   0.289621E-01 delta_en =   0.144946E+04 tol =   0.100000E-04
 Iteration #          2
  pAp =    309.115792909324       rzold =    29.3992594471824       alpha = 
  9.510759437582790E-002
 delta_qm =   0.507153E-02 delta_en =   0.444450E+02 tol =   0.100000E-04
 Iteration #          3
  pAp =    2.09604392542295       rzold =   0.301204823854425       alpha = 
  0.143701580010374     
 delta_qm =   0.222218E-02 delta_en =   0.853301E+01 tol =   0.100000E-04
 Iteration #          4
  pAp =   0.205758016962655       rzold =   3.071409388446934E-002  alpha = 
  0.149272890251678     
 delta_qm =   0.175165E-02 delta_en =   0.530201E+01 tol =   0.100000E-04
 Iteration #          5
  pAp =   1.522520226118386E-002  rzold =   4.715670994434840E-003  alpha = 
  0.309727970344097     
 delta_qm =   0.118521E-02 delta_en =   0.242738E+01 tol =   0.100000E-04
 Iteration #          6
  pAp =   6.543686814763334E-003  rzold =   2.385571104437698E-003  alpha = 
  0.364560708965406     
 delta_qm =   0.654767E-03 delta_en =   0.740828E+00 tol =   0.100000E-04
 Iteration #          7
  pAp =   2.073080349442319E-003  rzold =   8.165906673071324E-004  alpha = 
  0.393902082727669     
 delta_qm =   0.456891E-03 delta_en =   0.360718E+00 tol =   0.100000E-04
 Iteration #          8
  pAp =   1.119531566467994E-003  rzold =   4.620111617673775E-004  alpha = 
  0.412682567964541     
 delta_qm =   0.268579E-03 delta_en =   0.124649E+00 tol =   0.100000E-04
 Iteration #          9
  pAp =   2.000460199278803E-003  rzold =   4.624237518764859E-004  alpha = 
  0.231158686407856     
 delta_qm =   0.203660E-03 delta_en =   0.716730E-01 tol =   0.100000E-04
 Iteration #         10
  pAp =   8.188162476775886E-004  rzold =   2.498057283224269E-004  alpha = 
  0.305081547943085     
 delta_qm =   0.829405E-04 delta_en =   0.118871E-01 tol =   0.100000E-04
 Iteration #         11
  pAp =   8.452462466901463E-005  rzold =   2.974242601027283E-005  alpha = 
  0.351878829710745     
 delta_qm =   0.489069E-04 delta_en =   0.413317E-02 tol =   0.100000E-04
 Iteration #         12
  pAp =   1.994464741974636E-005  rzold =   5.776423871623506E-006  alpha = 
  0.289622761939853     
 delta_qm =   0.358934E-04 delta_en =   0.222625E-02 tol =   0.100000E-04
 Iteration #         13
  pAp =   3.740212563836998E-006  rzold =   1.635014587110877E-006  alpha = 
  0.437144830462136     
 delta_qm =   0.236303E-04 delta_en =   0.964902E-03 tol =   0.100000E-04
 Iteration #         14
  pAp =   2.788960111773624E-006  rzold =   1.087635392767033E-006  alpha = 
  0.389978826938245     
 delta_qm =   0.168665E-04 delta_en =   0.491579E-03 tol =   0.100000E-04
 Iteration #         15
  pAp =   1.750156263517424E-006  rzold =   6.332969499073443E-007  alpha = 
  0.361851660396631     
 delta_qm =   0.121609E-04 delta_en =   0.255550E-03 tol =   0.100000E-04
 Iteration #         16
  pAp =   9.564350035011018E-007  rzold =   3.106508302102030E-007  alpha = 
  0.324800774828444     
 delta_qm =   0.854479E-05 delta_en =   0.126167E-03 tol =   0.100000E-04
 Iteration #         17
  pAp =   5.585315333911266E-007  rzold =   1.550676097356827E-007  alpha = 
  0.277634476238412     
 delta_qm =   0.577207E-05 delta_en =   0.575714E-04 tol =   0.100000E-04
 Iteration #         18
  pAp =   1.209237796925828E-007  rzold =   5.181362973391673E-008  alpha = 
  0.428481725146529     
 delta_qm =   0.322870E-05 delta_en =   0.180136E-04 tol =   0.100000E-04
 Iteration #         19
  pAp =   3.023678800705040E-008  rzold =   1.473380034855014E-008  alpha = 
  0.487280604841844     
 delta_qm =   0.210084E-05 delta_en =   0.762656E-05 tol =   0.100000E-04
 Charges are converged, EXIT

%%%% ELECTRONS %%%%%%%%%%%%%%%%%%%%%%%%%%%%%%%%%%%%%%%%%%%%%%%%%%%%%%%%%%%%%%%%%
 number of electrons        =         24
 total electronic charge    =     24.0000000
 number of spin components  =  1

%%%% BOUNDARY %%%%%%%%%%%%%%%%%%%%%%%%%%%%%%%%%%%%%%%%%%%%%%%%%%%%%%%%%%%%%%%%%%
 boundary mode              = electronic           
 boundary is built as a function of a smooth density
 function type              =  2 
 using the modified SCCS function with parameters 
 rhomax                     =      0.0035000 
 rhomin                     =      0.0002000 
 volume of the QM region    =    662.9786285 
 surface of the QM region   =    392.2522376 

%%%% DIELECTRIC %%%%%%%%%%%%%%%%%%%%%%%%%%%%%%%%%%%%%%%%%%%%%%%%%%%%%%%%%%%%%%%%%
 dielectric build on homogeneous background
 environment bulk permitt.  =     78.3000000 
 dielectric flags
 need gradient              =  F 
 need factor depend. sqrt   =  T 
 total dielectric charge    =      0.9778965

%%%% COMPUTE ELECTROSTATIC POTENTIAL %%%%%%%%%%%%%%%%%%%%%%%%%%%%%%%%%%%%%%%%%%%
 Warning: bad guess with residual norm =   0.223952E+04, reset to no guess
 Iteration #          1
  pAp =    96.4514183568847       rzold =    93.3753819369691       alpha = 
  0.968107919278762     
 delta_qm =   0.349229E-01 delta_en =   0.210749E+04 tol =   0.100000E-04
 Iteration #          2
  pAp =    380.938716584319       rzold =    31.7886668590789       alpha = 
  8.344824370731209E-002
 delta_qm =   0.580380E-02 delta_en =   0.582061E+02 tol =   0.100000E-04
 Iteration #          3
  pAp =    2.15037210475992       rzold =   0.320497457568565       alpha = 
  0.149042789784676     
 delta_qm =   0.238985E-02 delta_en =   0.986925E+01 tol =   0.100000E-04
 Iteration #          4
  pAp =   0.165081030771426       rzold =   2.396178935166642E-002  alpha = 
  0.145151682417372     
 delta_qm =   0.189617E-02 delta_en =   0.621296E+01 tol =   0.100000E-04
 Iteration #          5
  pAp =   2.502785709587579E-002  rzold =   5.537775340191928E-003  alpha = 
  0.221264462194187     
 delta_qm =   0.141713E-02 delta_en =   0.347025E+01 tol =   0.100000E-04
 Iteration #          6
  pAp =   7.617420637683085E-003  rzold =   2.513202925237517E-003  alpha = 
  0.329928337264822     
 delta_qm =   0.861239E-03 delta_en =   0.128171E+01 tol =   0.100000E-04
 Iteration #          7
  pAp =   2.968721567945563E-003  rzold =   1.078358689207011E-003  alpha = 
  0.363240089892723     
 delta_qm =   0.592053E-03 delta_en =   0.605710E+00 tol =   0.100000E-04
 Iteration #          8
  pAp =   1.317768786676044E-003  rzold =   5.509894764828120E-004  alpha = 
  0.418123028906030     
 delta_qm =   0.377541E-03 delta_en =   0.246304E+00 tol =   0.100000E-04
 Iteration #          9
  pAp =   1.394438437619764E-003  rzold =   4.509127138034418E-004  alpha = 
  0.323365092096233     
 delta_qm =   0.306379E-03 delta_en =   0.162204E+00 tol =   0.100000E-04
 Iteration #         10
  pAp =   2.480753914796464E-003  rzold =   5.036220695897154E-004  alpha = 
  0.203011700026294     
 delta_qm =   0.142735E-03 delta_en =   0.352050E-01 tol =   0.100000E-04
 Iteration #         11
  pAp =   3.740263007166280E-004  rzold =   1.045820230080966E-004  alpha = 
  0.279611414512079     
 delta_qm =   0.889792E-04 delta_en =   0.136811E-01 tol =   0.100000E-04
 Iteration #         12
  pAp =   1.375255711627246E-004  rzold =   3.091489605517297E-005  alpha = 
  0.224793802300181     
 delta_qm =   0.620877E-04 delta_en =   0.666124E-02 tol =   0.100000E-04
 Iteration #         13
  pAp =   1.472126952208962E-005  rzold =   5.028887782128925E-006  alpha = 
  0.341606936452251     
 delta_qm =   0.431069E-04 delta_en =   0.321097E-02 tol =   0.100000E-04
 Iteration #         14
  pAp =   5.516597230787799E-006  rzold =   2.231354897096584E-006  alpha = 
  0.404480298950144     
 delta_qm =   0.316874E-04 delta_en =   0.173507E-02 tol =   0.100000E-04
 Iteration #         15
  pAp =   2.582881198741513E-006  rzold =   1.208915776714831E-006  alpha = 
  0.468049315355219     
 delta_qm =   0.186821E-04 delta_en =   0.603109E-03 tol =   0.100000E-04
 Iteration #         16
  pAp =   1.737903446930558E-006  rzold =   6.606512134463944E-007  alpha = 
  0.380142645216120     
 delta_qm =   0.127951E-04 delta_en =   0.282897E-03 tol =   0.100000E-04
 Iteration #         17
  pAp =   5.018801183593957E-007  rzold =   2.049709061230764E-007  alpha = 
  0.408406108600415     
 delta_qm =   0.794134E-05 delta_en =   0.108976E-03 tol =   0.100000E-04
 Iteration #         18
  pAp =   4.605434800999587E-007  rzold =   1.017460383433263E-007  alpha = 
  0.220926020538262     
 delta_qm =   0.561965E-05 delta_en =   0.545710E-04 tol =   0.100000E-04
 Iteration #         19
  pAp =   1.460969595394214E-007  rzold =   4.957282491420349E-008  alpha = 
  0.339314555692908     
 delta_qm =   0.348922E-05 delta_en =   0.210378E-04 tol =   0.100000E-04
 Iteration #         20
  pAp =   2.323030115962870E-008  rzold =   1.125328750851089E-008  alpha = 
  0.484422798963436     
 delta_qm =   0.249383E-05 delta_en =   0.107468E-04 tol =   0.100000E-04
 Iteration #         21
  pAp =   1.203554996859110E-008  rzold =   6.150038032217247E-009  alpha = 
  0.510989364695993     
 delta_qm =   0.161254E-05 delta_en =   0.449327E-05 tol =   0.100000E-04
 Charges are converged, EXIT

%%%% ELECTRONS %%%%%%%%%%%%%%%%%%%%%%%%%%%%%%%%%%%%%%%%%%%%%%%%%%%%%%%%%%%%%%%%%
 number of electrons        =         24
 total electronic charge    =     24.0000000
 number of spin components  =  1

%%%% BOUNDARY %%%%%%%%%%%%%%%%%%%%%%%%%%%%%%%%%%%%%%%%%%%%%%%%%%%%%%%%%%%%%%%%%%
 boundary mode              = electronic           
 boundary is built as a function of a smooth density
 function type              =  2 
 using the modified SCCS function with parameters 
 rhomax                     =      0.0035000 
 rhomin                     =      0.0002000 
 volume of the QM region    =    640.4137331 
 surface of the QM region   =    385.8466390 

%%%% DIELECTRIC %%%%%%%%%%%%%%%%%%%%%%%%%%%%%%%%%%%%%%%%%%%%%%%%%%%%%%%%%%%%%%%%%
 dielectric build on homogeneous background
 environment bulk permitt.  =     78.3000000 
 dielectric flags
 need gradient              =  F 
 need factor depend. sqrt   =  T 
 total dielectric charge    =      0.9786288

%%%% COMPUTE ELECTROSTATIC POTENTIAL %%%%%%%%%%%%%%%%%%%%%%%%%%%%%%%%%%%%%%%%%%%
 Warning: bad guess with residual norm =   0.327503E+04, reset to no guess
 Iteration #          1
  pAp =    96.3498362920394       rzold =    93.2619985780214       alpha = 
  0.967951811514670     
 delta_qm =   0.421987E-01 delta_en =   0.307710E+04 tol =   0.100000E-04
 Iteration #          2
  pAp =    442.167833148007       rzold =    34.3539132197681       alpha = 
  7.769428403505971E-002
 delta_qm =   0.691037E-02 delta_en =   0.825176E+02 tol =   0.100000E-04
 Iteration #          3
  pAp =    2.97453085680210       rzold =   0.409829469934384       alpha = 
  0.137779532189822     
 delta_qm =   0.264906E-02 delta_en =   0.121263E+02 tol =   0.100000E-04
 Iteration #          4
  pAp =   0.218480507157586       rzold =   2.982278337362694E-002  alpha = 
  0.136500888622143     
 delta_qm =   0.213063E-02 delta_en =   0.784441E+01 tol =   0.100000E-04
 Iteration #          5
  pAp =   3.410164810165697E-002  rzold =   6.624752970217820E-003  alpha = 
  0.194264891552146     
 delta_qm =   0.161395E-02 delta_en =   0.450117E+01 tol =   0.100000E-04
 Iteration #          6
  pAp =   8.641873909077802E-003  rzold =   2.670935015898739E-003  alpha = 
  0.309068963977023     
 delta_qm =   0.104453E-02 delta_en =   0.188534E+01 tol =   0.100000E-04
 Iteration #          7
  pAp =   3.751368108362743E-003  rzold =   1.263020674393859E-003  alpha = 
  0.336682681600419     
 delta_qm =   0.765838E-03 delta_en =   0.101349E+01 tol =   0.100000E-04
 Iteration #          8
  pAp =   2.184231123548508E-003  rzold =   6.693493313698975E-004  alpha = 
  0.306446201664992     
 delta_qm =   0.501429E-03 delta_en =   0.434472E+00 tol =   0.100000E-04
 Iteration #          9
  pAp =   2.946494006545237E-003  rzold =   6.720802944480670E-004  alpha = 
  0.228094913125610     
 delta_qm =   0.469790E-03 delta_en =   0.381373E+00 tol =   0.100000E-04
 Iteration #         10
  pAp =   1.435688801585914E-003  rzold =   5.167378644024462E-004  alpha = 
  0.359923309168142     
 delta_qm =   0.221974E-03 delta_en =   0.851429E-01 tol =   0.100000E-04
 Iteration #         11
  pAp =   6.465995346146527E-004  rzold =   1.893185801525469E-004  alpha = 
  0.292791086318015     
 delta_qm =   0.138492E-03 delta_en =   0.331431E-01 tol =   0.100000E-04
 Iteration #         12
  pAp =   2.990927274236941E-004  rzold =   6.556733735696398E-005  alpha = 
  0.219220767825897     
 delta_qm =   0.989584E-04 delta_en =   0.169219E-01 tol =   0.100000E-04
 Iteration #         13
  pAp =   3.716400509015338E-005  rzold =   1.123737035829556E-005  alpha = 
  0.302372425443266     
 delta_qm =   0.721734E-04 delta_en =   0.900114E-02 tol =   0.100000E-04
 Iteration #         14
  pAp =   1.245158186163682E-005  rzold =   4.734153754615552E-006  alpha = 
  0.380205005855636     
 delta_qm =   0.561034E-04 delta_en =   0.543905E-02 tol =   0.100000E-04
 Iteration #         15
  pAp =   5.620877052198644E-006  rzold =   2.674879345258424E-006  alpha = 
  0.475882913007700     
 delta_qm =   0.327175E-04 delta_en =   0.184971E-02 tol =   0.100000E-04
 Iteration #         16
  pAp =   4.806315775663199E-006  rzold =   1.798515528803185E-006  alpha = 
  0.374198369967695     
 delta_qm =   0.226525E-04 delta_en =   0.886702E-03 tol =   0.100000E-04
 Iteration #         17
  pAp =   1.652476953110391E-006  rzold =   5.827804708265670E-007  alpha = 
  0.352670861599384     
 delta_qm =   0.155547E-04 delta_en =   0.418086E-03 tol =   0.100000E-04
 Iteration #         18
  pAp =   1.850152535469878E-006  rzold =   3.570050844711728E-007  alpha = 
  0.192959811489546     
 delta_qm =   0.109974E-04 delta_en =   0.208989E-03 tol =   0.100000E-04
 Iteration #         19
  pAp =   3.364165198008801E-007  rzold =   1.244688304869700E-007  alpha = 
  0.369984299702765     
 delta_qm =   0.621604E-05 delta_en =   0.667684E-04 tol =   0.100000E-04
 Iteration #         20
  pAp =   8.268881553272209E-008  rzold =   3.360014145314149E-008  alpha = 
  0.406344452229396     
 delta_qm =   0.441039E-05 delta_en =   0.336123E-04 tol =   0.100000E-04
 Iteration #         21
  pAp =   3.060679616345472E-008  rzold =   1.487293516797657E-008  alpha = 
  0.485935708152793     
 delta_qm =   0.301120E-05 delta_en =   0.156683E-04 tol =   0.100000E-04
 Iteration #         22
  pAp =   1.082662377467539E-008  rzold =   6.716920727808361E-009  alpha = 
  0.620407697505841     
 delta_qm =   0.149985E-05 delta_en =   0.388723E-05 tol =   0.100000E-04
 Charges are converged, EXIT

%%%% ELECTRONS %%%%%%%%%%%%%%%%%%%%%%%%%%%%%%%%%%%%%%%%%%%%%%%%%%%%%%%%%%%%%%%%%
 number of electrons        =         23
 total electronic charge    =     24.0000000
 number of spin components  =  1

%%%% BOUNDARY %%%%%%%%%%%%%%%%%%%%%%%%%%%%%%%%%%%%%%%%%%%%%%%%%%%%%%%%%%%%%%%%%%
 boundary mode              = electronic           
 boundary is built as a function of a smooth density
 function type              =  2 
 using the modified SCCS function with parameters 
 rhomax                     =      0.0035000 
 rhomin                     =      0.0002000 
 volume of the QM region    =    640.9918493 
 surface of the QM region   =    386.3656124 

%%%% DIELECTRIC %%%%%%%%%%%%%%%%%%%%%%%%%%%%%%%%%%%%%%%%%%%%%%%%%%%%%%%%%%%%%%%%%
 dielectric build on homogeneous background
 environment bulk permitt.  =     78.3000000 
 dielectric flags
 need gradient              =  F 
 need factor depend. sqrt   =  T 
 total dielectric charge    =      0.9792022

%%%% COMPUTE ELECTROSTATIC POTENTIAL %%%%%%%%%%%%%%%%%%%%%%%%%%%%%%%%%%%%%%%%%%%
 Warning: bad guess with residual norm =   0.341081E+04, reset to no guess
 Iteration #          1
  pAp =    96.4233538391915       rzold =    93.3435992708838       alpha = 
  0.968060076260738     
 delta_qm =   0.430666E-01 delta_en =   0.320498E+04 tol =   0.100000E-04
 Iteration #          2
  pAp =    443.253607867626       rzold =    34.3260679535436       alpha = 
  7.744114733476637E-002
 delta_qm =   0.721752E-02 delta_en =   0.900160E+02 tol =   0.100000E-04
 Iteration #          3
  pAp =    3.16943653400634       rzold =   0.436570624134145       alpha = 
  0.137743923706936     
 delta_qm =   0.268460E-02 delta_en =   0.124538E+02 tol =   0.100000E-04
 Iteration #          4
  pAp =   0.213219182064554       rzold =   2.956214353628622E-002  alpha = 
  0.138646735486191     
 delta_qm =   0.216203E-02 delta_en =   0.807731E+01 tol =   0.100000E-04
 Iteration #          5
  pAp =   3.547862733745365E-002  rzold =   6.705564472258830E-003  alpha = 
  0.189002928678133     
 delta_qm =   0.164562E-02 delta_en =   0.467954E+01 tol =   0.100000E-04
 Iteration #          6
  pAp =   8.945692228889870E-003  rzold =   2.735760332427888E-003  alpha = 
  0.305818740733425     
 delta_qm =   0.106983E-02 delta_en =   0.197777E+01 tol =   0.100000E-04
 Iteration #          7
  pAp =   3.858522722161407E-003  rzold =   1.286886287681074E-003  alpha = 
  0.333517872083492     
 delta_qm =   0.789483E-03 delta_en =   0.107703E+01 tol =   0.100000E-04
 Iteration #          8
  pAp =   2.134569431791248E-003  rzold =   6.748385754159925E-004  alpha = 
  0.316147399735643     
 delta_qm =   0.518090E-03 delta_en =   0.463824E+00 tol =   0.100000E-04
 Iteration #          9
  pAp =   2.986536767507344E-003  rzold =   6.746884591988148E-004  alpha = 
  0.225909979257322     
 delta_qm =   0.491462E-03 delta_en =   0.417372E+00 tol =   0.100000E-04
 Iteration #         10
  pAp =   1.537443070929337E-003  rzold =   5.410973767116926E-004  alpha = 
  0.351946284674213     
 delta_qm =   0.232500E-03 delta_en =   0.934094E-01 tol =   0.100000E-04
 Iteration #         11
  pAp =   6.811207301403999E-004  rzold =   1.999029765708986E-004  alpha = 
  0.293491253055376     
 delta_qm =   0.145547E-03 delta_en =   0.366060E-01 tol =   0.100000E-04
 Iteration #         12
  pAp =   3.195801773899038E-004  rzold =   7.031777091048739E-005  alpha = 
  0.220031703733289     
 delta_qm =   0.103695E-03 delta_en =   0.185806E-01 tol =   0.100000E-04
 Iteration #         13
  pAp =   4.096974559817626E-005  rzold =   1.218498195937847E-005  alpha = 
  0.297414147475714     
 delta_qm =   0.760735E-04 delta_en =   0.100002E-01 tol =   0.100000E-04
 Iteration #         14
  pAp =   1.356528772397859E-005  rzold =   5.143403813939911E-006  alpha = 
  0.379159212734442     
 delta_qm =   0.597192E-04 delta_en =   0.616272E-02 tol =   0.100000E-04
 Iteration #         15
  pAp =   6.073914466274370E-006  rzold =   2.896040451335147E-006  alpha = 
  0.476799676290392     
 delta_qm =   0.348235E-04 delta_en =   0.209550E-02 tol =   0.100000E-04
 Iteration #         16
  pAp =   5.174032665115705E-006  rzold =   1.974168591774954E-006  alpha = 
  0.381553175163576     
 delta_qm =   0.239853E-04 delta_en =   0.994107E-03 tol =   0.100000E-04
 Iteration #         17
  pAp =   1.470739067373855E-006  rzold =   6.060805990428948E-007  alpha = 
  0.412092540742193     
 delta_qm =   0.152182E-04 delta_en =   0.400191E-03 tol =   0.100000E-04
 Iteration #         18
  pAp =   8.911270880286745E-007  rzold =   2.321919413075303E-007  alpha = 
  0.260559851032223     
 delta_qm =   0.104532E-04 delta_en =   0.188818E-03 tol =   0.100000E-04
 Iteration #         19
  pAp =   6.776935469203750E-007  rzold =   1.615919935886823E-007  alpha = 
  0.238444049412896     
 delta_qm =   0.662190E-05 delta_en =   0.757720E-04 tol =   0.100000E-04
 Iteration #         20
  pAp =   9.807011379349098E-008  rzold =   3.811770796234087E-008  alpha = 
  0.388678125148365     
 delta_qm =   0.471945E-05 delta_en =   0.384881E-04 tol =   0.100000E-04
 Iteration #         21
  pAp =   3.462323467097265E-008  rzold =   1.654229215668759E-008  alpha = 
  0.477780089407888     
 delta_qm =   0.321683E-05 delta_en =   0.178814E-04 tol =   0.100000E-04
 Iteration #         22
  pAp =   1.200702049812939E-008  rzold =   7.444021423632691E-009  alpha = 
  0.619972409041229     
 delta_qm =   0.163033E-05 delta_en =   0.459298E-05 tol =   0.100000E-04
 Charges are converged, EXIT

%%%% ELECTRONS %%%%%%%%%%%%%%%%%%%%%%%%%%%%%%%%%%%%%%%%%%%%%%%%%%%%%%%%%%%%%%%%%
 number of electrons        =         23
 total electronic charge    =     24.0000000
 number of spin components  =  1

%%%% BOUNDARY %%%%%%%%%%%%%%%%%%%%%%%%%%%%%%%%%%%%%%%%%%%%%%%%%%%%%%%%%%%%%%%%%%
 boundary mode              = electronic           
 boundary is built as a function of a smooth density
 function type              =  2 
 using the modified SCCS function with parameters 
 rhomax                     =      0.0035000 
 rhomin                     =      0.0002000 
 volume of the QM region    =    640.9918493 
 surface of the QM region   =    386.3656124 

%%%% DIELECTRIC %%%%%%%%%%%%%%%%%%%%%%%%%%%%%%%%%%%%%%%%%%%%%%%%%%%%%%%%%%%%%%%%%
 dielectric build on homogeneous background
 environment bulk permitt.  =     78.3000000 
 dielectric flags
 need gradient              =  F 
 need factor depend. sqrt   =  T 
 total dielectric charge    =      0.9795593
