
     Program PWSCF v.6.1 (svn rev. 13369) starts on 31Jan2018 at 22:29: 1 

     This program is part of the open-source Quantum ESPRESSO suite
     for quantum simulation of materials; please cite
         "P. Giannozzi et al., J. Phys.:Condens. Matter 21 395502 (2009);
          URL http://www.quantum-espresso.org", 
     in publications or presentations arising from this work. More details at
     http://www.quantum-espresso.org/quote

     Parallel version (MPI), running on     1 processors
     Reading input from anion.in

     Current dimensions of program PWSCF are:
     Max number of different atomic species (ntypx) = 10
     Max number of k-points (npk) =  40000
     Max angular momentum in pseudopotentials (lmaxx) =  3
               file C.pbe-rrkjus.UPF: wavefunction(s)  2S 2P renormalized
               file H.pbe-rrkjus.UPF: wavefunction(s)  1S renormalized
               file N.pbe-rrkjus.UPF: wavefunction(s)  2S renormalized
               file O.pbe-rrkjus.UPF: wavefunction(s)  2S renormalized

     gamma-point specific algorithms are used

     Subspace diagonalization in iterative solution of the eigenvalue problem:
     a serial algorithm will be used

 
     G-vector sticks info
     --------------------
     sticks:   dense  smooth     PW     G-vecs:    dense   smooth      PW
     Sum        9549    3809    949               701475   177509   22119
 


     bravais-lattice index     =            1
     lattice parameter (alat)  =      20.0000  a.u.
     unit-cell volume          =    8000.0000 (a.u.)^3
     number of atoms/cell      =            8
     number of atomic types    =            4
     number of electrons       =        24.00
     number of Kohn-Sham states=           12
     kinetic-energy cutoff     =      30.0000  Ry
     charge density cutoff     =     300.0000  Ry
     convergence threshold     =      1.0E-03
     mixing beta               =       0.7000
     number of iterations used =            8  plain     mixing
     Exchange-correlation      =  SLA  PW   PBE  PBE ( 1  4  3  4 0 0)
 

     Environ Module
     ==============

     Plese cite
         O. Andreussi, I. Dabo and N. Marzari, J. Chem. Phys. 136, 064102 (2012)         
     in publications or presentations arising from this work.

     compensation onset threshold      =               0.1000E+03 
     static permittivity               =                    78.30 
     epsilon calculation mode          =               electronic 
     external pressure in input (GPa)  =                     0.45 
     external pressure in inter. units =               0.3059E-04 

     Electrostatic Setup
     -------------------
     electrostatic problem to solve    = generalized              
     numerical solver adopted          = cg                       
     type of auxiliary density adopted = none                     
     type of core tool for poisson     = fft                      
     type of core tool for s(r) deriv  = analytic                 



     celldm(1)=  20.000000  celldm(2)=   0.000000  celldm(3)=   0.000000
     celldm(4)=   0.000000  celldm(5)=   0.000000  celldm(6)=   0.000000

     crystal axes: (cart. coord. in units of alat)
               a(1) = (   1.000000   0.000000   0.000000 )  
               a(2) = (   0.000000   1.000000   0.000000 )  
               a(3) = (   0.000000   0.000000   1.000000 )  

     reciprocal axes: (cart. coord. in units 2 pi/alat)
               b(1) = (  1.000000  0.000000  0.000000 )  
               b(2) = (  0.000000  1.000000  0.000000 )  
               b(3) = (  0.000000  0.000000  1.000000 )  


     PseudoPot. # 1 for C  read from file:
     /home/fnattino/Programs/qe-6.1/Environ/tests/../..//pseudo/C.pbe-rrkjus.UPF
     MD5 check sum: 00fb224312de0c5b6853bd333518df6f
     Pseudo is Ultrasoft, Zval =  4.0
     Generated by new atomic code, or converted to UPF format
     Using radial grid of  627 points,  4 beta functions with: 
                l(1) =   0
                l(2) =   0
                l(3) =   1
                l(4) =   1
     Q(r) pseudized with 0 coefficients 


     PseudoPot. # 2 for H  read from file:
     /home/fnattino/Programs/qe-6.1/Environ/tests/../..//pseudo/H.pbe-rrkjus.UPF
     MD5 check sum: 7cc9d459525c9a0585f487a71c3c9563
     Pseudo is Ultrasoft, Zval =  1.0
     Generated by new atomic code, or converted to UPF format
     Using radial grid of 1061 points,  2 beta functions with: 
                l(1) =   0
                l(2) =   0
     Q(r) pseudized with 0 coefficients 


     PseudoPot. # 3 for N  read from file:
     /home/fnattino/Programs/qe-6.1/Environ/tests/../..//pseudo/N.pbe-rrkjus.UPF
     MD5 check sum: 0c3fbe5807a93f9ba59d5a7019aa238b
     Pseudo is Ultrasoft, Zval =  5.0
     Generated by new atomic code, or converted to UPF format
     Using radial grid of 1257 points,  4 beta functions with: 
                l(1) =   0
                l(2) =   0
                l(3) =   1
                l(4) =   1
     Q(r) pseudized with 0 coefficients 


     PseudoPot. # 4 for O  read from file:
     /home/fnattino/Programs/qe-6.1/Environ/tests/../..//pseudo/O.pbe-rrkjus.UPF
     MD5 check sum: 390ba29e75625707450f3bd3f0eb6be9
     Pseudo is Ultrasoft, Zval =  6.0
     Generated by new atomic code, or converted to UPF format
     Using radial grid of 1269 points,  4 beta functions with: 
                l(1) =   0
                l(2) =   0
                l(3) =   1
                l(4) =   1
     Q(r) pseudized with 0 coefficients 


     atomic species   valence    mass     pseudopotential
        C              4.00    12.00000     C ( 1.00)
        H              1.00     1.00000     H ( 1.00)
        N              5.00    14.00000     N ( 1.00)
        O              6.00    16.00000     O ( 1.00)

     No symmetry found



   Cartesian axes

     site n.     atom                  positions (alat units)
         1           C   tau(   1) = (   0.0000000   0.0000000   0.0000000  )
         2           C   tau(   2) = (   0.0000000   0.0000000   0.1455089  )
         3           N   tau(   3) = (   0.1170969   0.0000000  -0.0545024  )
         4           H   tau(   4) = (   0.0476617  -0.0825466   0.1792090  )
         5           H   tau(   5) = (  -0.0953183  -0.0000030   0.1792090  )
         6           H   tau(   6) = (   0.0476566   0.0825496   0.1792090  )
         7           O   tau(   7) = (  -0.0984002  -0.0000019  -0.0641310  )
         8           H   tau(   8) = (   0.1944645   0.0000134  -0.0025716  )

     number of k points=     1
                       cart. coord. in units 2pi/alat
        k(    1) = (   0.0000000   0.0000000   0.0000000), wk =   2.0000000

     Dense  grid:   350738 G-vectors     FFT dimensions: ( 120, 120, 120)

     Smooth grid:    88755 G-vectors     FFT dimensions: (  72,  72,  72)

     Estimated max dynamical RAM per process >     298.30MB

     Initial potential from superposition of free atoms
     Check: negative starting charge=   -0.000561

     starting charge   22.61507, renormalised to   24.00000

     negative rho (up, down):  5.954E-04 0.000E+00
     Starting wfc are   20 randomized atomic wfcs

     total cpu time spent up to now is        3.7 secs

     per-process dynamical memory:   617.9 Mb

     Self-consistent Calculation

     iteration #  1     ecut=    30.00 Ry     beta=0.70
     Davidson diagonalization with overlap
     ethr =  1.00E-02,  avg # of iterations =  2.0

     negative rho (up, down):  1.758E-04 0.000E+00

     add environment contribution to local potential
     polarization accuracy = 8.1E-06, # of iterations =  25

     total cpu time spent up to now is        8.3 secs

     total energy              =     -78.45171903 Ry
     Harris-Foulkes estimate   =     -80.30749154 Ry
     estimated scf accuracy    <       2.43325747 Ry
     electrostatic embedding   =       0.00000000 Ry
     PV energy                 =       0.01182404 Ry
     correction to one-el term =       0.00000000 Ry

     iteration #  2     ecut=    30.00 Ry     beta=0.70
     Davidson diagonalization with overlap
     ethr =  1.00E-02,  avg # of iterations =  4.0

     negative rho (up, down):  3.153E-03 0.000E+00

     add environment contribution to local potential
     polarization accuracy = 6.4E-06, # of iterations =  31

     total cpu time spent up to now is       13.7 secs

     total energy              =     -78.92980520 Ry
     Harris-Foulkes estimate   =     -81.92592378 Ry
     estimated scf accuracy    <       2.14091932 Ry
     electrostatic embedding   =      -0.11814741 Ry
     PV energy                 =       0.01075335 Ry
     correction to one-el term =       2.00153478 Ry

     iteration #  3     ecut=    30.00 Ry     beta=0.70
     Davidson diagonalization with overlap
     ethr =  8.92E-03,  avg # of iterations =  5.0

     negative rho (up, down):  2.949E-02 0.000E+00

     add environment contribution to local potential
     polarization accuracy = 5.9E-06, # of iterations =  26

     total cpu time spent up to now is       18.7 secs

     total energy              =     -79.91384023 Ry
     Harris-Foulkes estimate   =    -107.86424608 Ry
     estimated scf accuracy    <      20.71066257 Ry
     electrostatic embedding   =      11.47518682 Ry
     PV energy                 =       0.01097737 Ry
     correction to one-el term =      16.36829393 Ry

     iteration #  4     ecut=    30.00 Ry     beta=0.70
     Davidson diagonalization with overlap
     ethr =  8.92E-03,  avg # of iterations =  4.0

     negative rho (up, down):  6.318E-03 0.000E+00

     add environment contribution to local potential
     polarization accuracy = 5.7E-06, # of iterations =  31

     total cpu time spent up to now is       24.1 secs

     total energy              =     -79.76313128 Ry
     Harris-Foulkes estimate   =     -81.70697862 Ry
     estimated scf accuracy    <       0.13281409 Ry
     electrostatic embedding   =      -0.39010646 Ry
     PV energy                 =       0.01096835 Ry
     correction to one-el term =       2.26119424 Ry

     iteration #  5     ecut=    30.00 Ry     beta=0.70
     Davidson diagonalization with overlap
     ethr =  5.53E-04,  avg # of iterations =  5.0

     negative rho (up, down):  5.885E-04 0.000E+00

     add environment contribution to local potential
     polarization accuracy = 7.8E-06, # of iterations =  27

     total cpu time spent up to now is       29.1 secs

     total energy              =     -85.46675535 Ry
     Harris-Foulkes estimate   =     -76.91548822 Ry
     estimated scf accuracy    <       1.52807485 Ry
     electrostatic embedding   =      -5.03658529 Ry
     PV energy                 =       0.01079881 Ry
     correction to one-el term =      -3.60312984 Ry

     iteration #  6     ecut=    30.00 Ry     beta=0.70
     Davidson diagonalization with overlap
     ethr =  5.53E-04,  avg # of iterations =  4.0

     negative rho (up, down):  5.119E-04 0.000E+00

     add environment contribution to local potential
     polarization accuracy = 7.6E-06, # of iterations =  27

     total cpu time spent up to now is       34.1 secs

     total energy              =     -79.52709036 Ry
     Harris-Foulkes estimate   =     -82.14509667 Ry
     estimated scf accuracy    <       0.01933233 Ry
     electrostatic embedding   =      -0.16684504 Ry
     PV energy                 =       0.01090540 Ry
     correction to one-el term =       2.77101015 Ry

     iteration #  7     ecut=    30.00 Ry     beta=0.70
     Davidson diagonalization with overlap
     ethr =  8.06E-05,  avg # of iterations =  2.0

     negative rho (up, down):  1.251E-03 0.000E+00

     add environment contribution to local potential
     polarization accuracy = 8.0E-06, # of iterations =  27

     total cpu time spent up to now is       39.0 secs

     total energy              =     -79.53050115 Ry
     Harris-Foulkes estimate   =     -82.39833133 Ry
     estimated scf accuracy    <       0.01347470 Ry
     electrostatic embedding   =      -0.18715080 Ry
     PV energy                 =       0.01110406 Ry
     correction to one-el term =       3.04248430 Ry

     iteration #  8     ecut=    30.00 Ry     beta=0.70
     Davidson diagonalization with overlap
     ethr =  5.61E-05,  avg # of iterations =  1.0

     negative rho (up, down):  1.500E-03 0.000E+00

     add environment contribution to local potential
     polarization accuracy = 7.8E-06, # of iterations =  27

     total cpu time spent up to now is       43.8 secs

     total energy              =     -79.53194559 Ry
     Harris-Foulkes estimate   =     -82.52959797 Ry
     estimated scf accuracy    <       0.01128211 Ry
     electrostatic embedding   =      -0.20641145 Ry
     PV energy                 =       0.01117226 Ry
     correction to one-el term =       3.19262105 Ry

     iteration #  9     ecut=    30.00 Ry     beta=0.70
     Davidson diagonalization with overlap
     ethr =  4.70E-05,  avg # of iterations =  1.0

     negative rho (up, down):  1.419E-03 0.000E+00

     add environment contribution to local potential
     polarization accuracy = 7.5E-06, # of iterations =  27

     total cpu time spent up to now is       48.6 secs

     total energy              =     -79.53212905 Ry
     Harris-Foulkes estimate   =     -82.58659465 Ry
     estimated scf accuracy    <       0.01006333 Ry
     electrostatic embedding   =      -0.21175691 Ry
     PV energy                 =       0.01118977 Ry
     correction to one-el term =       3.25492277 Ry

     iteration # 10     ecut=    30.00 Ry     beta=0.70
     Davidson diagonalization with overlap
     ethr =  4.19E-05,  avg # of iterations =  1.0

     negative rho (up, down):  1.155E-03 0.000E+00

     add environment contribution to local potential
     polarization accuracy = 7.2E-06, # of iterations =  27

     total cpu time spent up to now is       53.5 secs

     total energy              =     -79.53225246 Ry
     Harris-Foulkes estimate   =     -82.63990674 Ry
     estimated scf accuracy    <       0.00897188 Ry
     electrostatic embedding   =      -0.21474053 Ry
     PV energy                 =       0.01118811 Ry
     correction to one-el term =       3.31121412 Ry

     iteration # 11     ecut=    30.00 Ry     beta=0.70
     Davidson diagonalization with overlap
     ethr =  3.74E-05,  avg # of iterations =  1.0

     negative rho (up, down):  1.060E-03 0.000E+00

     add environment contribution to local potential
     polarization accuracy = 7.0E-06, # of iterations =  27

     total cpu time spent up to now is       58.3 secs

     total energy              =     -79.53226665 Ry
     Harris-Foulkes estimate   =     -82.70323813 Ry
     estimated scf accuracy    <       0.00787114 Ry
     electrostatic embedding   =      -0.21732563 Ry
     PV energy                 =       0.01119008 Ry
     correction to one-el term =       3.37715590 Ry

     iteration # 12     ecut=    30.00 Ry     beta=0.70
     Davidson diagonalization with overlap
     ethr =  3.28E-05,  avg # of iterations =  1.0

     negative rho (up, down):  6.080E-04 0.000E+00

     add environment contribution to local potential
     polarization accuracy = 4.8E-06, # of iterations =  32

     total cpu time spent up to now is       63.5 secs

     total energy              =     -79.53350960 Ry
     Harris-Foulkes estimate   =     -82.73193904 Ry
     estimated scf accuracy    <       0.00751928 Ry
     electrostatic embedding   =      -0.21821566 Ry
     PV energy                 =       0.01119037 Ry
     correction to one-el term =       3.40676709 Ry

     iteration # 13     ecut=    30.00 Ry     beta=0.70
     Davidson diagonalization with overlap
     ethr =  3.13E-05,  avg # of iterations =  6.0

     negative rho (up, down):  4.286E-03 0.000E+00

     add environment contribution to local potential
     polarization accuracy = 8.7E-06, # of iterations =  30

     total cpu time spent up to now is       68.8 secs

     total energy              =     -84.54763143 Ry
     Harris-Foulkes estimate   =     -78.02895416 Ry
     estimated scf accuracy    <       1.15152749 Ry
     electrostatic embedding   =      -4.39045316 Ry
     PV energy                 =       0.01119677 Ry
     correction to one-el term =      -2.13930650 Ry

     iteration # 14     ecut=    30.00 Ry     beta=0.70
     Davidson diagonalization with overlap
     ethr =  3.13E-05,  avg # of iterations = 17.0

     negative rho (up, down):  8.277E-03 0.000E+00

     add environment contribution to local potential
     polarization accuracy = 4.3E-06, # of iterations =  36

     total cpu time spent up to now is       74.8 secs

     total energy              =     -88.37441279 Ry
     Harris-Foulkes estimate   =     -75.21038736 Ry
     estimated scf accuracy    <       3.97604693 Ry
     electrostatic embedding   =      -7.05883501 Ry
     PV energy                 =       0.01119239 Ry
     correction to one-el term =      -6.10745372 Ry

     iteration # 15     ecut=    30.00 Ry     beta=0.70
     Davidson diagonalization with overlap
     WARNING:     6 eigenvalues not converged in regterg
     WARNING:     1 eigenvalues not converged in regterg
     c_bands:  1 eigenvalues not converged
     ethr =  3.13E-05,  avg # of iterations = 40.0

     negative rho (up, down):  3.874E-02 0.000E+00

     add environment contribution to local potential
     polarization accuracy = 4.6E-06, # of iterations =  40

     total cpu time spent up to now is       82.1 secs

     total energy              =    -128.40316784 Ry
     Harris-Foulkes estimate   =     -67.75053919 Ry
     estimated scf accuracy    <      61.60671800 Ry
     electrostatic embedding   =     -24.26219016 Ry
     PV energy                 =       0.01119151 Ry
     correction to one-el term =     -36.05836652 Ry

     iteration # 16     ecut=    30.00 Ry     beta=0.70
     Davidson diagonalization with overlap
     WARNING:    12 eigenvalues not converged in regterg
     WARNING:    10 eigenvalues not converged in regterg
     WARNING:     6 eigenvalues not converged in regterg
     WARNING:     5 eigenvalues not converged in regterg
     c_bands:  5 eigenvalues not converged
     ethr =  3.13E-05,  avg # of iterations = 80.0

     negative rho (up, down):  5.143E-02 0.000E+00

     total cpu time spent up to now is       87.5 secs

     total energy              =    -647.51273494 Ry
     Harris-Foulkes estimate   =     -64.46281794 Ry
     estimated scf accuracy    <     129.62473749 Ry
     electrostatic embedding   =    -141.06184291 Ry
     PV energy                 =       0.01119765 Ry
     correction to one-el term =    -441.85417543 Ry

     iteration # 17     ecut=    30.00 Ry     beta=0.70
     Davidson diagonalization with overlap
     WARNING:     5 eigenvalues not converged in regterg
     c_bands:  5 eigenvalues not converged
     ethr =  3.13E-05,  avg # of iterations = 20.0

     negative rho (up, down):  5.533E-02 0.000E+00

     total cpu time spent up to now is       90.1 secs

     total energy              =    -648.33230353 Ry
     Harris-Foulkes estimate   =     -65.05905560 Ry
     estimated scf accuracy    <     134.70870482 Ry
     electrostatic embedding   =    -141.06490345 Ry
     PV energy                 =       0.01120381 Ry
     correction to one-el term =    -442.17800089 Ry

     iteration # 18     ecut=    30.00 Ry     beta=0.70
     Davidson diagonalization with overlap
     WARNING:     5 eigenvalues not converged in regterg
     c_bands:  5 eigenvalues not converged
     ethr =  3.13E-05,  avg # of iterations = 20.0

     negative rho (up, down):  5.649E-02 0.000E+00

     total cpu time spent up to now is       92.6 secs

     total energy              =    -648.57991432 Ry
     Harris-Foulkes estimate   =     -65.28015775 Ry
     estimated scf accuracy    <     136.60926206 Ry
     electrostatic embedding   =    -141.06410764 Ry
     PV energy                 =       0.01120535 Ry
     correction to one-el term =    -442.23443113 Ry

     iteration # 19     ecut=    30.00 Ry     beta=0.70
     Davidson diagonalization with overlap
     WARNING:     5 eigenvalues not converged in regterg
     c_bands:  5 eigenvalues not converged
     ethr =  3.13E-05,  avg # of iterations = 20.0

     negative rho (up, down):  5.728E-02 0.000E+00

     total cpu time spent up to now is       95.2 secs

     total energy              =    -648.69842189 Ry
     Harris-Foulkes estimate   =     -65.37739833 Ry
     estimated scf accuracy    <     137.51473229 Ry
     electrostatic embedding   =    -141.06418797 Ry
     PV energy                 =       0.01120594 Ry
     correction to one-el term =    -442.25226720 Ry

     iteration # 20     ecut=    30.00 Ry     beta=0.70
     Davidson diagonalization with overlap
     WARNING:     5 eigenvalues not converged in regterg
     c_bands:  5 eigenvalues not converged
     ethr =  3.13E-05,  avg # of iterations = 20.0

     negative rho (up, down):  5.162E-02 0.000E+00

     total cpu time spent up to now is       97.8 secs

     total energy              =    -648.48690366 Ry
     Harris-Foulkes estimate   =     -65.43991893 Ry
     estimated scf accuracy    <     138.01001946 Ry
     electrostatic embedding   =    -141.06773790 Ry
     PV energy                 =       0.01120663 Ry
     correction to one-el term =    -442.34401452 Ry

     iteration # 21     ecut=    30.00 Ry     beta=0.70
     Davidson diagonalization with overlap
     WARNING:     5 eigenvalues not converged in regterg
     c_bands:  5 eigenvalues not converged
     ethr =  3.13E-05,  avg # of iterations = 20.0

     negative rho (up, down):  5.785E-01 0.000E+00

     total cpu time spent up to now is      100.4 secs

     total energy              =    -643.95420756 Ry
     Harris-Foulkes estimate   =     -65.12137756 Ry
     estimated scf accuracy    <     137.86201632 Ry
     electrostatic embedding   =    -141.01003818 Ry
     PV energy                 =       0.01116426 Ry
     correction to one-el term =    -435.73310452 Ry

     iteration # 22     ecut=    30.00 Ry     beta=0.70
     Davidson diagonalization with overlap
     WARNING:     4 eigenvalues not converged in regterg
     c_bands:  4 eigenvalues not converged
     ethr =  3.13E-05,  avg # of iterations = 20.0

     negative rho (up, down):  1.460E+00 0.000E+00

     total cpu time spent up to now is      103.1 secs

     total energy              =    -681.19474042 Ry
     Harris-Foulkes estimate   =     -67.28415340 Ry
     estimated scf accuracy    <     139.49987666 Ry
     electrostatic embedding   =    -148.97326250 Ry
     PV energy                 =       0.01218037 Ry
     correction to one-el term =    -473.84708702 Ry

     iteration # 23     ecut=    30.00 Ry     beta=0.70
     Davidson diagonalization with overlap
     WARNING:    12 eigenvalues not converged in regterg
     WARNING:     9 eigenvalues not converged in regterg
     WARNING:     5 eigenvalues not converged in regterg
     c_bands:  5 eigenvalues not converged
     ethr =  3.13E-05,  avg # of iterations = 60.0

     negative rho (up, down):  4.524E+00 0.000E+00

     total cpu time spent up to now is      107.8 secs

     total energy              =    -547.90606880 Ry
     Harris-Foulkes estimate   =     -58.85541939 Ry
     estimated scf accuracy    <     133.37185855 Ry
     electrostatic embedding   =    -165.15233868 Ry
     PV energy                 =       0.01201272 Ry
     correction to one-el term =    -355.92730696 Ry

     iteration # 24     ecut=    30.00 Ry     beta=0.70
     Davidson diagonalization with overlap
     WARNING:    12 eigenvalues not converged in regterg
     WARNING:    12 eigenvalues not converged in regterg
     WARNING:    12 eigenvalues not converged in regterg
     WARNING:    12 eigenvalues not converged in regterg
     WARNING:    11 eigenvalues not converged in regterg
     WARNING:    11 eigenvalues not converged in regterg

 %%%%%%%%%%%%%%%%%%%%%%%%%%%%%%%%%%%%%%%%%%%%%%%%%%%%%%%%%%%%%%%%%%%%%%%%%%%%%%
     Error in routine c_bands (1):
     too many bands are not converged
 %%%%%%%%%%%%%%%%%%%%%%%%%%%%%%%%%%%%%%%%%%%%%%%%%%%%%%%%%%%%%%%%%%%%%%%%%%%%%%

     stopping ...

%%%% IONS %%%%%%%%%%%%%%%%%%%%%%%%%%%%%%%%%%%%%%%%%%%%%%%%%%%%%%%%%%%%%%%%%%%%%%
 number of ions             =          8
 ionic center of charge     =      0.0082412     0.0000001     0.0199910
 total ionic charge         =    -23.0000000
 ionic dipole               =      0.0000000     0.0000000     0.0000000
 ionic quadrupole (pc)      =    -70.6147067    -5.4513517   -84.5532413
 ionic quadrupole (gauss)   =    -73.4897067    -8.3263517   -87.4282413
 ion   1 type =  1 coordinates =      0.0000000     0.0000000     0.0000000
 ion   2 type =  1 coordinates =      0.0000000     0.0000000     2.9101782
 ion   3 type =  3 coordinates =      2.3419379     0.0000000    -1.0900479
 ion   4 type =  2 coordinates =      0.9532347    -1.6509323     3.5841800
 ion   5 type =  2 coordinates =     -1.9063663    -0.0000596     3.5841809
 ion   6 type =  2 coordinates =      0.9531315     1.6509919     3.5841800
 ion   7 type =  4 coordinates =     -1.9680045    -0.0000375    -1.2826193
 ion   8 type =  2 coordinates =      3.8892907     0.0002681    -0.0514326

%%%% SYSTEM %%%%%%%%%%%%%%%%%%%%%%%%%%%%%%%%%%%%%%%%%%%%%%%%%%%%%%%%%%%%%%%%%%%%
 system is built from all present ionic types
 system defined dimension   =  0 
 system defined axis        =  3 
 system center              =      0.0082412     0.0000001     0.0199910 
 system width               =      0.1899341 

%%%% ELECTRONS %%%%%%%%%%%%%%%%%%%%%%%%%%%%%%%%%%%%%%%%%%%%%%%%%%%%%%%%%%%%%%%%%
 number of electrons        =         23
 total electronic charge    =     24.0000000
 number of spin components  =  1

%%%% BOUNDARY %%%%%%%%%%%%%%%%%%%%%%%%%%%%%%%%%%%%%%%%%%%%%%%%%%%%%%%%%%%%%%%%%%
 boundary mode              = electronic           
 boundary is built as a function of a smooth density
 function type              =  2 
 using the modified SCCS function with parameters 
 rhomax                     =      0.0155000 
 rhomin                     =      0.0024000 
 volume of the QM region    =    386.5278580 
 surface of the QM region   =    279.1343702 

%%%% DIELECTRIC %%%%%%%%%%%%%%%%%%%%%%%%%%%%%%%%%%%%%%%%%%%%%%%%%%%%%%%%%%%%%%%%%
 dielectric build on homogeneous background
 environment bulk permitt.  =     78.3000000 
 dielectric flags
 need gradient              =  F 
 need factor depend. sqrt   =  T 
 total dielectric charge    =      0.0000000

%%%% ELECTRONS %%%%%%%%%%%%%%%%%%%%%%%%%%%%%%%%%%%%%%%%%%%%%%%%%%%%%%%%%%%%%%%%%
 number of electrons        =         23
 total electronic charge    =     24.0000000
 number of spin components  =  1

%%%% BOUNDARY %%%%%%%%%%%%%%%%%%%%%%%%%%%%%%%%%%%%%%%%%%%%%%%%%%%%%%%%%%%%%%%%%%
 boundary mode              = electronic           
 boundary is built as a function of a smooth density
 function type              =  2 
 using the modified SCCS function with parameters 
 rhomax                     =      0.0155000 
 rhomin                     =      0.0024000 
 volume of the QM region    =    351.5270604 
 surface of the QM region   =    268.3313119 

%%%% DIELECTRIC %%%%%%%%%%%%%%%%%%%%%%%%%%%%%%%%%%%%%%%%%%%%%%%%%%%%%%%%%%%%%%%%%
 dielectric build on homogeneous background
 environment bulk permitt.  =     78.3000000 
 dielectric flags
 need gradient              =  F 
 need factor depend. sqrt   =  T 
 total dielectric charge    =      0.0000000

%%%% COMPUTE ELECTROSTATIC POTENTIAL %%%%%%%%%%%%%%%%%%%%%%%%%%%%%%%%%%%%%%%%%%%
 Iteration #          1
  pAp =    93.1532421608213       rzold =    91.2538720959533       alpha = 
  0.979610263466849     
 delta_qm =   0.463868E-01 delta_en =   0.371819E+04 tol =   0.100000E-04
 Iteration #          2
  pAp =    339.989899670511       rzold =    22.7707574374352       alpha = 
  6.697480560305676E-002
 delta_qm =   0.137680E-01 delta_en =   0.327557E+03 tol =   0.100000E-04
 Iteration #          3
  pAp =    11.6392545030874       rzold =    1.21620659783581       alpha = 
  0.104491795201592     
 delta_qm =   0.519839E-02 delta_en =   0.466962E+02 tol =   0.100000E-04
 Iteration #          4
  pAp =    2.86900797619774       rzold =   0.283296579999313       alpha = 
  9.874374081551454E-002
 delta_qm =   0.345612E-02 delta_en =   0.206406E+02 tol =   0.100000E-04
 Iteration #          5
  pAp =   0.114886463347741       rzold =   1.810722686453151E-002  alpha = 
  0.157609750852231     
 delta_qm =   0.288401E-02 delta_en =   0.143726E+02 tol =   0.100000E-04
 Iteration #          6
  pAp =   2.136023338260510E-002  rzold =   4.656004273534945E-003  alpha = 
  0.217975346529996     
 delta_qm =   0.239055E-02 delta_en =   0.987504E+01 tol =   0.100000E-04
 Iteration #          7
  pAp =   2.106292655994761E-002  rzold =   4.331196027095852E-003  alpha = 
  0.205631255218440     
 delta_qm =   0.181424E-02 delta_en =   0.568765E+01 tol =   0.100000E-04
 Iteration #          8
  pAp =   9.627186923827061E-003  rzold =   2.487636167843907E-003  alpha = 
  0.258396994628521     
 delta_qm =   0.139854E-02 delta_en =   0.337982E+01 tol =   0.100000E-04
 Iteration #          9
  pAp =   3.215088111772839E-003  rzold =   1.370904162168653E-003  alpha = 
  0.426397073582136     
 delta_qm =   0.109289E-02 delta_en =   0.206393E+01 tol =   0.100000E-04
 Iteration #         10
  pAp =   3.373015875729074E-003  rzold =   1.296460739070424E-003  alpha = 
  0.384362477626998     
 delta_qm =   0.724107E-03 delta_en =   0.906043E+00 tol =   0.100000E-04
 Iteration #         11
  pAp =   3.914076730611532E-003  rzold =   1.190051018115388E-003  alpha = 
  0.304043865264096     
 delta_qm =   0.415757E-03 delta_en =   0.298692E+00 tol =   0.100000E-04
 Iteration #         12
  pAp =   2.423636719600599E-003  rzold =   5.389470385893550E-004  alpha = 
  0.222371213569569     
 delta_qm =   0.236646E-03 delta_en =   0.967704E-01 tol =   0.100000E-04
 Iteration #         13
  pAp =   2.503001509817692E-004  rzold =   7.204692158943899E-005  alpha = 
  0.287842101999717     
 delta_qm =   0.198530E-03 delta_en =   0.681079E-01 tol =   0.100000E-04
 Iteration #         14
  pAp =   6.044987682296340E-005  rzold =   1.657826912578221E-005  alpha = 
  0.274248187044850     
 delta_qm =   0.154014E-03 delta_en =   0.409887E-01 tol =   0.100000E-04
 Iteration #         15
  pAp =   5.272639612487483E-005  rzold =   1.254500720870636E-005  alpha = 
  0.237926506089954     
 delta_qm =   0.115854E-03 delta_en =   0.231936E-01 tol =   0.100000E-04
 Iteration #         16
  pAp =   2.114990853960128E-005  rzold =   7.581828844292370E-006  alpha = 
  0.358480455369161     
 delta_qm =   0.888266E-04 delta_en =   0.136342E-01 tol =   0.100000E-04
 Iteration #         17
  pAp =   1.992394580606647E-005  rzold =   6.231645157266168E-006  alpha = 
  0.312771637602465     
 delta_qm =   0.566594E-04 delta_en =   0.554737E-02 tol =   0.100000E-04
 Iteration #         18
  pAp =   7.134830472271414E-006  rzold =   2.638694016249739E-006  alpha = 
  0.369832755873413     
 delta_qm =   0.444558E-04 delta_en =   0.341509E-02 tol =   0.100000E-04
 Iteration #         19
  pAp =   2.957411853088034E-006  rzold =   1.055919812855836E-006  alpha = 
  0.357041854604484     
 delta_qm =   0.261491E-04 delta_en =   0.118157E-02 tol =   0.100000E-04
 Iteration #         20
  pAp =   1.134655181036345E-006  rzold =   4.313311076960780E-007  alpha = 
  0.380142897071266     
 delta_qm =   0.143992E-04 delta_en =   0.358280E-03 tol =   0.100000E-04
 Iteration #         21
  pAp =   2.763715609381450E-007  rzold =   1.037292668103252E-007  alpha = 
  0.375325400552125     
 delta_qm =   0.925223E-05 delta_en =   0.147923E-03 tol =   0.100000E-04
 Iteration #         22
  pAp =   7.392618744155441E-008  rzold =   3.479185475874448E-008  alpha = 
  0.470629636977434     
 delta_qm =   0.681988E-05 delta_en =   0.803706E-04 tol =   0.100000E-04
 Iteration #         23
  pAp =   1.637692344995503E-007  rzold =   3.107148660106020E-008  alpha = 
  0.189727250640263     
 delta_qm =   0.589399E-05 delta_en =   0.600292E-04 tol =   0.100000E-04
 Iteration #         24
  pAp =   2.644744393168092E-007  rzold =   4.284585471751858E-008  alpha = 
  0.162003764251086     
 delta_qm =   0.388042E-05 delta_en =   0.260196E-04 tol =   0.100000E-04
 Iteration #         25
  pAp =   6.015342577865371E-008  rzold =   1.749780225381921E-008  alpha = 
  0.290886213500222     
 delta_qm =   0.216525E-05 delta_en =   0.810141E-05 tol =   0.100000E-04
 Charges are converged, EXIT

%%%% ELECTRONS %%%%%%%%%%%%%%%%%%%%%%%%%%%%%%%%%%%%%%%%%%%%%%%%%%%%%%%%%%%%%%%%%
 number of electrons        =         24
 total electronic charge    =     24.0000000
 number of spin components  =  1

%%%% BOUNDARY %%%%%%%%%%%%%%%%%%%%%%%%%%%%%%%%%%%%%%%%%%%%%%%%%%%%%%%%%%%%%%%%%%
 boundary mode              = electronic           
 boundary is built as a function of a smooth density
 function type              =  2 
 using the modified SCCS function with parameters 
 rhomax                     =      0.0155000 
 rhomin                     =      0.0024000 
 volume of the QM region    =    358.8501987 
 surface of the QM region   =    272.6117037 

%%%% DIELECTRIC %%%%%%%%%%%%%%%%%%%%%%%%%%%%%%%%%%%%%%%%%%%%%%%%%%%%%%%%%%%%%%%%%
 dielectric build on homogeneous background
 environment bulk permitt.  =     78.3000000 
 dielectric flags
 need gradient              =  F 
 need factor depend. sqrt   =  T 
 total dielectric charge    =     -0.9839912

%%%% COMPUTE ELECTROSTATIC POTENTIAL %%%%%%%%%%%%%%%%%%%%%%%%%%%%%%%%%%%%%%%%%%%
 Warning: bad guess with residual norm =   0.129055E+05, reset to no guess
 Iteration #          1
  pAp =    87.5482109442137       rzold =    90.5667220794619       alpha = 
   1.03447827320163     
 delta_qm =   0.893026E-01 delta_en =   0.137807E+05 tol =   0.100000E-04
 Iteration #          2
  pAp =    380.553146474346       rzold =    30.7397911128979       alpha = 
  8.077660478618631E-002
 delta_qm =   0.751669E-01 delta_en =   0.976330E+04 tol =   0.100000E-04
 Iteration #          3
  pAp =    10.5067063037534       rzold =    5.46595374348540       alpha = 
  0.520234751544618     
 delta_qm =   0.795092E-01 delta_en =   0.109239E+05 tol =   0.100000E-04
 Iteration #          4
  pAp =    111.921446487937       rzold =    25.8607677145190       alpha = 
  0.231061771680250     
 delta_qm =   0.813996E-01 delta_en =   0.114495E+05 tol =   0.100000E-04
 Iteration #          5
  pAp =    130.359446485162       rzold =    31.6319179472989       alpha = 
  0.242651520853914     
 delta_qm =   0.288430E-01 delta_en =   0.143756E+04 tol =   0.100000E-04
 Iteration #          6
  pAp =    33.3201664702415       rzold =    5.31561023533434       alpha = 
  0.159531322872644     
 delta_qm =   0.104824E-01 delta_en =   0.189873E+03 tol =   0.100000E-04
 Iteration #          7
  pAp =    2.93463703844132       rzold =   0.383351014154617       alpha = 
  0.130629787988441     
 delta_qm =   0.658395E-02 delta_en =   0.749061E+02 tol =   0.100000E-04
 Iteration #          8
  pAp =   0.652873283479088       rzold =   9.151883193853953E-002  alpha = 
  0.140178552644774     
 delta_qm =   0.503129E-02 delta_en =   0.437424E+02 tol =   0.100000E-04
 Iteration #          9
  pAp =   9.970271280602161E-002  rzold =   2.887631593088238E-002  alpha = 
  0.289624174891442     
 delta_qm =   0.248073E-02 delta_en =   0.106342E+02 tol =   0.100000E-04
 Iteration #         10
  pAp =   2.648511645803127E-002  rzold =   7.757441552241313E-003  alpha = 
  0.292898147702461     
 delta_qm =   0.155390E-02 delta_en =   0.417241E+01 tol =   0.100000E-04
 Iteration #         11
  pAp =   6.510420135237414E-003  rzold =   2.000199526034745E-003  alpha = 
  0.307230483514994     
 delta_qm =   0.119023E-02 delta_en =   0.244796E+01 tol =   0.100000E-04
 Iteration #         12
  pAp =   1.677385263794061E-003  rzold =   6.682036130930861E-004  alpha = 
  0.398360250036824     
 delta_qm =   0.111107E-02 delta_en =   0.213317E+01 tol =   0.100000E-04
 Iteration #         13
  pAp =   2.023128480343493E-003  rzold =   8.556511027708409E-004  alpha = 
  0.422934633704314     
 delta_qm =   0.788698E-03 delta_en =   0.107489E+01 tol =   0.100000E-04
 Iteration #         14
  pAp =   3.305094113838163E-003  rzold =   9.922186547741908E-004  alpha = 
  0.300208895904008     
 delta_qm =   0.567987E-03 delta_en =   0.557470E+00 tol =   0.100000E-04
 Iteration #         15
  pAp =   3.194308337599995E-003  rzold =   6.795972864316223E-004  alpha = 
  0.212752563186254     
 delta_qm =   0.439162E-03 delta_en =   0.333267E+00 tol =   0.100000E-04
 Iteration #         16
  pAp =   7.591424459244123E-004  rzold =   1.737923210973916E-004  alpha = 
  0.228932425041474     
 delta_qm =   0.328467E-03 delta_en =   0.186435E+00 tol =   0.100000E-04
 Iteration #         17
  pAp =   2.824965742105172E-004  rzold =   6.082902645001349E-005  alpha = 
  0.215326598632249     
 delta_qm =   0.254838E-03 delta_en =   0.112220E+00 tol =   0.100000E-04
 Iteration #         18
  pAp =   6.209546990880200E-005  rzold =   2.048672153516764E-005  alpha = 
  0.329922964835534     
 delta_qm =   0.147752E-03 delta_en =   0.377236E-01 tol =   0.100000E-04
 Iteration #         19
  pAp =   1.793343604173464E-005  rzold =   7.500380194143503E-006  alpha = 
  0.418234418473328     
 delta_qm =   0.922956E-04 delta_en =   0.147199E-01 tol =   0.100000E-04
 Iteration #         20
  pAp =   9.113703514908270E-006  rzold =   3.764352367605689E-006  alpha = 
  0.413043101681762     
 delta_qm =   0.646014E-04 delta_en =   0.721154E-02 tol =   0.100000E-04
 Iteration #         21
  pAp =   2.930688838836094E-006  rzold =   1.625067577542435E-006  alpha = 
  0.554500210328648     
 delta_qm =   0.463005E-04 delta_en =   0.370438E-02 tol =   0.100000E-04
 Iteration #         22
  pAp =   2.367424691091360E-006  rzold =   1.051250475622710E-006  alpha = 
  0.444048116748370     
 delta_qm =   0.276940E-04 delta_en =   0.132531E-02 tol =   0.100000E-04
 Iteration #         23
  pAp =   1.558821333159569E-006  rzold =   4.322098177504258E-007  alpha = 
  0.277267066184154     
 delta_qm =   0.193423E-04 delta_en =   0.646485E-03 tol =   0.100000E-04
 Iteration #         24
  pAp =   8.647653458073977E-007  rzold =   2.070045631905303E-007  alpha = 
  0.239376570990201     
 delta_qm =   0.137026E-04 delta_en =   0.324453E-03 tol =   0.100000E-04
 Iteration #         25
  pAp =   1.538010743202660E-007  rzold =   5.584406361086461E-008  alpha = 
  0.363092805805624     
 delta_qm =   0.963019E-05 delta_en =   0.160256E-03 tol =   0.100000E-04
 Iteration #         26
  pAp =   3.761618432866619E-007  rzold =   4.986016308023694E-008  alpha = 
  0.132549762741991     
 delta_qm =   0.759100E-05 delta_en =   0.995731E-04 tol =   0.100000E-04
 Iteration #         27
  pAp =   1.665858480515817E-007  rzold =   4.710014979833190E-008  alpha = 
  0.282738001752393     
 delta_qm =   0.519168E-05 delta_en =   0.465757E-04 tol =   0.100000E-04
 Iteration #         28
  pAp =   5.239314599166079E-008  rzold =   1.900114978791848E-008  alpha = 
  0.362664799532038     
 delta_qm =   0.460535E-05 delta_en =   0.366495E-04 tol =   0.100000E-04
 Iteration #         29
  pAp =   4.683844882018221E-008  rzold =   8.839744037300495E-009  alpha = 
  0.188728368679271     
 delta_qm =   0.413150E-05 delta_en =   0.294957E-04 tol =   0.100000E-04
 Iteration #         30
  pAp =   4.578675321270646E-008  rzold =   8.413410060886984E-009  alpha = 
  0.183752056447456     
 delta_qm =   0.297856E-05 delta_en =   0.153305E-04 tol =   0.100000E-04
 Iteration #         31
  pAp =   4.347625348863468E-009  rzold =   1.622593710050229E-009  alpha = 
  0.373213784502935     
 delta_qm =   0.192664E-05 delta_en =   0.641424E-05 tol =   0.100000E-04
 Charges are converged, EXIT

%%%% ELECTRONS %%%%%%%%%%%%%%%%%%%%%%%%%%%%%%%%%%%%%%%%%%%%%%%%%%%%%%%%%%%%%%%%%
 number of electrons        =         23
 total electronic charge    =     24.0000000
 number of spin components  =  1

%%%% BOUNDARY %%%%%%%%%%%%%%%%%%%%%%%%%%%%%%%%%%%%%%%%%%%%%%%%%%%%%%%%%%%%%%%%%%
 boundary mode              = electronic           
 boundary is built as a function of a smooth density
 function type              =  2 
 using the modified SCCS function with parameters 
 rhomax                     =      0.0155000 
 rhomin                     =      0.0024000 
 volume of the QM region    =    358.5556144 
 surface of the QM region   =    273.1641984 

%%%% DIELECTRIC %%%%%%%%%%%%%%%%%%%%%%%%%%%%%%%%%%%%%%%%%%%%%%%%%%%%%%%%%%%%%%%%%
 dielectric build on homogeneous background
 environment bulk permitt.  =     78.3000000 
 dielectric flags
 need gradient              =  F 
 need factor depend. sqrt   =  T 
 total dielectric charge    =      0.9730044

%%%% COMPUTE ELECTROSTATIC POTENTIAL %%%%%%%%%%%%%%%%%%%%%%%%%%%%%%%%%%%%%%%%%%%
 Warning: bad guess with residual norm =   0.426091E+04, reset to no guess
 Iteration #          1
  pAp =    91.8710727820454       rzold =    89.9138435544020       alpha = 
  0.978695914085092     
 delta_qm =   0.486231E-01 delta_en =   0.408535E+04 tol =   0.100000E-04
 Iteration #          2
  pAp =    343.947281897512       rzold =    23.9868591285454       alpha = 
  6.973992931769395E-002
 delta_qm =   0.107611E-01 delta_en =   0.200105E+03 tol =   0.100000E-04
 Iteration #          3
  pAp =    6.17807534537471       rzold =   0.628233172977691       alpha = 
  0.101687522061061     
 delta_qm =   0.389199E-02 delta_en =   0.261750E+02 tol =   0.100000E-04
 Iteration #          4
  pAp =    1.86286588679772       rzold =   0.167913876186745       alpha = 
  9.013739388152621E-002
 delta_qm =   0.351938E-02 delta_en =   0.214030E+02 tol =   0.100000E-04
 Iteration #          5
  pAp =   6.423651083819512E-002  rzold =   1.161167963753078E-002  alpha = 
  0.180764482472894     
 delta_qm =   0.294599E-02 delta_en =   0.149970E+02 tol =   0.100000E-04
 Iteration #          6
  pAp =   8.239787273447900E-003  rzold =   3.002291366245999E-003  alpha = 
  0.364365154901591     
 delta_qm =   0.224398E-02 delta_en =   0.870129E+01 tol =   0.100000E-04
 Iteration #          7
  pAp =   2.008095006236467E-002  rzold =   4.092346985800041E-003  alpha = 
  0.203792498516783     
 delta_qm =   0.174977E-02 delta_en =   0.529062E+01 tol =   0.100000E-04
 Iteration #          8
  pAp =   1.397517069726934E-002  rzold =   2.735483027738312E-003  alpha = 
  0.195738791818322     
 delta_qm =   0.148983E-02 delta_en =   0.383545E+01 tol =   0.100000E-04
 Iteration #          9
  pAp =   2.380211178799609E-003  rzold =   1.316472574960619E-003  alpha = 
  0.553090661318776     
 delta_qm =   0.104917E-02 delta_en =   0.190213E+01 tol =   0.100000E-04
 Iteration #         10
  pAp =   3.359079578153228E-003  rzold =   1.411385052663329E-003  alpha = 
  0.420170174545042     
 delta_qm =   0.527258E-03 delta_en =   0.480385E+00 tol =   0.100000E-04
 Iteration #         11
  pAp =   2.323205231977216E-003  rzold =   6.326074981234876E-004  alpha = 
  0.272299446220295     
 delta_qm =   0.316949E-03 delta_en =   0.173589E+00 tol =   0.100000E-04
 Iteration #         12
  pAp =   6.241663280968871E-004  rzold =   1.196498498133243E-004  alpha = 
  0.191695457488299     
 delta_qm =   0.225943E-03 delta_en =   0.882148E-01 tol =   0.100000E-04
 Iteration #         13
  pAp =   1.339680525148405E-004  rzold =   3.378646377026691E-005  alpha = 
  0.252197916861740     
 delta_qm =   0.190881E-03 delta_en =   0.629605E-01 tol =   0.100000E-04
 Iteration #         14
  pAp =   4.767563006458674E-005  rzold =   1.417868409838594E-005  alpha = 
  0.297398987264099     
 delta_qm =   0.163023E-03 delta_en =   0.459240E-01 tol =   0.100000E-04
 Iteration #         15
  pAp =   4.143689895275824E-005  rzold =   1.299301887849564E-005  alpha = 
  0.313561564858143     
 delta_qm =   0.105942E-03 delta_en =   0.193946E-01 tol =   0.100000E-04
 Iteration #         16
  pAp =   3.565113721224400E-005  rzold =   9.680953559445259E-006  alpha = 
  0.271546837392902     
 delta_qm =   0.776178E-04 delta_en =   0.104104E-01 tol =   0.100000E-04
 Iteration #         17
  pAp =   2.125609486241528E-005  rzold =   5.768997995949029E-006  alpha = 
  0.271404415217853     
 delta_qm =   0.692568E-04 delta_en =   0.828837E-02 tol =   0.100000E-04
 Iteration #         18
  pAp =   6.581506755996641E-006  rzold =   2.469747830942304E-006  alpha = 
  0.375255685742787     
 delta_qm =   0.388297E-04 delta_en =   0.260538E-02 tol =   0.100000E-04
 Iteration #         19
  pAp =   2.428318398939487E-006  rzold =   8.780098691689324E-007  alpha = 
  0.361571147157796     
 delta_qm =   0.210370E-04 delta_en =   0.764736E-03 tol =   0.100000E-04
 Iteration #         20
  pAp =   8.752650089029209E-007  rzold =   3.030823774879733E-007  alpha = 
  0.346274984610506     
 delta_qm =   0.144158E-04 delta_en =   0.359105E-03 tol =   0.100000E-04
 Iteration #         21
  pAp =   1.642635907140878E-007  rzold =   6.833122216261372E-008  alpha = 
  0.415985197118630     
 delta_qm =   0.966859E-05 delta_en =   0.161536E-03 tol =   0.100000E-04
 Iteration #         22
  pAp =   6.213025499302631E-008  rzold =   3.433468971122477E-008  alpha = 
  0.552624316688843     
 delta_qm =   0.687271E-05 delta_en =   0.816206E-04 tol =   0.100000E-04
 Iteration #         23
  pAp =   1.809549847615164E-007  rzold =   3.431953583403031E-008  alpha = 
  0.189657863690578     
 delta_qm =   0.512262E-05 delta_en =   0.453449E-04 tol =   0.100000E-04
 Iteration #         24
  pAp =   2.867337847485251E-007  rzold =   4.200304300130803E-008  alpha = 
  0.146487945388598     
 delta_qm =   0.379846E-05 delta_en =   0.249321E-04 tol =   0.100000E-04
 Iteration #         25
  pAp =   8.933529156185184E-008  rzold =   1.788242621261469E-008  alpha = 
  0.200172024963210     
 delta_qm =   0.252506E-05 delta_en =   0.110176E-04 tol =   0.100000E-04
 Iteration #         26
  pAp =   1.218077986347587E-008  rzold =   4.030378699032266E-009  alpha = 
  0.330880185358031     
 delta_qm =   0.184655E-05 delta_en =   0.589207E-05 tol =   0.100000E-04
 Charges are converged, EXIT

%%%% ELECTRONS %%%%%%%%%%%%%%%%%%%%%%%%%%%%%%%%%%%%%%%%%%%%%%%%%%%%%%%%%%%%%%%%%
 number of electrons        =         24
 total electronic charge    =     24.0000000
 number of spin components  =  1

%%%% BOUNDARY %%%%%%%%%%%%%%%%%%%%%%%%%%%%%%%%%%%%%%%%%%%%%%%%%%%%%%%%%%%%%%%%%%
 boundary mode              = electronic           
 boundary is built as a function of a smooth density
 function type              =  2 
 using the modified SCCS function with parameters 
 rhomax                     =      0.0155000 
 rhomin                     =      0.0024000 
 volume of the QM region    =    353.0131305 
 surface of the QM region   =    273.3881081 

%%%% DIELECTRIC %%%%%%%%%%%%%%%%%%%%%%%%%%%%%%%%%%%%%%%%%%%%%%%%%%%%%%%%%%%%%%%%%
 dielectric build on homogeneous background
 environment bulk permitt.  =     78.3000000 
 dielectric flags
 need gradient              =  F 
 need factor depend. sqrt   =  T 
 total dielectric charge    =     -0.9944387

%%%% COMPUTE ELECTROSTATIC POTENTIAL %%%%%%%%%%%%%%%%%%%%%%%%%%%%%%%%%%%%%%%%%%%
 Warning: bad guess with residual norm =   0.129249E+06, reset to no guess
 Iteration #          1
  pAp =    75.4627182013079       rzold =    90.1710401535375       alpha = 
   1.19490845682226     
 delta_qm =   0.326226E+00 delta_en =   0.183899E+06 tol =   0.100000E-04
 Iteration #          2
  pAp =    485.751753214580       rzold =    114.698424949981       alpha = 
  0.236125601587511     
 delta_qm =   0.546010E+00 delta_en =   0.515164E+06 tol =   0.100000E-04
 Iteration #          3
  pAp =   -2936.37049833633       rzold =    409.592940221932       alpha = 
 -0.139489529830788     
 delta_qm =   0.609204E-01 delta_en =   0.641312E+04 tol =   0.100000E-04
 Iteration #          4
  pAp =    244.538166983659       rzold =    23.0138315197585       alpha = 
  9.411140928890832E-002
 delta_qm =   0.218104E-01 delta_en =   0.822002E+03 tol =   0.100000E-04
 Iteration #          5
  pAp =    61.5618002355262       rzold =    4.68745995598299       alpha = 
  7.614234700820115E-002
 delta_qm =   0.774784E-02 delta_en =   0.103730E+03 tol =   0.100000E-04
 Iteration #          6
  pAp =    1.90579966169565       rzold =   0.279381636111032       alpha = 
  0.146595490452788     
 delta_qm =   0.421355E-02 delta_en =   0.306789E+02 tol =   0.100000E-04
 Iteration #          7
  pAp =   0.139750595025679       rzold =   2.260590769247369E-002  alpha = 
  0.161758936971395     
 delta_qm =   0.358022E-02 delta_en =   0.221495E+02 tol =   0.100000E-04
 Iteration #          8
  pAp =   6.011351348596345E-002  rzold =   1.063461159421031E-002  alpha = 
  0.176908834262258     
 delta_qm =   0.310983E-02 delta_en =   0.167116E+02 tol =   0.100000E-04
 Iteration #          9
  pAp =   2.183330376085701E-002  rzold =   6.990450118673622E-003  alpha = 
  0.320173721542141     
 delta_qm =   0.244580E-02 delta_en =   0.103368E+02 tol =   0.100000E-04
 Iteration #         10
  pAp =   6.934611924884252E-003  rzold =   3.111088552322396E-003  alpha = 
  0.448631961820174     
 delta_qm =   0.211287E-02 delta_en =   0.771415E+01 tol =   0.100000E-04
 Iteration #         11
  pAp =   5.115671020515508E-003  rzold =   2.576766652042410E-003  alpha = 
  0.503700617516008     
 delta_qm =   0.150060E-02 delta_en =   0.389109E+01 tol =   0.100000E-04
 Iteration #         12
  pAp =   7.562767453059488E-003  rzold =   2.741429903008394E-003  alpha = 
  0.362490307949289     
 delta_qm =   0.924688E-03 delta_en =   0.147752E+01 tol =   0.100000E-04
 Iteration #         13
  pAp =   9.687642719754825E-003  rzold =   2.003178567014964E-003  alpha = 
  0.206776676737895     
 delta_qm =   0.520330E-03 delta_en =   0.467844E+00 tol =   0.100000E-04
 Iteration #         14
  pAp =   1.734097713799807E-003  rzold =   4.208000001359415E-004  alpha = 
  0.242662219543483     
 delta_qm =   0.362116E-03 delta_en =   0.226589E+00 tol =   0.100000E-04
 Iteration #         15
  pAp =   5.813561081613523E-004  rzold =   1.147009340205613E-004  alpha = 
  0.197298923001471     
 delta_qm =   0.330163E-03 delta_en =   0.188365E+00 tol =   0.100000E-04
 Iteration #         16
  pAp =   1.534075218700257E-004  rzold =   4.031993537265786E-005  alpha = 
  0.262828933556588     
 delta_qm =   0.261813E-03 delta_en =   0.118447E+00 tol =   0.100000E-04
 Iteration #         17
  pAp =   1.215840418954937E-004  rzold =   3.085124497192768E-005  alpha = 
  0.253744196121112     
 delta_qm =   0.173196E-03 delta_en =   0.518345E-01 tol =   0.100000E-04
 Iteration #         18
  pAp =   5.251334775223904E-005  rzold =   2.042911073685669E-005  alpha = 
  0.389027011441784     
 delta_qm =   0.132281E-03 delta_en =   0.302371E-01 tol =   0.100000E-04
 Iteration #         19
  pAp =   2.975015758566528E-005  rzold =   1.200502628295412E-005  alpha = 
  0.403528157737846     
 delta_qm =   0.105478E-03 delta_en =   0.192249E-01 tol =   0.100000E-04
 Iteration #         20
  pAp =   1.367714798453306E-005  rzold =   5.053748658610064E-006  alpha = 
  0.369503105788220     
 delta_qm =   0.749798E-04 delta_en =   0.971476E-02 tol =   0.100000E-04
 Iteration #         21
  pAp =   5.213932881553507E-006  rzold =   2.151381929757770E-006  alpha = 
  0.412621715436575     
 delta_qm =   0.425573E-04 delta_en =   0.312962E-02 tol =   0.100000E-04
 Iteration #         22
  pAp =   1.733330262712423E-006  rzold =   7.002441457412783E-007  alpha = 
  0.403987722827554     
 delta_qm =   0.242164E-04 delta_en =   0.101336E-02 tol =   0.100000E-04
 Iteration #         23
  pAp =   5.497016819551583E-007  rzold =   2.299702372277637E-007  alpha = 
  0.418354618108160     
 delta_qm =   0.185016E-04 delta_en =   0.591511E-03 tol =   0.100000E-04
 Iteration #         24
  pAp =   2.036357110055317E-006  rzold =   2.344994044285202E-007  alpha = 
  0.115156326594479     
 delta_qm =   0.174216E-04 delta_en =   0.524471E-03 tol =   0.100000E-04
 Iteration #         25
  pAp =   6.751932135648612E-007  rzold =   1.787455237668067E-007  alpha = 
  0.264732405740680     
 delta_qm =   0.130622E-04 delta_en =   0.294835E-03 tol =   0.100000E-04
 Iteration #         26
  pAp =   5.400227503880911E-007  rzold =   1.377970596376287E-007  alpha = 
  0.255168989711267     
 delta_qm =   0.967563E-05 delta_en =   0.161772E-03 tol =   0.100000E-04
 Iteration #         27
  pAp =   1.589019872220098E-007  rzold =   5.422328334632150E-008  alpha = 
  0.341237289062745     
 delta_qm =   0.711856E-05 delta_en =   0.875645E-04 tol =   0.100000E-04
 Iteration #         28
  pAp =   3.272895872890375E-008  rzold =   1.284360707214988E-008  alpha = 
  0.392423333065203     
 delta_qm =   0.474424E-05 delta_en =   0.388935E-04 tol =   0.100000E-04
 Iteration #         29
  pAp =   3.111129155757173E-008  rzold =   6.952893853954997E-009  alpha = 
  0.223484577652091     
 delta_qm =   0.336722E-05 delta_en =   0.195923E-04 tol =   0.100000E-04
 Iteration #         30
  pAp =   4.189879876002448E-008  rzold =   6.950209421801080E-009  alpha = 
  0.165880875526013     
 delta_qm =   0.256383E-05 delta_en =   0.113585E-04 tol =   0.100000E-04
 Iteration #         31
  pAp =   9.786152591229736E-009  rzold =   3.341989975566607E-009  alpha = 
  0.341501927791487     
 delta_qm =   0.181107E-05 delta_en =   0.566777E-05 tol =   0.100000E-04
 Charges are converged, EXIT

%%%% ELECTRONS %%%%%%%%%%%%%%%%%%%%%%%%%%%%%%%%%%%%%%%%%%%%%%%%%%%%%%%%%%%%%%%%%
 number of electrons        =         24
 total electronic charge    =     24.0000000
 number of spin components  =  1

%%%% BOUNDARY %%%%%%%%%%%%%%%%%%%%%%%%%%%%%%%%%%%%%%%%%%%%%%%%%%%%%%%%%%%%%%%%%%
 boundary mode              = electronic           
 boundary is built as a function of a smooth density
 function type              =  2 
 using the modified SCCS function with parameters 
 rhomax                     =      0.0155000 
 rhomin                     =      0.0024000 
 volume of the QM region    =    356.4977728 
 surface of the QM region   =    276.7599315 

%%%% DIELECTRIC %%%%%%%%%%%%%%%%%%%%%%%%%%%%%%%%%%%%%%%%%%%%%%%%%%%%%%%%%%%%%%%%%
 dielectric build on homogeneous background
 environment bulk permitt.  =     78.3000000 
 dielectric flags
 need gradient              =  F 
 need factor depend. sqrt   =  T 
 total dielectric charge    =     -1.8105308

%%%% COMPUTE ELECTROSTATIC POTENTIAL %%%%%%%%%%%%%%%%%%%%%%%%%%%%%%%%%%%%%%%%%%%
 Warning: bad guess with residual norm =   0.575362E+04, reset to no guess
 Iteration #          1
  pAp =    92.8806089130080       rzold =    90.1343742733996       alpha = 
  0.970432637428331     
 delta_qm =   0.560357E-01 delta_en =   0.542591E+04 tol =   0.100000E-04
 Iteration #          2
  pAp =    477.827962679304       rzold =    33.2440930454439       alpha = 
  6.957335200526089E-002
 delta_qm =   0.125717E-01 delta_en =   0.273106E+03 tol =   0.100000E-04
 Iteration #          3
  pAp =    11.8936652518374       rzold =    1.08432757974403       alpha = 
  9.116849657228393E-002
 delta_qm =   0.488496E-02 delta_en =   0.412350E+02 tol =   0.100000E-04
 Iteration #          4
  pAp =    2.80704424826361       rzold =   0.262726917825469       alpha = 
  9.359557405907924E-002
 delta_qm =   0.335366E-02 delta_en =   0.194349E+02 tol =   0.100000E-04
 Iteration #          5
  pAp =   0.101520945107045       rzold =   1.794412900559671E-002  alpha = 
  0.176752974341169     
 delta_qm =   0.275394E-02 delta_en =   0.131055E+02 tol =   0.100000E-04
 Iteration #          6
  pAp =   9.523705851522768E-003  rzold =   3.379811455987157E-003  alpha = 
  0.354884066001130     
 delta_qm =   0.215811E-02 delta_en =   0.804804E+01 tol =   0.100000E-04
 Iteration #          7
  pAp =   1.088981911581566E-002  rzold =   3.379502745487197E-003  alpha = 
  0.310335985340567     
 delta_qm =   0.157177E-02 delta_en =   0.426897E+01 tol =   0.100000E-04
 Iteration #          8
  pAp =   1.668164317386555E-002  rzold =   2.592079239401511E-003  alpha = 
  0.155385126775905     
 delta_qm =   0.144230E-02 delta_en =   0.359463E+01 tol =   0.100000E-04
 Iteration #          9
  pAp =   4.126619404799336E-003  rzold =   1.657184953316813E-003  alpha = 
  0.401584151760997     
 delta_qm =   0.108847E-02 delta_en =   0.204727E+01 tol =   0.100000E-04
 Iteration #         10
  pAp =   3.158378094783313E-003  rzold =   1.344229400056340E-003  alpha = 
  0.425607498442508     
 delta_qm =   0.676098E-03 delta_en =   0.789883E+00 tol =   0.100000E-04
 Iteration #         11
  pAp =   4.188890789620378E-003  rzold =   1.046910710598528E-003  alpha = 
  0.249925520424801     
 delta_qm =   0.368089E-03 delta_en =   0.234126E+00 tol =   0.100000E-04
 Iteration #         12
  pAp =   1.189599995492412E-003  rzold =   2.511839900292196E-004  alpha = 
  0.211149958793709     
 delta_qm =   0.302951E-03 delta_en =   0.158595E+00 tol =   0.100000E-04
 Iteration #         13
  pAp =   2.267651533499686E-004  rzold =   5.854654624426830E-005  alpha = 
  0.258181406531686     
 delta_qm =   0.270271E-03 delta_en =   0.126224E+00 tol =   0.100000E-04
 Iteration #         14
  pAp =   1.057773747000084E-004  rzold =   3.075137415852639E-005  alpha = 
  0.290717880319296     
 delta_qm =   0.204886E-03 delta_en =   0.725386E-01 tol =   0.100000E-04
 Iteration #         15
  pAp =   4.224580011006125E-005  rzold =   2.140418345967807E-005  alpha = 
  0.506658257244853     
 delta_qm =   0.135013E-03 delta_en =   0.314989E-01 tol =   0.100000E-04
 Iteration #         16
  pAp =   1.277464097775777E-004  rzold =   2.514785583716604E-005  alpha = 
  0.196857632875566     
 delta_qm =   0.110421E-03 delta_en =   0.210690E-01 tol =   0.100000E-04
 Iteration #         17
  pAp =   5.290058595424689E-005  rzold =   1.339446566050162E-005  alpha = 
  0.253200705037300     
 delta_qm =   0.807786E-04 delta_en =   0.112755E-01 tol =   0.100000E-04
 Iteration #         18
  pAp =   1.051978133650203E-005  rzold =   4.023727203333365E-006  alpha = 
  0.382491524740314     
 delta_qm =   0.519838E-04 delta_en =   0.466961E-02 tol =   0.100000E-04
 Iteration #         19
  pAp =   3.978334489040125E-006  rzold =   1.508990843150102E-006  alpha = 
  0.379302154534066     
 delta_qm =   0.306008E-04 delta_en =   0.161811E-02 tol =   0.100000E-04
 Iteration #         20
  pAp =   1.745572139753692E-006  rzold =   6.502761754188164E-007  alpha = 
  0.372528960911678     
 delta_qm =   0.239886E-04 delta_en =   0.994383E-03 tol =   0.100000E-04
 Iteration #         21
  pAp =   4.829489455438391E-007  rzold =   2.203919423124004E-007  alpha = 
  0.456346254290340     
 delta_qm =   0.171235E-04 delta_en =   0.506676E-03 tol =   0.100000E-04
 Iteration #         22
  pAp =   2.310046255724565E-007  rzold =   1.367760873880935E-007  alpha = 
  0.592092418275809     
 delta_qm =   0.113368E-04 delta_en =   0.222087E-03 tol =   0.100000E-04
 Iteration #         23
  pAp =   5.472566134080846E-007  rzold =   1.066458572468310E-007  alpha = 
  0.194873583313476     
 delta_qm =   0.734287E-05 delta_en =   0.931698E-04 tol =   0.100000E-04
 Iteration #         24
  pAp =   1.184075566230916E-006  rzold =   1.537898335109998E-007  alpha = 
  0.129881772664675     
 delta_qm =   0.485788E-05 delta_en =   0.407791E-04 tol =   0.100000E-04
 Iteration #         25
  pAp =   1.073757756227751E-007  rzold =   2.559819215521063E-008  alpha = 
  0.238398204872022     
 delta_qm =   0.373772E-05 delta_en =   0.241411E-04 tol =   0.100000E-04
 Iteration #         26
  pAp =   4.225819803104646E-008  rzold =   1.055571602914599E-008  alpha = 
  0.249790964143593     
 delta_qm =   0.300454E-05 delta_en =   0.155991E-04 tol =   0.100000E-04
 Iteration #         27
  pAp =   8.545424443962197E-009  rzold =   3.628373646300405E-009  alpha = 
  0.424598411710731     
 delta_qm =   0.211963E-05 delta_en =   0.776361E-05 tol =   0.100000E-04
 Charges are converged, EXIT

%%%% ELECTRONS %%%%%%%%%%%%%%%%%%%%%%%%%%%%%%%%%%%%%%%%%%%%%%%%%%%%%%%%%%%%%%%%%
 number of electrons        =         23
 total electronic charge    =     24.0000000
 number of spin components  =  1

%%%% BOUNDARY %%%%%%%%%%%%%%%%%%%%%%%%%%%%%%%%%%%%%%%%%%%%%%%%%%%%%%%%%%%%%%%%%%
 boundary mode              = electronic           
 boundary is built as a function of a smooth density
 function type              =  2 
 using the modified SCCS function with parameters 
 rhomax                     =      0.0155000 
 rhomin                     =      0.0024000 
 volume of the QM region    =    362.9917509 
 surface of the QM region   =    279.0902208 

%%%% DIELECTRIC %%%%%%%%%%%%%%%%%%%%%%%%%%%%%%%%%%%%%%%%%%%%%%%%%%%%%%%%%%%%%%%%%
 dielectric build on homogeneous background
 environment bulk permitt.  =     78.3000000 
 dielectric flags
 need gradient              =  F 
 need factor depend. sqrt   =  T 
 total dielectric charge    =     -0.9838717

%%%% COMPUTE ELECTROSTATIC POTENTIAL %%%%%%%%%%%%%%%%%%%%%%%%%%%%%%%%%%%%%%%%%%%
 Warning: bad guess with residual norm =   0.605889E+04, reset to no guess
 Iteration #          1
  pAp =    93.8215817251362       rzold =    90.8953464325058       alpha = 
  0.968810637821016     
 delta_qm =   0.574087E-01 delta_en =   0.569508E+04 tol =   0.100000E-04
 Iteration #          2
  pAp =    485.927441504487       rzold =    34.5426066065564       alpha = 
  7.108593517503063E-002
 delta_qm =   0.128662E-01 delta_en =   0.286052E+03 tol =   0.100000E-04
 Iteration #          3
  pAp =    12.1601799630756       rzold =    1.13887776335107       alpha = 
  9.365632472621901E-002
 delta_qm =   0.468713E-02 delta_en =   0.379627E+02 tol =   0.100000E-04
 Iteration #          4
  pAp =    2.81846142120099       rzold =   0.262906822712762       alpha = 
  9.328026303114464E-002
 delta_qm =   0.345254E-02 delta_en =   0.205978E+02 tol =   0.100000E-04
 Iteration #          5
  pAp =   0.114781582860491       rzold =   2.030673274583952E-002  alpha = 
  0.176916298240293     
 delta_qm =   0.275657E-02 delta_en =   0.131305E+02 tol =   0.100000E-04
 Iteration #          6
  pAp =   9.851611060415702E-003  rzold =   3.609525965177804E-003  alpha = 
  0.366389410122074     
 delta_qm =   0.214855E-02 delta_en =   0.797692E+01 tol =   0.100000E-04
 Iteration #          7
  pAp =   8.388315349355439E-003  rzold =   3.175735583874527E-003  alpha = 
  0.378590390514891     
 delta_qm =   0.155343E-02 delta_en =   0.416990E+01 tol =   0.100000E-04
 Iteration #          8
  pAp =   3.694136453641639E-003  rzold =   1.557214313353114E-003  alpha = 
  0.421536760456704     
 delta_qm =   0.127582E-02 delta_en =   0.281268E+01 tol =   0.100000E-04
 Iteration #          9
  pAp =   9.283215706278287E-003  rzold =   1.962799413799823E-003  alpha = 
  0.211435290949059     
 delta_qm =   0.105490E-02 delta_en =   0.192293E+01 tol =   0.100000E-04
 Iteration #         10
  pAp =   7.130675852011779E-003  rzold =   1.859517256872987E-003  alpha = 
  0.260777140269020     
 delta_qm =   0.654630E-03 delta_en =   0.740518E+00 tol =   0.100000E-04
 Iteration #         11
  pAp =   5.313267990215038E-003  rzold =   1.165138457708144E-003  alpha = 
  0.219288479303862     
 delta_qm =   0.386020E-03 delta_en =   0.257492E+00 tol =   0.100000E-04
 Iteration #         12
  pAp =   1.617806619552407E-003  rzold =   3.243734280099903E-004  alpha = 
  0.200501978474865     
 delta_qm =   0.284362E-03 delta_en =   0.139729E+00 tol =   0.100000E-04
 Iteration #         13
  pAp =   2.158729422310440E-004  rzold =   5.950828766458836E-005  alpha = 
  0.275663485426061     
 delta_qm =   0.258888E-03 delta_en =   0.115815E+00 tol =   0.100000E-04
 Iteration #         14
  pAp =   8.515195110031720E-005  rzold =   2.712193246215356E-005  alpha = 
  0.318512166916778     
 delta_qm =   0.190703E-03 delta_en =   0.628433E-01 tol =   0.100000E-04
 Iteration #         15
  pAp =   3.440989741764770E-005  rzold =   1.847132516285665E-005  alpha = 
  0.536802680306257     
 delta_qm =   0.127698E-03 delta_en =   0.281782E-01 tol =   0.100000E-04
 Iteration #         16
  pAp =   8.517340838395303E-005  rzold =   1.985574541359379E-005  alpha = 
  0.233121414186997     
 delta_qm =   0.103072E-03 delta_en =   0.183580E-01 tol =   0.100000E-04
 Iteration #         17
  pAp =   6.185726910387254E-005  rzold =   1.326437583913936E-005  alpha = 
  0.214435199472926     
 delta_qm =   0.779066E-04 delta_en =   0.104880E-01 tol =   0.100000E-04
 Iteration #         18
  pAp =   1.116358091839920E-005  rzold =   4.115299766552378E-006  alpha = 
  0.368636174775225     
 delta_qm =   0.523440E-04 delta_en =   0.473454E-02 tol =   0.100000E-04
 Iteration #         19
  pAp =   4.227244380783087E-006  rzold =   1.572813688886205E-006  alpha = 
  0.372065948218221     
 delta_qm =   0.308402E-04 delta_en =   0.164353E-02 tol =   0.100000E-04
 Iteration #         20
  pAp =   1.611222080527742E-006  rzold =   6.445373373333116E-007  alpha = 
  0.400030104554053     
 delta_qm =   0.240170E-04 delta_en =   0.996736E-03 tol =   0.100000E-04
 Iteration #         21
  pAp =   5.055785370419656E-007  rzold =   2.286879195885705E-007  alpha = 
  0.452329169126869     
 delta_qm =   0.176005E-04 delta_en =   0.535293E-03 tol =   0.100000E-04
 Iteration #         22
  pAp =   2.181200691073950E-007  rzold =   1.355017328889310E-007  alpha = 
  0.621225426176692     
 delta_qm =   0.107968E-04 delta_en =   0.201434E-03 tol =   0.100000E-04
 Iteration #         23
  pAp =   4.933912663356936E-007  rzold =   9.865949673368297E-008  alpha = 
  0.199961984463983     
 delta_qm =   0.681621E-05 delta_en =   0.802841E-04 tol =   0.100000E-04
 Iteration #         24
  pAp =   1.091922670188589E-006  rzold =   1.405989079901685E-007  alpha = 
  0.128762697056088     
 delta_qm =   0.464510E-05 delta_en =   0.372849E-04 tol =   0.100000E-04
 Iteration #         25
  pAp =   7.919005816284061E-008  rzold =   2.202493267321660E-008  alpha = 
  0.278127497114930     
 delta_qm =   0.342688E-05 delta_en =   0.202927E-04 tol =   0.100000E-04
 Iteration #         26
  pAp =   3.140735315493738E-008  rzold =   7.991337212204931E-009  alpha = 
  0.254441600754524     
 delta_qm =   0.280393E-05 delta_en =   0.135856E-04 tol =   0.100000E-04
 Iteration #         27
  pAp =   1.013146840185185E-008  rzold =   3.720132894722215E-009  alpha = 
  0.367185954411331     
 delta_qm =   0.209133E-05 delta_en =   0.755770E-05 tol =   0.100000E-04
 Charges are converged, EXIT

%%%% ELECTRONS %%%%%%%%%%%%%%%%%%%%%%%%%%%%%%%%%%%%%%%%%%%%%%%%%%%%%%%%%%%%%%%%%
 number of electrons        =         23
 total electronic charge    =     24.0000000
 number of spin components  =  1

%%%% BOUNDARY %%%%%%%%%%%%%%%%%%%%%%%%%%%%%%%%%%%%%%%%%%%%%%%%%%%%%%%%%%%%%%%%%%
 boundary mode              = electronic           
 boundary is built as a function of a smooth density
 function type              =  2 
 using the modified SCCS function with parameters 
 rhomax                     =      0.0155000 
 rhomin                     =      0.0024000 
 volume of the QM region    =    365.2212458 
 surface of the QM region   =    279.9592443 

%%%% DIELECTRIC %%%%%%%%%%%%%%%%%%%%%%%%%%%%%%%%%%%%%%%%%%%%%%%%%%%%%%%%%%%%%%%%%
 dielectric build on homogeneous background
 environment bulk permitt.  =     78.3000000 
 dielectric flags
 need gradient              =  F 
 need factor depend. sqrt   =  T 
 total dielectric charge    =     -0.9839470

%%%% COMPUTE ELECTROSTATIC POTENTIAL %%%%%%%%%%%%%%%%%%%%%%%%%%%%%%%%%%%%%%%%%%%
 Warning: bad guess with residual norm =   0.661477E+04, reset to no guess
 Iteration #          1
  pAp =    94.0141685415752       rzold =    90.8237253804995       alpha = 
  0.966064230417941     
 delta_qm =   0.598178E-01 delta_en =   0.618307E+04 tol =   0.100000E-04
 Iteration #          2
  pAp =    512.891026703089       rzold =    36.9590852968335       alpha = 
  7.206030788725235E-002
 delta_qm =   0.134956E-01 delta_en =   0.314724E+03 tol =   0.100000E-04
 Iteration #          3
  pAp =    13.0762609424575       rzold =    1.24561181813993       alpha = 
  9.525749169592715E-002
 delta_qm =   0.475626E-02 delta_en =   0.390909E+02 tol =   0.100000E-04
 Iteration #          4
  pAp =    3.07774491875982       rzold =   0.283005201735750       alpha = 
  9.195213027913525E-002
 delta_qm =   0.354491E-02 delta_en =   0.217147E+02 tol =   0.100000E-04
 Iteration #          5
  pAp =   0.132870347863412       rzold =   2.345187090732051E-002  alpha = 
  0.176501915471979     
 delta_qm =   0.276173E-02 delta_en =   0.131798E+02 tol =   0.100000E-04
 Iteration #          6
  pAp =   1.094783434705114E-002  rzold =   3.886822150662200E-003  alpha = 
  0.355031143827011     
 delta_qm =   0.216522E-02 delta_en =   0.810114E+01 tol =   0.100000E-04
 Iteration #          7
  pAp =   8.595743133038404E-003  rzold =   3.186420817306675E-003  alpha = 
  0.370697538070841     
 delta_qm =   0.160683E-02 delta_en =   0.446154E+01 tol =   0.100000E-04
 Iteration #          8
  pAp =   9.582385502480468E-003  rzold =   2.084288883379876E-003  alpha = 
  0.217512526796208     
 delta_qm =   0.142310E-02 delta_en =   0.349955E+01 tol =   0.100000E-04
 Iteration #          9
  pAp =   9.228423447813595E-003  rzold =   2.333696301859158E-003  alpha = 
  0.252881363220503     
 delta_qm =   0.113765E-02 delta_en =   0.223646E+01 tol =   0.100000E-04
 Iteration #         10
  pAp =   3.688347234361776E-003  rzold =   1.409002899785920E-003  alpha = 
  0.382014710182169     
 delta_qm =   0.714980E-03 delta_en =   0.883348E+00 tol =   0.100000E-04
 Iteration #         11
  pAp =   5.243526744817689E-003  rzold =   1.243556806690142E-003  alpha = 
  0.237160382164386     
 delta_qm =   0.403845E-03 delta_en =   0.281821E+00 tol =   0.100000E-04
 Iteration #         12
  pAp =   1.753194270215544E-003  rzold =   3.739320001667865E-004  alpha = 
  0.213286118098489     
 delta_qm =   0.280877E-03 delta_en =   0.136325E+00 tol =   0.100000E-04
 Iteration #         13
  pAp =   2.183765663371576E-004  rzold =   6.237980464617462E-005  alpha = 
  0.285652465795550     
 delta_qm =   0.253589E-03 delta_en =   0.111123E+00 tol =   0.100000E-04
 Iteration #         14
  pAp =   8.249686091008228E-005  rzold =   2.591919181531573E-005  alpha = 
  0.314183976570532     
 delta_qm =   0.189141E-03 delta_en =   0.618179E-01 tol =   0.100000E-04
 Iteration #         15
  pAp =   3.192604653389844E-005  rzold =   1.734759812061328E-005  alpha = 
  0.543368190051153     
 delta_qm =   0.126949E-03 delta_en =   0.278484E-01 tol =   0.100000E-04
 Iteration #         16
  pAp =   6.114330702905648E-005  rzold =   1.730418130855712E-005  alpha = 
  0.283010228745623     
 delta_qm =   0.968524E-04 delta_en =   0.162093E-01 tol =   0.100000E-04
 Iteration #         17
  pAp =   6.774924635674205E-005  rzold =   1.285757366629888E-005  alpha = 
  0.189781796222437     
 delta_qm =   0.759262E-04 delta_en =   0.996154E-02 tol =   0.100000E-04
 Iteration #         18
  pAp =   1.333871268026483E-005  rzold =   4.491239954925096E-006  alpha = 
  0.336707151775604     
 delta_qm =   0.538800E-04 delta_en =   0.501647E-02 tol =   0.100000E-04
 Iteration #         19
  pAp =   4.450409851498396E-006  rzold =   1.642753058010139E-006  alpha = 
  0.369123993705219     
 delta_qm =   0.322842E-04 delta_en =   0.180104E-02 tol =   0.100000E-04
 Iteration #         20
  pAp =   1.593685031061463E-006  rzold =   6.622569414803723E-007  alpha = 
  0.415550707054882     
 delta_qm =   0.246282E-04 delta_en =   0.104812E-02 tol =   0.100000E-04
 Iteration #         21
  pAp =   5.523362165450466E-007  rzold =   2.452006008104839E-007  alpha = 
  0.443933592376494     
 delta_qm =   0.181862E-04 delta_en =   0.571517E-03 tol =   0.100000E-04
 Iteration #         22
  pAp =   2.244467561667537E-007  rzold =   1.381350830106407E-007  alpha = 
  0.615447001194407     
 delta_qm =   0.116205E-04 delta_en =   0.233342E-03 tol =   0.100000E-04
 Iteration #         23
  pAp =   7.183233824851624E-007  rzold =   1.143766264110458E-007  alpha = 
  0.159227207689301     
 delta_qm =   0.778777E-05 delta_en =   0.104802E-03 tol =   0.100000E-04
 Iteration #         24
  pAp =   8.232459650147185E-007  rzold =   1.360453887214130E-007  alpha = 
  0.165254850315581     
 delta_qm =   0.488103E-05 delta_en =   0.411686E-04 tol =   0.100000E-04
 Iteration #         25
  pAp =   7.963536720846641E-008  rzold =   2.385951267227570E-008  alpha = 
  0.299609501514788     
 delta_qm =   0.341194E-05 delta_en =   0.201162E-04 tol =   0.100000E-04
 Iteration #         26
  pAp =   2.409583969245727E-008  rzold =   7.173279074794252E-009  alpha = 
  0.297697825282250     
 delta_qm =   0.273295E-05 delta_en =   0.129064E-04 tol =   0.100000E-04
 Iteration #         27
  pAp =   1.204735231563345E-008  rzold =   3.809425156715062E-009  alpha = 
  0.316204345727625     
 delta_qm =   0.214740E-05 delta_en =   0.796839E-05 tol =   0.100000E-04
 Charges are converged, EXIT

%%%% ELECTRONS %%%%%%%%%%%%%%%%%%%%%%%%%%%%%%%%%%%%%%%%%%%%%%%%%%%%%%%%%%%%%%%%%
 number of electrons        =         23
 total electronic charge    =     24.0000000
 number of spin components  =  1

%%%% BOUNDARY %%%%%%%%%%%%%%%%%%%%%%%%%%%%%%%%%%%%%%%%%%%%%%%%%%%%%%%%%%%%%%%%%%
 boundary mode              = electronic           
 boundary is built as a function of a smooth density
 function type              =  2 
 using the modified SCCS function with parameters 
 rhomax                     =      0.0155000 
 rhomin                     =      0.0024000 
 volume of the QM region    =    365.7937023 
 surface of the QM region   =    279.9619808 

%%%% DIELECTRIC %%%%%%%%%%%%%%%%%%%%%%%%%%%%%%%%%%%%%%%%%%%%%%%%%%%%%%%%%%%%%%%%%
 dielectric build on homogeneous background
 environment bulk permitt.  =     78.3000000 
 dielectric flags
 need gradient              =  F 
 need factor depend. sqrt   =  T 
 total dielectric charge    =     -0.9832405

%%%% COMPUTE ELECTROSTATIC POTENTIAL %%%%%%%%%%%%%%%%%%%%%%%%%%%%%%%%%%%%%%%%%%%
 Warning: bad guess with residual norm =   0.678289E+04, reset to no guess
 Iteration #          1
  pAp =    94.1655693303841       rzold =    90.8992745674684       alpha = 
  0.965313279724824     
 delta_qm =   0.605268E-01 delta_en =   0.633052E+04 tol =   0.100000E-04
 Iteration #          2
  pAp =    518.973078870520       rzold =    37.5943075374707       alpha = 
  7.243980288783006E-002
 delta_qm =   0.136877E-01 delta_en =   0.323748E+03 tol =   0.100000E-04
 Iteration #          3
  pAp =    13.1647516196159       rzold =    1.26700227164384       alpha = 
  9.624201870667828E-002
 delta_qm =   0.473255E-02 delta_en =   0.387021E+02 tol =   0.100000E-04
 Iteration #          4
  pAp =    3.14721736845820       rzold =   0.285832397648799       alpha = 
  9.082067241794174E-002
 delta_qm =   0.357529E-02 delta_en =   0.220884E+02 tol =   0.100000E-04
 Iteration #          5
  pAp =   0.137806065335015       rzold =   2.425147898235500E-002  alpha = 
  0.175982667550940     
 delta_qm =   0.276759E-02 delta_en =   0.132357E+02 tol =   0.100000E-04
 Iteration #          6
  pAp =   1.116377362626663E-002  rzold =   3.944462350328478E-003  alpha = 
  0.353326973689951     
 delta_qm =   0.217548E-02 delta_en =   0.817812E+01 tol =   0.100000E-04
 Iteration #          7
  pAp =   9.074362271063112E-003  rzold =   3.228184749995938E-003  alpha = 
  0.355747836990173     
 delta_qm =   0.164185E-02 delta_en =   0.465813E+01 tol =   0.100000E-04
 Iteration #          8
  pAp =   1.445345271994929E-002  rzold =   2.528324493549072E-003  alpha = 
  0.174928755262704     
 delta_qm =   0.146752E-02 delta_en =   0.372143E+01 tol =   0.100000E-04
 Iteration #          9
  pAp =   6.398280874005371E-003  rzold =   2.045696656286067E-003  alpha = 
  0.319725985240383     
 delta_qm =   0.115298E-02 delta_en =   0.229714E+01 tol =   0.100000E-04
 Iteration #         10
  pAp =   3.516826283859412E-003  rzold =   1.385735510952844E-003  alpha = 
  0.394030128048326     
 delta_qm =   0.722083E-03 delta_en =   0.900987E+00 tol =   0.100000E-04
 Iteration #         11
  pAp =   5.309233545610516E-003  rzold =   1.257138703358385E-003  alpha = 
  0.236783462727448     
 delta_qm =   0.406251E-03 delta_en =   0.285189E+00 tol =   0.100000E-04
 Iteration #         12
  pAp =   1.785364420161221E-003  rzold =   3.844787136906307E-004  alpha = 
  0.215350272106303     
 delta_qm =   0.280407E-03 delta_en =   0.135869E+00 tol =   0.100000E-04
 Iteration #         13
  pAp =   2.044811234654021E-004  rzold =   6.075091326493063E-005  alpha = 
  0.297097904370667     
 delta_qm =   0.250730E-03 delta_en =   0.108631E+00 tol =   0.100000E-04
 Iteration #         14
  pAp =   7.737400399676647E-005  rzold =   2.456181047670338E-005  alpha = 
  0.317442670767430     
 delta_qm =   0.186351E-03 delta_en =   0.600076E-01 tol =   0.100000E-04
 Iteration #         15
  pAp =   3.332861596367330E-005  rzold =   1.749371896572585E-005  alpha = 
  0.524885851389485     
 delta_qm =   0.126685E-03 delta_en =   0.277330E-01 tol =   0.100000E-04
 Iteration #         16
  pAp =   5.504085923766684E-005  rzold =   1.656084264431856E-005  alpha = 
  0.300882705569852     
 delta_qm =   0.939732E-04 delta_en =   0.152599E-01 tol =   0.100000E-04
 Iteration #         17
  pAp =   6.371593842954666E-005  rzold =   1.187849587242715E-005  alpha = 
  0.186428955850061     
 delta_qm =   0.743792E-04 delta_en =   0.955974E-02 tol =   0.100000E-04
 Iteration #         18
  pAp =   1.464995278781863E-005  rzold =   4.639011443493326E-006  alpha = 
  0.316657091710947     
 delta_qm =   0.540054E-04 delta_en =   0.503986E-02 tol =   0.100000E-04
 Iteration #         19
  pAp =   4.490355566428127E-006  rzold =   1.650343453686077E-006  alpha = 
  0.367530684212353     
 delta_qm =   0.324073E-04 delta_en =   0.181480E-02 tol =   0.100000E-04
 Iteration #         20
  pAp =   1.581156502681127E-006  rzold =   6.597433845290688E-007  alpha = 
  0.417253689568590     
 delta_qm =   0.247632E-04 delta_en =   0.105964E-02 tol =   0.100000E-04
 Iteration #         21
  pAp =   5.424074428831080E-007  rzold =   2.431611066136591E-007  alpha = 
  0.448299723398268     
 delta_qm =   0.182080E-04 delta_en =   0.572888E-03 tol =   0.100000E-04
 Iteration #         22
  pAp =   2.185322090181558E-007  rzold =   1.362691285215453E-007  alpha = 
  0.623565419183696     
 delta_qm =   0.114756E-04 delta_en =   0.227559E-03 tol =   0.100000E-04
 Iteration #         23
  pAp =   4.970951468029529E-007  rzold =   1.018244061403792E-007  alpha = 
  0.204838865950027     
 delta_qm =   0.717335E-05 delta_en =   0.889175E-04 tol =   0.100000E-04
 Iteration #         24
  pAp =   1.139786398878129E-006  rzold =   1.474854962497293E-007  alpha = 
  0.129397487454576     
 delta_qm =   0.489085E-05 delta_en =   0.413345E-04 tol =   0.100000E-04
 Iteration #         25
  pAp =   8.061792319901275E-008  rzold =   2.406856386704127E-008  alpha = 
  0.298551028257399     
 delta_qm =   0.336572E-05 delta_en =   0.195749E-04 tol =   0.100000E-04
 Iteration #         26
  pAp =   2.249648172988432E-008  rzold =   6.937631855769365E-009  alpha = 
  0.308387415377642     
 delta_qm =   0.266016E-05 delta_en =   0.122281E-04 tol =   0.100000E-04
 Iteration #         27
  pAp =   1.124766920491168E-008  rzold =   3.549429190308255E-009  alpha = 
  0.315570197313260     
 delta_qm =   0.212085E-05 delta_en =   0.777258E-05 tol =   0.100000E-04
 Charges are converged, EXIT

%%%% ELECTRONS %%%%%%%%%%%%%%%%%%%%%%%%%%%%%%%%%%%%%%%%%%%%%%%%%%%%%%%%%%%%%%%%%
[...]
  0.488413083134453     
 delta_qm =   0.166638E-03 delta_en =   0.479833E-01 tol =   0.100000E-04
 Iteration #         22
  pAp =   1.101229997011918E-004  rzold =   1.762751434608392E-005  alpha = 
  0.160071142212930     
 delta_qm =   0.134801E-03 delta_en =   0.314000E-01 tol =   0.100000E-04
 Iteration #         23
  pAp =   1.276843582235999E-004  rzold =   2.136053194255610E-005  alpha = 
  0.167291688972190     
 delta_qm =   0.837788E-04 delta_en =   0.121286E-01 tol =   0.100000E-04
 Iteration #         24
  pAp =   6.299605135508499E-006  rzold =   2.831108614748634E-006  alpha = 
  0.449410487459086     
 delta_qm =   0.621650E-04 delta_en =   0.667783E-02 tol =   0.100000E-04
 Iteration #         25
  pAp =   2.276949866408650E-006  rzold =   1.230415120655913E-006  alpha = 
  0.540378661299470     
 delta_qm =   0.449306E-04 delta_en =   0.348842E-02 tol =   0.100000E-04
 Iteration #         26
  pAp =   3.063036305891969E-006  rzold =   1.096257577419596E-006  alpha = 
  0.357898982558864     
 delta_qm =   0.335165E-04 delta_en =   0.194116E-02 tol =   0.100000E-04
 Iteration #         27
  pAp =   3.354770514112134E-006  rzold =   9.808401302723313E-007  alpha = 
  0.292371751255814     
 delta_qm =   0.251224E-04 delta_en =   0.109060E-02 tol =   0.100000E-04
 Iteration #         28
  pAp =   1.103872911598372E-006  rzold =   2.999152108146351E-007  alpha = 
  0.271693605000568     
 delta_qm =   0.183443E-04 delta_en =   0.581495E-03 tol =   0.100000E-04
 Iteration #         29
  pAp =   1.543910053822010E-006  rzold =   2.010352135674260E-007  alpha = 
  0.130211739388415     
 delta_qm =   0.152846E-04 delta_en =   0.403696E-03 tol =   0.100000E-04
 Iteration #         30
  pAp =   3.048229219583247E-007  rzold =   8.160199154362874E-008  alpha = 
  0.267702937231162     
 delta_qm =   0.960732E-05 delta_en =   0.159495E-03 tol =   0.100000E-04
 Iteration #         31
  pAp =   6.485398434056263E-008  rzold =   2.646832955711496E-008  alpha = 
  0.408121872946524     
 delta_qm =   0.571977E-05 delta_en =   0.565328E-04 tol =   0.100000E-04
 Iteration #         32
  pAp =   3.747141695912218E-008  rzold =   1.517292691986252E-008  alpha = 
  0.404920020409550     
 delta_qm =   0.445435E-05 delta_en =   0.342857E-04 tol =   0.100000E-04
 Iteration #         33
  pAp =   2.987454839135728E-008  rzold =   9.436096074753482E-009  alpha = 
  0.315857362967982     
 delta_qm =   0.414055E-05 delta_en =   0.296251E-04 tol =   0.100000E-04
 Iteration #         34
  pAp =   1.157837354895683E-008  rzold =   4.363114869201407E-009  alpha = 
  0.376833140747520     
 delta_qm =   0.317508E-05 delta_en =   0.174202E-04 tol =   0.100000E-04
 Iteration #         35
  pAp =   1.222401834684470E-008  rzold =   2.510285263781969E-009  alpha = 
  0.205356797785724     
 delta_qm =   0.249049E-05 delta_en =   0.107180E-04 tol =   0.100000E-04
 Iteration #         36
  pAp =   1.266260840982608E-008  rzold =   2.529604205676144E-009  alpha = 
  0.199769599106705     
 delta_qm =   0.158223E-05 delta_en =   0.432596E-05 tol =   0.100000E-04
 Charges are converged, EXIT

%%%% ELECTRONS %%%%%%%%%%%%%%%%%%%%%%%%%%%%%%%%%%%%%%%%%%%%%%%%%%%%%%%%%%%%%%%%%
 number of electrons        =         23
 total electronic charge    =     24.0000000
 number of spin components  =  1

%%%% BOUNDARY %%%%%%%%%%%%%%%%%%%%%%%%%%%%%%%%%%%%%%%%%%%%%%%%%%%%%%%%%%%%%%%%%%
 boundary mode              = electronic           
 boundary is built as a function of a smooth density
 function type              =  2 
 using the modified SCCS function with parameters 
 rhomax                     =      0.0155000 
 rhomin                     =      0.0024000 
 volume of the QM region    =    366.0513183 
 surface of the QM region   =    278.5087504 

%%%% DIELECTRIC %%%%%%%%%%%%%%%%%%%%%%%%%%%%%%%%%%%%%%%%%%%%%%%%%%%%%%%%%%%%%%%%%
 dielectric build on homogeneous background
 environment bulk permitt.  =     78.3000000 
 dielectric flags
 need gradient              =  F 
 need factor depend. sqrt   =  T 
 total dielectric charge    =     -5.0411609

%%%% COMPUTE ELECTROSTATIC POTENTIAL %%%%%%%%%%%%%%%%%%%%%%%%%%%%%%%%%%%%%%%%%%%
 Warning: bad guess with residual norm =   0.227147E+05, reset to no guess
 Iteration #          1
  pAp =    88.4268928400901       rzold =    91.4428041959208       alpha = 
   1.03410626856792     
 delta_qm =   0.118463E+00 delta_en =   0.242499E+05 tol =   0.100000E-04
 Iteration #          2
  pAp =    589.841223033817       rzold =    51.2810178068799       alpha = 
  8.694037616278959E-002
 delta_qm =   0.102729E+00 delta_en =   0.182361E+05 tol =   0.100000E-04
 Iteration #          3
  pAp =    18.1961834676365       rzold =    10.1850313026824       alpha = 
  0.559734480628718     
 delta_qm =   0.127519E+00 delta_en =   0.280994E+05 tol =   0.100000E-04
 Iteration #          4
  pAp =    126.288787162373       rzold =    57.3530137783681       alpha = 
  0.454141773526003     
 delta_qm =   0.236832E+00 delta_en =   0.969226E+05 tol =   0.100000E-04
 Iteration #          5
  pAp =   -90.1619724953667       rzold =    308.709297617301       alpha = 
  -3.42394125897329     
 delta_qm =   0.171524E+01 delta_en =   0.508386E+07 tol =   0.100000E-04
 Iteration #          6
  pAp =    320747.089711598       rzold =    15170.9914044059       alpha = 
  4.729892145879495E-002
 delta_qm =   0.159759E+00 delta_en =   0.441034E+05 tol =   0.100000E-04
 Iteration #          7
  pAp =    1102.68635720817       rzold =    114.142038687222       alpha = 
  0.103512696916113     
 delta_qm =   0.107363E+00 delta_en =   0.199184E+05 tol =   0.100000E-04
 Iteration #          8
  pAp =    135.624061219900       rzold =    22.0474823797782       alpha = 
  0.162563207306044     
 delta_qm =   0.740649E-01 delta_en =   0.947913E+04 tol =   0.100000E-04
 Iteration #          9
  pAp =    12.3363213951916       rzold =    4.44578588734260       alpha = 
  0.360381814393669     
 delta_qm =   0.455234E-01 delta_en =   0.358107E+04 tol =   0.100000E-04
 Iteration #         10
  pAp =    6.33147823715027       rzold =    1.80088572096151       alpha = 
  0.284433690444472     
 delta_qm =   0.382884E-01 delta_en =   0.253325E+04 tol =   0.100000E-04
 Iteration #         11
  pAp =    3.38328871096494       rzold =   0.839622920584113       alpha = 
  0.248167683077997     
 delta_qm =   0.348564E-01 delta_en =   0.209947E+04 tol =   0.100000E-04
 Iteration #         12
  pAp =    1.21524743719028       rzold =   0.498715824190188       alpha = 
  0.410382123778223     
 delta_qm =   0.282157E-01 delta_en =   0.137570E+04 tol =   0.100000E-04
 Iteration #         13
  pAp =   0.833196559772678       rzold =   0.511588060309121       alpha = 
  0.614006448188766     
 delta_qm =   0.158974E-01 delta_en =   0.436715E+03 tol =   0.100000E-04
 Iteration #         14
  pAp =    1.21505245611734       rzold =   0.387425690057371       alpha = 
  0.318855114531744     
 delta_qm =   0.892491E-02 delta_en =   0.137642E+03 tol =   0.100000E-04
 Iteration #         15
  pAp =   0.550038462188885       rzold =   0.124636880826005       alpha = 
  0.226596664404178     
 delta_qm =   0.682070E-02 delta_en =   0.803899E+02 tol =   0.100000E-04
 Iteration #         16
  pAp =   9.618243120319862E-002  rzold =   2.472780447433348E-002  alpha = 
  0.257092736843931     
 delta_qm =   0.508947E-02 delta_en =   0.447598E+02 tol =   0.100000E-04
 Iteration #         17
  pAp =   4.120716266432431E-002  rzold =   9.930537521427075E-003  alpha = 
  0.240990567642857     
 delta_qm =   0.377022E-02 delta_en =   0.245627E+02 tol =   0.100000E-04
 Iteration #         18
  pAp =   2.910047040734373E-002  rzold =   6.898351298399419E-003  alpha = 
  0.237052913641512     
 delta_qm =   0.263081E-02 delta_en =   0.119598E+02 tol =   0.100000E-04
 Iteration #         19
  pAp =   8.166850963417051E-003  rzold =   3.250249332100100E-003  alpha = 
  0.397980732923793     
 delta_qm =   0.163810E-02 delta_en =   0.463686E+01 tol =   0.100000E-04
 Iteration #         20
  pAp =   4.160497241746276E-003  rzold =   1.839094079685566E-003  alpha = 
  0.442037086632858     
 delta_qm =   0.141569E-02 delta_en =   0.346321E+01 tol =   0.100000E-04
 Iteration #         21
  pAp =   1.695939139556630E-003  rzold =   8.807523449756311E-004  alpha = 
  0.519330160164761     
 delta_qm =   0.953768E-03 delta_en =   0.157192E+01 tol =   0.100000E-04
 Iteration #         22
  pAp =   9.125795076360577E-004  rzold =   4.057652558739443E-004  alpha = 
  0.444635511184156     
 delta_qm =   0.570154E-03 delta_en =   0.561730E+00 tol =   0.100000E-04
 Iteration #         23
  pAp =   6.430812375485426E-004  rzold =   1.280852609610052E-004  alpha = 
  0.199174308753389     
 delta_qm =   0.483923E-03 delta_en =   0.404666E+00 tol =   0.100000E-04
 Iteration #         24
  pAp =   1.339032430082929E-003  rzold =   1.854421006395872E-004  alpha = 
  0.138489626146024     
 delta_qm =   0.380236E-03 delta_en =   0.249833E+00 tol =   0.100000E-04
 Iteration #         25
  pAp =   8.691135089906159E-005  rzold =   4.027982238515149E-005  alpha = 
  0.463458707849706     
 delta_qm =   0.278398E-03 delta_en =   0.133930E+00 tol =   0.100000E-04
 Iteration #         26
  pAp =   8.079740896935814E-005  rzold =   3.290988772183263E-005  alpha = 
  0.407313652029528     
 delta_qm =   0.199818E-03 delta_en =   0.689945E-01 tol =   0.100000E-04
 Iteration #         27
  pAp =   8.159705953829896E-005  rzold =   2.548204489800498E-005  alpha = 
  0.312291215421121     
 delta_qm =   0.162109E-03 delta_en =   0.454108E-01 tol =   0.100000E-04
 Iteration #         28
  pAp =   4.814641049736457E-005  rzold =   1.286514902443259E-005  alpha = 
  0.267208892449766     
 delta_qm =   0.123777E-03 delta_en =   0.264742E-01 tol =   0.100000E-04
 Iteration #         29
  pAp =   1.003372261441261E-005  rzold =   3.597176859729329E-006  alpha = 
  0.358508700904516     
 delta_qm =   0.792918E-04 delta_en =   0.108643E-01 tol =   0.100000E-04
 Iteration #         30
  pAp =   1.974675533694599E-005  rzold =   2.464617895866927E-006  alpha = 
  0.124811284376206     
 delta_qm =   0.608464E-04 delta_en =   0.639755E-02 tol =   0.100000E-04
 Iteration #         31
  pAp =   3.352954335977252E-006  rzold =   1.086292514081861E-006  alpha = 
  0.323980706335880     
 delta_qm =   0.340924E-04 delta_en =   0.200844E-02 tol =   0.100000E-04
 Iteration #         32
  pAp =   1.080209677242508E-006  rzold =   4.196590289249941E-007  alpha = 
  0.388497749803791     
 delta_qm =   0.230435E-04 delta_en =   0.917572E-03 tol =   0.100000E-04
 Iteration #         33
  pAp =   9.385176627425891E-007  rzold =   2.745776408751133E-007  alpha = 
  0.292565235344348     
 delta_qm =   0.208895E-04 delta_en =   0.754046E-03 tol =   0.100000E-04
 Iteration #         34
  pAp =   4.786351267284385E-007  rzold =   1.295254968567972E-007  alpha = 
  0.270614273010275     
 delta_qm =   0.180920E-04 delta_en =   0.565609E-03 tol =   0.100000E-04
 Iteration #         35
  pAp =   9.333942266719334E-007  rzold =   1.489105531234925E-007  alpha = 
  0.159536612578418     
 delta_qm =   0.147136E-04 delta_en =   0.374097E-03 tol =   0.100000E-04
 Iteration #         36
  pAp =   1.134762288192775E-007  rzold =   4.579424255847129E-008  alpha = 
  0.403558022988262     
 delta_qm =   0.927410E-05 delta_en =   0.148623E-03 tol =   0.100000E-04
 Iteration #         37
  pAp =   3.080308610809876E-008  rzold =   1.693887495743646E-008  alpha = 
  0.549908372751744     
 delta_qm =   0.490050E-05 delta_en =   0.414978E-04 tol =   0.100000E-04
 Iteration #         38
  pAp =   1.596957187808933E-008  rzold =   7.738992994252974E-009  alpha = 
  0.484608670372127     
 delta_qm =   0.361204E-05 delta_en =   0.225449E-04 tol =   0.100000E-04
 Iteration #         39
  pAp =   6.989395434230437E-009  rzold =   3.146535476564567E-009  alpha = 
  0.450187073570693     
 delta_qm =   0.265422E-05 delta_en =   0.121736E-04 tol =   0.100000E-04
 Iteration #         40
  pAp =   2.412937365292616E-009  rzold =   1.139734319318171E-009  alpha = 
  0.472343101695040     
 delta_qm =   0.163316E-05 delta_en =   0.460891E-05 tol =   0.100000E-04
 Charges are converged, EXIT

%%%% ELECTRONS %%%%%%%%%%%%%%%%%%%%%%%%%%%%%%%%%%%%%%%%%%%%%%%%%%%%%%%%%%%%%%%%%
 number of electrons        =         24
 total electronic charge    =     24.0000000
 number of spin components  =  1

%%%% BOUNDARY %%%%%%%%%%%%%%%%%%%%%%%%%%%%%%%%%%%%%%%%%%%%%%%%%%%%%%%%%%%%%%%%%%
 boundary mode              = electronic           
 boundary is built as a function of a smooth density
 function type              =  2 
 using the modified SCCS function with parameters 
 rhomax                     =      0.0155000 
 rhomin                     =      0.0024000 
 volume of the QM region    =    366.2526283 
 surface of the QM region   =    278.7967147 

%%%% DIELECTRIC %%%%%%%%%%%%%%%%%%%%%%%%%%%%%%%%%%%%%%%%%%%%%%%%%%%%%%%%%%%%%%%%%
 dielectric build on homogeneous background
 environment bulk permitt.  =     78.3000000 
 dielectric flags
 need gradient              =  F 
 need factor depend. sqrt   =  T 
 total dielectric charge    =    -24.7659779

%%%% ELECTRONS %%%%%%%%%%%%%%%%%%%%%%%%%%%%%%%%%%%%%%%%%%%%%%%%%%%%%%%%%%%%%%%%%
 number of electrons        =         23
 total electronic charge    =     24.0000000
 number of spin components  =  1

%%%% BOUNDARY %%%%%%%%%%%%%%%%%%%%%%%%%%%%%%%%%%%%%%%%%%%%%%%%%%%%%%%%%%%%%%%%%%
 boundary mode              = electronic           
 boundary is built as a function of a smooth density
 function type              =  2 
 using the modified SCCS function with parameters 
 rhomax                     =      0.0155000 
 rhomin                     =      0.0024000 
 volume of the QM region    =    366.3030736 
 surface of the QM region   =    278.8918259 

%%%% DIELECTRIC %%%%%%%%%%%%%%%%%%%%%%%%%%%%%%%%%%%%%%%%%%%%%%%%%%%%%%%%%%%%%%%%%
 dielectric build on homogeneous background
 environment bulk permitt.  =     78.3000000 
 dielectric flags
 need gradient              =  F 
 need factor depend. sqrt   =  T 
 total dielectric charge    =    -24.7659779

%%%% ELECTRONS %%%%%%%%%%%%%%%%%%%%%%%%%%%%%%%%%%%%%%%%%%%%%%%%%%%%%%%%%%%%%%%%%
 number of electrons        =         24
 total electronic charge    =     24.0000000
 number of spin components  =  1

%%%% BOUNDARY %%%%%%%%%%%%%%%%%%%%%%%%%%%%%%%%%%%%%%%%%%%%%%%%%%%%%%%%%%%%%%%%%%
 boundary mode              = electronic           
 boundary is built as a function of a smooth density
 function type              =  2 
 using the modified SCCS function with parameters 
 rhomax                     =      0.0155000 
 rhomin                     =      0.0024000 
 volume of the QM region    =    366.3221962 
 surface of the QM region   =    278.9233338 

%%%% DIELECTRIC %%%%%%%%%%%%%%%%%%%%%%%%%%%%%%%%%%%%%%%%%%%%%%%%%%%%%%%%%%%%%%%%%
 dielectric build on homogeneous background
 environment bulk permitt.  =     78.3000000 
 dielectric flags
 need gradient              =  F 
 need factor depend. sqrt   =  T 
 total dielectric charge    =    -24.7659779

%%%% ELECTRONS %%%%%%%%%%%%%%%%%%%%%%%%%%%%%%%%%%%%%%%%%%%%%%%%%%%%%%%%%%%%%%%%%
 number of electrons        =         24
 total electronic charge    =     24.0000000
 number of spin components  =  1

%%%% BOUNDARY %%%%%%%%%%%%%%%%%%%%%%%%%%%%%%%%%%%%%%%%%%%%%%%%%%%%%%%%%%%%%%%%%%
 boundary mode              = electronic           
 boundary is built as a function of a smooth density
 function type              =  2 
 using the modified SCCS function with parameters 
 rhomax                     =      0.0155000 
 rhomin                     =      0.0024000 
 volume of the QM region    =    366.3449313 
 surface of the QM region   =    278.9596687 

%%%% DIELECTRIC %%%%%%%%%%%%%%%%%%%%%%%%%%%%%%%%%%%%%%%%%%%%%%%%%%%%%%%%%%%%%%%%%
 dielectric build on homogeneous background
 environment bulk permitt.  =     78.3000000 
 dielectric flags
 need gradient              =  F 
 need factor depend. sqrt   =  T 
 total dielectric charge    =    -24.7659779

%%%% ELECTRONS %%%%%%%%%%%%%%%%%%%%%%%%%%%%%%%%%%%%%%%%%%%%%%%%%%%%%%%%%%%%%%%%%
 number of electrons        =         23
 total electronic charge    =     24.0000000
 number of spin components  =  1

%%%% BOUNDARY %%%%%%%%%%%%%%%%%%%%%%%%%%%%%%%%%%%%%%%%%%%%%%%%%%%%%%%%%%%%%%%%%%
 boundary mode              = electronic           
 boundary is built as a function of a smooth density
 function type              =  2 
 using the modified SCCS function with parameters 
 rhomax                     =      0.0155000 
 rhomin                     =      0.0024000 
 volume of the QM region    =    364.9597020 
 surface of the QM region   =    279.0936834 

%%%% DIELECTRIC %%%%%%%%%%%%%%%%%%%%%%%%%%%%%%%%%%%%%%%%%%%%%%%%%%%%%%%%%%%%%%%%%
 dielectric build on homogeneous background
 environment bulk permitt.  =     78.3000000 
 dielectric flags
 need gradient              =  F 
 need factor depend. sqrt   =  T 
 total dielectric charge    =    -24.7659779

%%%% ELECTRONS %%%%%%%%%%%%%%%%%%%%%%%%%%%%%%%%%%%%%%%%%%%%%%%%%%%%%%%%%%%%%%%%%
 number of electrons        =         23
 total electronic charge    =     24.0000000
 number of spin components  =  1

%%%% BOUNDARY %%%%%%%%%%%%%%%%%%%%%%%%%%%%%%%%%%%%%%%%%%%%%%%%%%%%%%%%%%%%%%%%%%
 boundary mode              = electronic           
 boundary is built as a function of a smooth density
 function type              =  2 
 using the modified SCCS function with parameters 
 rhomax                     =      0.0155000 
 rhomin                     =      0.0024000 
 volume of the QM region    =    398.1765468 
 surface of the QM region   =    292.4631350 

%%%% DIELECTRIC %%%%%%%%%%%%%%%%%%%%%%%%%%%%%%%%%%%%%%%%%%%%%%%%%%%%%%%%%%%%%%%%%
 dielectric build on homogeneous background
 environment bulk permitt.  =     78.3000000 
 dielectric flags
 need gradient              =  F 
 need factor depend. sqrt   =  T 
 total dielectric charge    =    -24.7659779

%%%% ELECTRONS %%%%%%%%%%%%%%%%%%%%%%%%%%%%%%%%%%%%%%%%%%%%%%%%%%%%%%%%%%%%%%%%%
 number of electrons        =         23
 total electronic charge    =     24.0000000
 number of spin components  =  1

%%%% BOUNDARY %%%%%%%%%%%%%%%%%%%%%%%%%%%%%%%%%%%%%%%%%%%%%%%%%%%%%%%%%%%%%%%%%%
 boundary mode              = electronic           
 boundary is built as a function of a smooth density
 function type              =  2 
 using the modified SCCS function with parameters 
 rhomax                     =      0.0155000 
 rhomin                     =      0.0024000 
 volume of the QM region    =    392.6960970 
 surface of the QM region   =    308.5449827 

%%%% DIELECTRIC %%%%%%%%%%%%%%%%%%%%%%%%%%%%%%%%%%%%%%%%%%%%%%%%%%%%%%%%%%%%%%%%%
 dielectric build on homogeneous background
 environment bulk permitt.  =     78.3000000 
 dielectric flags
 need gradient              =  F 
 need factor depend. sqrt   =  T 
 total dielectric charge    =    -24.7659779

%%%% ELECTRONS %%%%%%%%%%%%%%%%%%%%%%%%%%%%%%%%%%%%%%%%%%%%%%%%%%%%%%%%%%%%%%%%%
 number of electrons        =         23
 total electronic charge    =     24.0000000
 number of spin components  =  1

%%%% BOUNDARY %%%%%%%%%%%%%%%%%%%%%%%%%%%%%%%%%%%%%%%%%%%%%%%%%%%%%%%%%%%%%%%%%%
 boundary mode              = electronic           
 boundary is built as a function of a smooth density
 function type              =  2 
 using the modified SCCS function with parameters 
 rhomax                     =      0.0155000 
 rhomin                     =      0.0024000 
 volume of the QM region    =    634.1358204 
 surface of the QM region   =    785.4133300 

%%%% DIELECTRIC %%%%%%%%%%%%%%%%%%%%%%%%%%%%%%%%%%%%%%%%%%%%%%%%%%%%%%%%%%%%%%%%%
 dielectric build on homogeneous background
 environment bulk permitt.  =     78.3000000 
 dielectric flags
 need gradient              =  F 
 need factor depend. sqrt   =  T 
 total dielectric charge    =    -24.7659779
