
     Program PWSCF v.6.1 (svn rev. 13369) starts on 14Nov2017 at 17: 4:13 

     This program is part of the open-source Quantum ESPRESSO suite
     for quantum simulation of materials; please cite
         "P. Giannozzi et al., J. Phys.:Condens. Matter 21 395502 (2009);
          URL http://www.quantum-espresso.org", 
     in publications or presentations arising from this work. More details at
     http://www.quantum-espresso.org/quote

     Parallel version (MPI), running on     1 processors
     Reading input from cation.in

     Current dimensions of program PWSCF are:
     Max number of different atomic species (ntypx) = 10
     Max number of k-points (npk) =  40000
     Max angular momentum in pseudopotentials (lmaxx) =  3
               file C.pbe-rrkjus.UPF: wavefunction(s)  2S 2P renormalized
               file H.pbe-rrkjus.UPF: wavefunction(s)  1S renormalized
               file N.pbe-rrkjus.UPF: wavefunction(s)  2S renormalized
               file O.pbe-rrkjus.UPF: wavefunction(s)  2S renormalized

     gamma-point specific algorithms are used

     Subspace diagonalization in iterative solution of the eigenvalue problem:
     a serial algorithm will be used

 
     G-vector sticks info
     --------------------
     sticks:   dense  smooth     PW     G-vecs:    dense   smooth      PW
     Sum        9549    3809    949               701475   177509   22119
 


     bravais-lattice index     =            1
     lattice parameter (alat)  =      20.0000  a.u.
     unit-cell volume          =    8000.0000 (a.u.)^3
     number of atoms/cell      =           10
     number of atomic types    =            4
     number of electrons       =        24.00
     number of Kohn-Sham states=           12
     kinetic-energy cutoff     =      30.0000  Ry
     charge density cutoff     =     300.0000  Ry
     convergence threshold     =      1.0E-03
     mixing beta               =       0.7000
     number of iterations used =            8  plain     mixing
     Exchange-correlation      =  SLA  PW   PBE  PBE ( 1  4  3  4 0 0)
 

     Environ Module
     ==============

     Plese cite
         O. Andreussi, I. Dabo and N. Marzari, J. Chem. Phys. 136, 064102 (2012)         
     in publications or presentations arising from this work.

     compensation onset threshold      =               0.1000E+03 
     static permittivity               =                    78.30 
     epsilon calculation mode          =               electronic 
     surface tension in input (dyn/cm) =                     5.00 
     surface tension in internal units =               0.6423E-05 
     external pressure in input (GPa)  =                     0.12 
     external pressure in inter. units =               0.8497E-05 

     Electrostatic Setup
     -------------------
     electrostatic problem to solve    = generalized              
     numerical solver adopted          = cg                       
     type of auxiliary density adopted = none                     
     type of core tool for poisson     = fft                      
     type of core tool for s(r) deriv  = analytic                 



     celldm(1)=  20.000000  celldm(2)=   0.000000  celldm(3)=   0.000000
     celldm(4)=   0.000000  celldm(5)=   0.000000  celldm(6)=   0.000000

     crystal axes: (cart. coord. in units of alat)
               a(1) = (   1.000000   0.000000   0.000000 )  
               a(2) = (   0.000000   1.000000   0.000000 )  
               a(3) = (   0.000000   0.000000   1.000000 )  

     reciprocal axes: (cart. coord. in units 2 pi/alat)
               b(1) = (  1.000000  0.000000  0.000000 )  
               b(2) = (  0.000000  1.000000  0.000000 )  
               b(3) = (  0.000000  0.000000  1.000000 )  


     PseudoPot. # 1 for C  read from file:
     /home/andreo/PWSCF/espresso-6.1-Environ-1.0/Environ/tests/../..//pseudo/C.pbe-rrkjus.UPF
     MD5 check sum: 00fb224312de0c5b6853bd333518df6f
     Pseudo is Ultrasoft, Zval =  4.0
     Generated by new atomic code, or converted to UPF format
     Using radial grid of  627 points,  4 beta functions with: 
                l(1) =   0
                l(2) =   0
                l(3) =   1
                l(4) =   1
     Q(r) pseudized with 0 coefficients 


     PseudoPot. # 2 for H  read from file:
     /home/andreo/PWSCF/espresso-6.1-Environ-1.0/Environ/tests/../..//pseudo/H.pbe-rrkjus.UPF
     MD5 check sum: 7cc9d459525c9a0585f487a71c3c9563
     Pseudo is Ultrasoft, Zval =  1.0
     Generated by new atomic code, or converted to UPF format
     Using radial grid of 1061 points,  2 beta functions with: 
                l(1) =   0
                l(2) =   0
     Q(r) pseudized with 0 coefficients 


     PseudoPot. # 3 for N  read from file:
     /home/andreo/PWSCF/espresso-6.1-Environ-1.0/Environ/tests/../..//pseudo/N.pbe-rrkjus.UPF
     MD5 check sum: 0c3fbe5807a93f9ba59d5a7019aa238b
     Pseudo is Ultrasoft, Zval =  5.0
     Generated by new atomic code, or converted to UPF format
     Using radial grid of 1257 points,  4 beta functions with: 
                l(1) =   0
                l(2) =   0
                l(3) =   1
                l(4) =   1
     Q(r) pseudized with 0 coefficients 


     PseudoPot. # 4 for O  read from file:
     /home/andreo/PWSCF/espresso-6.1-Environ-1.0/Environ/tests/../..//pseudo/O.pbe-rrkjus.UPF
     MD5 check sum: 390ba29e75625707450f3bd3f0eb6be9
     Pseudo is Ultrasoft, Zval =  6.0
     Generated by new atomic code, or converted to UPF format
     Using radial grid of 1269 points,  4 beta functions with: 
                l(1) =   0
                l(2) =   0
                l(3) =   1
                l(4) =   1
     Q(r) pseudized with 0 coefficients 


     atomic species   valence    mass     pseudopotential
        C              4.00    12.00000     C ( 1.00)
        H              1.00     1.00000     H ( 1.00)
        N              5.00    14.00000     N ( 1.00)
        O              6.00    16.00000     O ( 1.00)

     No symmetry found



   Cartesian axes

     site n.     atom                  positions (alat units)
         1           C   tau(   1) = (   0.0000000   0.0000000   0.0000000  )
         2           C   tau(   2) = (   0.0000000   0.0000000   0.1455089  )
         3           N   tau(   3) = (   0.1170969   0.0000000  -0.0545024  )
         4           H   tau(   4) = (   0.0476617  -0.0825466   0.1792090  )
         5           H   tau(   5) = (  -0.0953183  -0.0000030   0.1792090  )
         6           H   tau(   6) = (   0.0476566   0.0825496   0.1792090  )
         7           O   tau(   7) = (  -0.0984002  -0.0000019  -0.0641310  )
         8           H   tau(   8) = (   0.1263131  -0.0000015  -0.1475548  )
         9           H   tau(   9) = (   0.1944645   0.0000134  -0.0025716  )
        10           H   tau(  10) = (  -0.0770366  -0.0000045  -0.1522861  )

     number of k points=     1
                       cart. coord. in units 2pi/alat
        k(    1) = (   0.0000000   0.0000000   0.0000000), wk =   2.0000000

     Dense  grid:   350738 G-vectors     FFT dimensions: ( 120, 120, 120)

     Smooth grid:    88755 G-vectors     FFT dimensions: (  72,  72,  72)

     Estimated max dynamical RAM per process >     298.98MB

     Initial potential from superposition of free atoms
     Check: negative starting charge=   -0.000452

     starting charge   24.42266, renormalised to   24.00000

     negative rho (up, down):  4.438E-04 0.000E+00
     Starting wfc are   22 randomized atomic wfcs

     total cpu time spent up to now is        4.1 secs

     per-process dynamical memory:   597.5 Mb

     Self-consistent Calculation

     iteration #  1     ecut=    30.00 Ry     beta=0.70
     Davidson diagonalization with overlap
     ethr =  1.00E-02,  avg # of iterations =  2.0

     negative rho (up, down):  1.277E-04 0.000E+00

     add environment contribution to local potential
     polarization accuracy = 2.2E-06, # of iterations =  17

     total cpu time spent up to now is       11.6 secs

     total energy              =     -80.22763403 Ry
     Harris-Foulkes estimate   =     -83.01879009 Ry
     estimated scf accuracy    <       3.73442311 Ry
     electrostatic embedding   =       0.00242302 Ry
     cavitation energy         =       0.00265722 Ry
     PV energy                 =       0.00631753 Ry
     correction to one-el term =       0.00000000 Ry

     iteration #  2     ecut=    30.00 Ry     beta=0.70
     Davidson diagonalization with overlap
     ethr =  1.00E-02,  avg # of iterations =  4.0

     negative rho (up, down):  6.931E-04 0.000E+00

     add environment contribution to local potential
     polarization accuracy = 7.6E-06, # of iterations =  19

     total cpu time spent up to now is       19.5 secs

     total energy              =     -80.97668732 Ry
     Harris-Foulkes estimate   =     -76.67504677 Ry
     estimated scf accuracy    <       1.54608915 Ry
     electrostatic embedding   =      -0.15785828 Ry
     cavitation energy         =       0.00259635 Ry
     PV energy                 =       0.00597411 Ry
     correction to one-el term =      -4.97974877 Ry

     iteration #  3     ecut=    30.00 Ry     beta=0.70
     Davidson diagonalization with overlap
     ethr =  6.44E-03,  avg # of iterations =  3.0

     negative rho (up, down):  3.264E-04 0.000E+00

     add environment contribution to local potential
     polarization accuracy = 4.5E-06, # of iterations =  21

     total cpu time spent up to now is       27.7 secs

     total energy              =     -81.31873327 Ry
     Harris-Foulkes estimate   =     -77.07851776 Ry
     estimated scf accuracy    <       0.24530393 Ry
     electrostatic embedding   =      -0.13226068 Ry
     cavitation energy         =       0.00251946 Ry
     PV energy                 =       0.00563355 Ry
     correction to one-el term =      -4.24678305 Ry

     iteration #  4     ecut=    30.00 Ry     beta=0.70
     Davidson diagonalization with overlap
     ethr =  1.02E-03,  avg # of iterations =  4.0

     negative rho (up, down):  8.603E-05 0.000E+00

     add environment contribution to local potential
     polarization accuracy = 3.9E-06, # of iterations =  22

     total cpu time spent up to now is       36.0 secs

     total energy              =     -81.36922665 Ry
     Harris-Foulkes estimate   =     -77.27443172 Ry
     estimated scf accuracy    <       0.02092017 Ry
     electrostatic embedding   =      -0.11951396 Ry
     cavitation energy         =       0.00247831 Ry
     PV energy                 =       0.00544181 Ry
     correction to one-el term =      -3.99381816 Ry

     iteration #  5     ecut=    30.00 Ry     beta=0.70
     Davidson diagonalization with overlap
     ethr =  8.72E-05,  avg # of iterations =  4.0

     negative rho (up, down):  9.670E-05 0.000E+00

     add environment contribution to local potential
     polarization accuracy = 4.6E-06, # of iterations =  22

     total cpu time spent up to now is       44.3 secs

     total energy              =     -81.37381373 Ry
     Harris-Foulkes estimate   =     -77.50466549 Ry
     estimated scf accuracy    <       0.00249120 Ry
     electrostatic embedding   =      -0.11861862 Ry
     cavitation energy         =       0.00248165 Ry
     PV energy                 =       0.00544672 Ry
     correction to one-el term =      -3.75970734 Ry

     iteration #  6     ecut=    30.00 Ry     beta=0.70
     Davidson diagonalization with overlap
     ethr =  1.04E-05,  avg # of iterations =  3.0

     negative rho (up, down):  2.784E-04 0.000E+00

     total cpu time spent up to now is       48.1 secs

     End of self-consistent calculation

          k = 0.0000 0.0000 0.0000 ( 11060 PWs)   bands (ev):

   -29.0390 -23.1219 -18.6573 -16.0960 -14.6763 -13.4201 -11.7290 -11.0057
    -9.6386  -9.6282  -9.3676  -7.4215

     highest occupied level (ev):    -7.4215

!    total energy              =     -81.37502830 Ry
     Harris-Foulkes estimate   =     -77.54571175 Ry
     estimated scf accuracy    <       0.00027492 Ry

     The total energy is the sum of the following terms:

     one-electron contribution =    -242.05724369 Ry
     hartree contribution      =     123.17227180 Ry
     xc contribution           =     -22.96845533 Ry
     ewald contribution        =      64.30784006 Ry
     electrostatic embedding   =      -0.11902428 Ry
     cavitation energy         =       0.00248165 Ry
     PV energy                 =       0.00544672 Ry
     correction to one-el term =      -3.71834523 Ry

     convergence has been achieved in   6 iterations

     Forces acting on atoms (cartesian axes, Ry/au):

     atom    1 type  1   force =     0.22399035   -0.00000167    0.09588464
     atom    2 type  1   force =    -0.03073554    0.00000399   -0.07907120
     atom    3 type  3   force =    -0.14068454    0.00000031    0.04315583
     atom    4 type  2   force =     0.01957095   -0.02900034    0.00876057
     atom    5 type  2   force =    -0.03159587   -0.00000021    0.01169539
     atom    6 type  2   force =     0.01956972    0.02900392    0.00876287
     atom    7 type  4   force =    -0.09933368   -0.00001552   -0.00652926
     atom    8 type  2   force =     0.00817227    0.00000157   -0.05241443
     atom    9 type  2   force =     0.04327218    0.00000505    0.03612099
     atom   10 type  2   force =    -0.01222585    0.00000289   -0.06636540

     Total force =     0.335274     Total SCF correction =     0.022309

     Writing output data file pwscf.save
 
     init_run     :      3.25s CPU      3.94s WALL (       1 calls)
     electrons    :     30.64s CPU     45.45s WALL (       1 calls)
     forces       :      1.31s CPU      1.86s WALL (       1 calls)

     Called by init_run:
     wfcinit      :      0.13s CPU      0.14s WALL (       1 calls)
     potinit      :      0.98s CPU      1.18s WALL (       1 calls)

     Called by electrons:
     c_bands      :      1.41s CPU      1.41s WALL (       6 calls)
     sum_band     :      4.02s CPU      6.50s WALL (       6 calls)
     v_of_rho     :      4.38s CPU      5.31s WALL (       7 calls)
     newd         :      2.00s CPU      4.93s WALL (       7 calls)
     mix_rho      :      0.46s CPU      0.47s WALL (       6 calls)

     Called by c_bands:
     init_us_2    :      0.05s CPU      0.06s WALL (      13 calls)
     regterg      :      1.32s CPU      1.32s WALL (       6 calls)

     Called by sum_band:
     sum_band:bec :      0.00s CPU      0.00s WALL (       6 calls)
     addusdens    :      3.08s CPU      5.51s WALL (       6 calls)

     Called by *egterg:
     h_psi        :      1.26s CPU      1.27s WALL (      27 calls)
     s_psi        :      0.04s CPU      0.04s WALL (      27 calls)
     g_psi        :      0.01s CPU      0.02s WALL (      20 calls)
     rdiaghg      :      0.01s CPU      0.01s WALL (      26 calls)

     Called by h_psi:
     h_psi:pot    :      1.26s CPU      1.26s WALL (      27 calls)
     h_psi:calbec :      0.05s CPU      0.04s WALL (      27 calls)
     vloc_psi     :      1.19s CPU      1.18s WALL (      27 calls)
     add_vuspsi   :      0.02s CPU      0.04s WALL (      27 calls)

     General routines
     calbec       :      0.06s CPU      0.07s WALL (      37 calls)
     fft          :     12.66s CPU     15.39s WALL (     415 calls)
     ffts         :      0.08s CPU      0.07s WALL (      13 calls)
     fftw         :      0.99s CPU      1.03s WALL (     286 calls)
     interpolate  :      0.54s CPU      0.67s WALL (      13 calls)
     davcio       :      0.00s CPU      0.00s WALL (       1 calls)
 
     Parallel routines
     fft_scatter  :      2.87s CPU      4.34s WALL (     714 calls)
 
     Environ routines
     calc_eelect  :      0.01s CPU      0.02s WALL (      12 calls)
     calc_velect  :     12.30s CPU     18.68s WALL (      10 calls)
     dielectric   :      0.35s CPU      0.39s WALL (       7 calls)
     calc_felect  :      0.33s CPU      0.41s WALL (       1 calls)
 
     PWSCF        :    35.46s CPU        53.85s WALL

 
   This run was terminated on:  17: 5: 6  14Nov2017            

=------------------------------------------------------------------------------=
   JOB DONE.
=------------------------------------------------------------------------------=

%%%% IONS %%%%%%%%%%%%%%%%%%%%%%%%%%%%%%%%%%%%%%%%%%%%%%%%%%%%%%%%%%%%%%%%%%%%%%
 number of ions             =         10
 ionic center of charge     =      0.0095530    -0.0000002     0.0063981
 total ionic charge         =    -25.0000000
 ionic dipole               =      0.0000000     0.0000000     0.0000000
 ionic quadrupole (pc)      =    -79.0828058    -5.4513517  -105.8059629
 ionic quadrupole (gauss)   =    -82.2078058    -8.5763517  -108.9309629
 ion   1 type =  1 coordinates =      0.0000000     0.0000000     0.0000000
 ion   2 type =  1 coordinates =      0.0000000     0.0000000     2.9101782
 ion   3 type =  3 coordinates =      2.3419379     0.0000000    -1.0900479
 ion   4 type =  2 coordinates =      0.9532347    -1.6509323     3.5841800
 ion   5 type =  2 coordinates =     -1.9063663    -0.0000596     3.5841809
 ion   6 type =  2 coordinates =      0.9531315     1.6509919     3.5841800
 ion   7 type =  4 coordinates =     -1.9680045    -0.0000375    -1.2826193
 ion   8 type =  2 coordinates =      2.5262613    -0.0000303    -2.9510950
 ion   9 type =  2 coordinates =      3.8892907     0.0002681    -0.0514326
 ion  10 type =  2 coordinates =     -1.5407317    -0.0000890    -3.0457220

%%%% SYSTEM %%%%%%%%%%%%%%%%%%%%%%%%%%%%%%%%%%%%%%%%%%%%%%%%%%%%%%%%%%%%%%%%%%%%
 system is built from all present ionic types
 system defined dimension   =  0 
 system defined axis        =  3 
 system center              =      0.0095530    -0.0000002     0.0063981 
 system width               =      0.5223840 

%%%% ELECTRONS %%%%%%%%%%%%%%%%%%%%%%%%%%%%%%%%%%%%%%%%%%%%%%%%%%%%%%%%%%%%%%%%%
 number of electrons        =         24
 total electronic charge    =     24.0000000
 number of spin components  =  1

%%%% BOUNDARY %%%%%%%%%%%%%%%%%%%%%%%%%%%%%%%%%%%%%%%%%%%%%%%%%%%%%%%%%%%%%%%%%%
 boundary mode              = electronic           
 boundary is built as a function of a smooth density
 function type              =  2 
 using the modified SCCS function with parameters 
 rhomax                     =      0.0035000 
 rhomin                     =      0.0002000 
 volume of the QM region    =    743.4724281 
 surface of the QM region   =    413.7010027 

%%%% DIELECTRIC %%%%%%%%%%%%%%%%%%%%%%%%%%%%%%%%%%%%%%%%%%%%%%%%%%%%%%%%%%%%%%%%%
 dielectric build on homogeneous background
 environment bulk permitt.  =     78.3000000 
 dielectric flags
 need gradient              =  F 
 need factor depend. sqrt   =  T 
 need gradient of logarithm =  T 

%%%% COMPUTE ELECTROSTATIC POTENTIAL %%%%%%%%%%%%%%%%%%%%%%%%%%%%%%%%%%%%%%%%%%%
 Iteration #          1
  pAp =    92.6250648322346       rzold =    89.1130412800678       alpha = 
  0.962083442980279     
 delta_qm =   0.220350E-01 delta_en =   0.839014E+03 tol =   0.100000E-04
 Iteration #          2
  pAp =    250.998423421222       rzold =    27.0585860161950       alpha = 
  0.107803808674868     
 delta_qm =   0.409867E-02 delta_en =   0.290289E+02 tol =   0.100000E-04
 Iteration #          3
  pAp =    1.65005258440956       rzold =   0.295085837133368       alpha = 
  0.178834201965120     
 delta_qm =   0.172624E-02 delta_en =   0.514929E+01 tol =   0.100000E-04
 Iteration #          4
  pAp =   0.194432860200469       rzold =   3.317737231026020E-002  alpha = 
  0.170636652035324     
 delta_qm =   0.127132E-02 delta_en =   0.279289E+01 tol =   0.100000E-04
 Iteration #          5
  pAp =   1.720659419083519E-002  rzold =   5.073894946257024E-003  alpha = 
  0.294880839867750     
 delta_qm =   0.834449E-03 delta_en =   0.120322E+01 tol =   0.100000E-04
 Iteration #          6
  pAp =   5.080956633551733E-003  rzold =   2.042239680613272E-003  alpha = 
  0.401939994356080     
 delta_qm =   0.401672E-03 delta_en =   0.278796E+00 tol =   0.100000E-04
 Iteration #          7
  pAp =   1.460737307048980E-003  rzold =   5.667749398407443E-004  alpha = 
  0.388006068651562     
 delta_qm =   0.262627E-03 delta_en =   0.119185E+00 tol =   0.100000E-04
 Iteration #          8
  pAp =   1.286860989811957E-003  rzold =   3.447674651439931E-004  alpha = 
  0.267913525915781     
 delta_qm =   0.179812E-03 delta_en =   0.558704E-01 tol =   0.100000E-04
 Iteration #          9
  pAp =   6.176940949681464E-004  rzold =   2.254171651536492E-004  alpha = 
  0.364933333489733     
 delta_qm =   0.102912E-03 delta_en =   0.183009E-01 tol =   0.100000E-04
 Iteration #         10
  pAp =   2.338731060750983E-004  rzold =   8.792043057758835E-005  alpha = 
  0.375932196963923     
 delta_qm =   0.428483E-04 delta_en =   0.317256E-02 tol =   0.100000E-04
 Iteration #         11
  pAp =   2.655019172720091E-005  rzold =   1.047306626689356E-005  alpha = 
  0.394462924204190     
 delta_qm =   0.228817E-04 delta_en =   0.904732E-03 tol =   0.100000E-04
 Iteration #         12
  pAp =   2.811714140113035E-006  rzold =   1.203997933218003E-006  alpha = 
  0.428207802507833     
 delta_qm =   0.158960E-04 delta_en =   0.436634E-03 tol =   0.100000E-04
 Iteration #         13
  pAp =   1.227868360471146E-006  rzold =   5.183758146248154E-007  alpha = 
  0.422175398693317     
 delta_qm =   0.101158E-04 delta_en =   0.176825E-03 tol =   0.100000E-04
 Iteration #         14
  pAp =   1.092496169343373E-006  rzold =   4.040470016363599E-007  alpha = 
  0.369838369208384     
 delta_qm =   0.681973E-05 delta_en =   0.803671E-04 tol =   0.100000E-04
 Iteration #         15
  pAp =   4.003581958267223E-007  rzold =   1.666451980798191E-007  alpha = 
  0.416240256392664     
 delta_qm =   0.468784E-05 delta_en =   0.379742E-04 tol =   0.100000E-04
 Iteration #         16
  pAp =   1.665652217098725E-007  rzold =   6.672205348006295E-008  alpha = 
  0.400576139455336     
 delta_qm =   0.263859E-05 delta_en =   0.120306E-04 tol =   0.100000E-04
 Iteration #         17
  pAp =   3.888278997816469E-008  rzold =   1.734039999547918E-008  alpha = 
  0.445965940335480     
 delta_qm =   0.113131E-05 delta_en =   0.221161E-05 tol =   0.100000E-04
 Charges are converged, EXIT

%%%% ELECTRONS %%%%%%%%%%%%%%%%%%%%%%%%%%%%%%%%%%%%%%%%%%%%%%%%%%%%%%%%%%%%%%%%%
 number of electrons        =         24
 total electronic charge    =     24.0000000
 number of spin components  =  1

%%%% BOUNDARY %%%%%%%%%%%%%%%%%%%%%%%%%%%%%%%%%%%%%%%%%%%%%%%%%%%%%%%%%%%%%%%%%%
 boundary mode              = electronic           
 boundary is built as a function of a smooth density
 function type              =  2 
 using the modified SCCS function with parameters 
 rhomax                     =      0.0035000 
 rhomin                     =      0.0002000 
 volume of the QM region    =    703.0574658 
 surface of the QM region   =    404.2242840 

%%%% DIELECTRIC %%%%%%%%%%%%%%%%%%%%%%%%%%%%%%%%%%%%%%%%%%%%%%%%%%%%%%%%%%%%%%%%%
 dielectric build on homogeneous background
 environment bulk permitt.  =     78.3000000 
 dielectric flags
 need gradient              =  F 
 need factor depend. sqrt   =  T 
 need gradient of logarithm =  T 

%%%% COMPUTE ELECTROSTATIC POTENTIAL %%%%%%%%%%%%%%%%%%%%%%%%%%%%%%%%%%%%%%%%%%%
 Warning: bad guess with residual norm =   0.179469E+04, reset to no guess
 Iteration #          1
  pAp =    95.9965370157615       rzold =    92.7115968307668       alpha = 
  0.965780638686421     
 delta_qm =   0.289621E-01 delta_en =   0.144946E+04 tol =   0.100000E-04
 Iteration #          2
  pAp =    309.115792907864       rzold =    29.3992594470771       alpha = 
  9.510759437593636E-002
 delta_qm =   0.507153E-02 delta_en =   0.444450E+02 tol =   0.100000E-04
 Iteration #          3
  pAp =    2.09604392540616       rzold =   0.301204823852598       alpha = 
  0.143701580010654     
 delta_qm =   0.222218E-02 delta_en =   0.853301E+01 tol =   0.100000E-04
 Iteration #          4
  pAp =   0.205758016961333       rzold =   3.071409388431566E-002  alpha = 
  0.149272890251890     
 delta_qm =   0.175165E-02 delta_en =   0.530201E+01 tol =   0.100000E-04
 Iteration #          5
  pAp =   1.522520226117854E-002  rzold =   4.715670994438466E-003  alpha = 
  0.309727970344444     
 delta_qm =   0.118521E-02 delta_en =   0.242738E+01 tol =   0.100000E-04
 Iteration #          6
  pAp =   6.543686814775765E-003  rzold =   2.385571104440280E-003  alpha = 
  0.364560708965108     
 delta_qm =   0.654767E-03 delta_en =   0.740828E+00 tol =   0.100000E-04
 Iteration #          7
  pAp =   2.073080349436765E-003  rzold =   8.165906673063650E-004  alpha = 
  0.393902082728354     
 delta_qm =   0.456891E-03 delta_en =   0.360718E+00 tol =   0.100000E-04
 Iteration #          8
  pAp =   1.119531566481699E-003  rzold =   4.620111617694182E-004  alpha = 
  0.412682567961313     
 delta_qm =   0.268579E-03 delta_en =   0.124649E+00 tol =   0.100000E-04
 Iteration #          9
  pAp =   2.000460199297859E-003  rzold =   4.624237518805821E-004  alpha = 
  0.231158686407702     
 delta_qm =   0.203660E-03 delta_en =   0.716730E-01 tol =   0.100000E-04
 Iteration #         10
  pAp =   8.188162476644205E-004  rzold =   2.498057283205275E-004  alpha = 
  0.305081547945671     
 delta_qm =   0.829405E-04 delta_en =   0.118871E-01 tol =   0.100000E-04
 Iteration #         11
  pAp =   8.452462466833327E-005  rzold =   2.974242601007826E-005  alpha = 
  0.351878829711280     
 delta_qm =   0.489069E-04 delta_en =   0.413317E-02 tol =   0.100000E-04
 Iteration #         12
  pAp =   1.994464741950843E-005  rzold =   5.776423871572653E-006  alpha = 
  0.289622761940759     
 delta_qm =   0.358934E-04 delta_en =   0.222625E-02 tol =   0.100000E-04
 Iteration #         13
  pAp =   3.740212563786690E-006  rzold =   1.635014587098416E-006  alpha = 
  0.437144830464685     
 delta_qm =   0.236303E-04 delta_en =   0.964902E-03 tol =   0.100000E-04
 Iteration #         14
  pAp =   2.788960111739400E-006  rzold =   1.087635392757223E-006  alpha = 
  0.389978826939512     
 delta_qm =   0.168665E-04 delta_en =   0.491579E-03 tol =   0.100000E-04
 Iteration #         15
  pAp =   1.750156263489710E-006  rzold =   6.332969498998947E-007  alpha = 
  0.361851660398105     
 delta_qm =   0.121609E-04 delta_en =   0.255550E-03 tol =   0.100000E-04
 Iteration #         16
  pAp =   9.564350034723872E-007  rzold =   3.106508302037605E-007  alpha = 
  0.324800774831459     
 delta_qm =   0.854479E-05 delta_en =   0.126167E-03 tol =   0.100000E-04
 Iteration #         17
  pAp =   5.585315333896980E-007  rzold =   1.550676097333735E-007  alpha = 
  0.277634476234988     
 delta_qm =   0.577207E-05 delta_en =   0.575714E-04 tol =   0.100000E-04
 Iteration #         18
  pAp =   1.209237796934439E-007  rzold =   5.181362973382299E-008  alpha = 
  0.428481725142703     
 delta_qm =   0.322870E-05 delta_en =   0.180136E-04 tol =   0.100000E-04
 Iteration #         19
  pAp =   3.023678800650750E-008  rzold =   1.473380034841372E-008  alpha = 
  0.487280604846082     
 delta_qm =   0.210084E-05 delta_en =   0.762655E-05 tol =   0.100000E-04
 Charges are converged, EXIT

%%%% ELECTRONS %%%%%%%%%%%%%%%%%%%%%%%%%%%%%%%%%%%%%%%%%%%%%%%%%%%%%%%%%%%%%%%%%
 number of electrons        =         24
 total electronic charge    =     24.0000000
 number of spin components  =  1

%%%% BOUNDARY %%%%%%%%%%%%%%%%%%%%%%%%%%%%%%%%%%%%%%%%%%%%%%%%%%%%%%%%%%%%%%%%%%
 boundary mode              = electronic           
 boundary is built as a function of a smooth density
 function type              =  2 
 using the modified SCCS function with parameters 
 rhomax                     =      0.0035000 
 rhomin                     =      0.0002000 
 volume of the QM region    =    662.9786285 
 surface of the QM region   =    392.2522375 

%%%% DIELECTRIC %%%%%%%%%%%%%%%%%%%%%%%%%%%%%%%%%%%%%%%%%%%%%%%%%%%%%%%%%%%%%%%%%
 dielectric build on homogeneous background
 environment bulk permitt.  =     78.3000000 
 dielectric flags
 need gradient              =  F 
 need factor depend. sqrt   =  T 
 need gradient of logarithm =  T 

%%%% COMPUTE ELECTROSTATIC POTENTIAL %%%%%%%%%%%%%%%%%%%%%%%%%%%%%%%%%%%%%%%%%%%
 Warning: bad guess with residual norm =   0.223441E+04, reset to no guess
 Iteration #          1
  pAp =    96.4514183570006       rzold =    93.3753819366830       alpha = 
  0.968107919274633     
 delta_qm =   0.349229E-01 delta_en =   0.210749E+04 tol =   0.100000E-04
 Iteration #          2
  pAp =    380.938716690763       rzold =    31.7886668656722       alpha = 
  8.344824370130249E-002
 delta_qm =   0.580380E-02 delta_en =   0.582061E+02 tol =   0.100000E-04
 Iteration #          3
  pAp =    2.15037210540859       rzold =   0.320497457625394       alpha = 
  0.149042789766144     
 delta_qm =   0.238985E-02 delta_en =   0.986925E+01 tol =   0.100000E-04
 Iteration #          4
  pAp =   0.165081030873302       rzold =   2.396178936210541E-002  alpha = 
  0.145151682391030     
 delta_qm =   0.189617E-02 delta_en =   0.621296E+01 tol =   0.100000E-04
 Iteration #          5
  pAp =   2.502785709835719E-002  rzold =   5.537775340755622E-003  alpha = 
  0.221264462194772     
 delta_qm =   0.141713E-02 delta_en =   0.347025E+01 tol =   0.100000E-04
 Iteration #          6
  pAp =   7.617420636594950E-003  rzold =   2.513202925065111E-003  alpha = 
  0.329928337289318     
 delta_qm =   0.861239E-03 delta_en =   0.128171E+01 tol =   0.100000E-04
 Iteration #          7
  pAp =   2.968721568467162E-003  rzold =   1.078358689304210E-003  alpha = 
  0.363240089861643     
 delta_qm =   0.592053E-03 delta_en =   0.605710E+00 tol =   0.100000E-04
 Iteration #          8
  pAp =   1.317768786627777E-003  rzold =   5.509894764691079E-004  alpha = 
  0.418123028910946     
 delta_qm =   0.377541E-03 delta_en =   0.246304E+00 tol =   0.100000E-04
 Iteration #          9
  pAp =   1.394438436471043E-003  rzold =   4.509127136850741E-004  alpha = 
  0.323365092277731     
 delta_qm =   0.306379E-03 delta_en =   0.162204E+00 tol =   0.100000E-04
 Iteration #         10
  pAp =   2.480753916135238E-003  rzold =   5.036220696272343E-004  alpha = 
  0.203011699931860     
 delta_qm =   0.142735E-03 delta_en =   0.352050E-01 tol =   0.100000E-04
 Iteration #         11
  pAp =   3.740263009851566E-004  rzold =   1.045820230563080E-004  alpha = 
  0.279611414440233     
 delta_qm =   0.889792E-04 delta_en =   0.136811E-01 tol =   0.100000E-04
 Iteration #         12
  pAp =   1.375255712401952E-004  rzold =   3.091489607220528E-005  alpha = 
  0.224793802297399     
 delta_qm =   0.620877E-04 delta_en =   0.666124E-02 tol =   0.100000E-04
 Iteration #         13
  pAp =   1.472126952976783E-005  rzold =   5.028887784303199E-006  alpha = 
  0.341606936421774     
 delta_qm =   0.431069E-04 delta_en =   0.321097E-02 tol =   0.100000E-04
 Iteration #         14
  pAp =   5.516597231801670E-006  rzold =   2.231354897714037E-006  alpha = 
  0.404480298987733     
 delta_qm =   0.316874E-04 delta_en =   0.173507E-02 tol =   0.100000E-04
 Iteration #         15
  pAp =   2.582881199714482E-006  rzold =   1.208915777137834E-006  alpha = 
  0.468049315342676     
 delta_qm =   0.186821E-04 delta_en =   0.603109E-03 tol =   0.100000E-04
 Iteration #         16
  pAp =   1.737903448193053E-006  rzold =   6.606512138303674E-007  alpha = 
  0.380142645160906     
 delta_qm =   0.127951E-04 delta_en =   0.282897E-03 tol =   0.100000E-04
 Iteration #         17
  pAp =   5.018801192380938E-007  rzold =   2.049709062807117E-007  alpha = 
  0.408406108199462     
 delta_qm =   0.794134E-05 delta_en =   0.108976E-03 tol =   0.100000E-04
 Iteration #         18
  pAp =   4.605434827074269E-007  rzold =   1.017460387419779E-007  alpha = 
  0.220926020153052     
 delta_qm =   0.561964E-05 delta_en =   0.545709E-04 tol =   0.100000E-04
 Iteration #         19
  pAp =   1.460969590594681E-007  rzold =   4.957282487310464E-008  alpha = 
  0.339314556526301     
 delta_qm =   0.348922E-05 delta_en =   0.210377E-04 tol =   0.100000E-04
 Iteration #         20
  pAp =   2.323030126998704E-008  rzold =   1.125328752166342E-008  alpha = 
  0.484422797228307     
 delta_qm =   0.249386E-05 delta_en =   0.107470E-04 tol =   0.100000E-04
 Iteration #         21
  pAp =   1.203555186514695E-008  rzold =   6.150038187619269E-009  alpha = 
  0.510989297086476     
 delta_qm =   0.161236E-05 delta_en =   0.449230E-05 tol =   0.100000E-04
 Charges are converged, EXIT

%%%% ELECTRONS %%%%%%%%%%%%%%%%%%%%%%%%%%%%%%%%%%%%%%%%%%%%%%%%%%%%%%%%%%%%%%%%%
 number of electrons        =         24
 total electronic charge    =     24.0000000
 number of spin components  =  1

%%%% BOUNDARY %%%%%%%%%%%%%%%%%%%%%%%%%%%%%%%%%%%%%%%%%%%%%%%%%%%%%%%%%%%%%%%%%%
 boundary mode              = electronic           
 boundary is built as a function of a smooth density
 function type              =  2 
 using the modified SCCS function with parameters 
 rhomax                     =      0.0035000 
 rhomin                     =      0.0002000 
 volume of the QM region    =    640.4137309 
 surface of the QM region   =    385.8466383 

%%%% DIELECTRIC %%%%%%%%%%%%%%%%%%%%%%%%%%%%%%%%%%%%%%%%%%%%%%%%%%%%%%%%%%%%%%%%%
 dielectric build on homogeneous background
 environment bulk permitt.  =     78.3000000 
 dielectric flags
 need gradient              =  F 
 need factor depend. sqrt   =  T 
 need gradient of logarithm =  T 

%%%% COMPUTE ELECTROSTATIC POTENTIAL %%%%%%%%%%%%%%%%%%%%%%%%%%%%%%%%%%%%%%%%%%%
 Warning: bad guess with residual norm =   0.323578E+04, reset to no guess
 Iteration #          1
  pAp =    96.3498363133617       rzold =    93.2619985517123       alpha = 
  0.967951811027403     
 delta_qm =   0.421987E-01 delta_en =   0.307710E+04 tol =   0.100000E-04
 Iteration #          2
  pAp =    442.167847941817       rzold =    34.3539140695362       alpha = 
  7.769428335742905E-002
 delta_qm =   0.691037E-02 delta_en =   0.825176E+02 tol =   0.100000E-04
 Iteration #          3
  pAp =    2.97453093002154       rzold =   0.409829476501316       alpha = 
  0.137779531006036     
 delta_qm =   0.264906E-02 delta_en =   0.121263E+02 tol =   0.100000E-04
 Iteration #          4
  pAp =   0.218480513709088       rzold =   2.982278397746655E-002  alpha = 
  0.136500887292751     
 delta_qm =   0.213063E-02 delta_en =   0.784441E+01 tol =   0.100000E-04
 Iteration #          5
  pAp =   3.410164879256494E-002  rzold =   6.624753049697339E-003  alpha = 
  0.194264889946955     
 delta_qm =   0.161395E-02 delta_en =   0.450117E+01 tol =   0.100000E-04
 Iteration #          6
  pAp =   8.641873879568066E-003  rzold =   2.670935009179590E-003  alpha = 
  0.309068964254901     
 delta_qm =   0.104453E-02 delta_en =   0.188534E+01 tol =   0.100000E-04
 Iteration #          7
  pAp =   3.751368184355105E-003  rzold =   1.263020688237604E-003  alpha = 
  0.336682678470476     
 delta_qm =   0.765838E-03 delta_en =   0.101349E+01 tol =   0.100000E-04
 Iteration #          8
  pAp =   2.184231163896990E-003  rzold =   6.693493356145756E-004  alpha = 
  0.306446197947454     
 delta_qm =   0.501429E-03 delta_en =   0.434472E+00 tol =   0.100000E-04
 Iteration #          9
  pAp =   2.946493971332413E-003  rzold =   6.720802881369773E-004  alpha = 
  0.228094913709618     
 delta_qm =   0.469790E-03 delta_en =   0.381374E+00 tol =   0.100000E-04
 Iteration #         10
  pAp =   1.435688803063972E-003  rzold =   5.167378662019231E-004  alpha = 
  0.359923310050986     
 delta_qm =   0.221974E-03 delta_en =   0.851429E-01 tol =   0.100000E-04
 Iteration #         11
  pAp =   6.465995817422017E-004  rzold =   1.893185892029930E-004  alpha = 
  0.292791078974861     
 delta_qm =   0.138492E-03 delta_en =   0.331431E-01 tol =   0.100000E-04
 Iteration #         12
  pAp =   2.990927469077934E-004  rzold =   6.556734202307280E-005  alpha = 
  0.219220769145854     
 delta_qm =   0.989584E-04 delta_en =   0.169219E-01 tol =   0.100000E-04
 Iteration #         13
  pAp =   3.716400723159806E-005  rzold =   1.123737091208772E-005  alpha = 
  0.302372422921426     
 delta_qm =   0.721734E-04 delta_en =   0.900114E-02 tol =   0.100000E-04
 Iteration #         14
  pAp =   1.245158202383554E-005  rzold =   4.734153864788241E-006  alpha = 
  0.380205009751038     
 delta_qm =   0.561034E-04 delta_en =   0.543905E-02 tol =   0.100000E-04
 Iteration #         15
  pAp =   5.620877213099538E-006  rzold =   2.674879422609648E-006  alpha = 
  0.475882913146689     
 delta_qm =   0.327175E-04 delta_en =   0.184971E-02 tol =   0.100000E-04
 Iteration #         16
  pAp =   4.806315997123461E-006  rzold =   1.798515611216877E-006  alpha = 
  0.374198369872741     
 delta_qm =   0.226525E-04 delta_en =   0.886702E-03 tol =   0.100000E-04
 Iteration #         17
  pAp =   1.652477004856129E-006  rzold =   5.827804921425062E-007  alpha = 
  0.352670863455220     
 delta_qm =   0.155547E-04 delta_en =   0.418086E-03 tol =   0.100000E-04
 Iteration #         18
  pAp =   1.850152609301883E-006  rzold =   3.570050981205818E-007  alpha = 
  0.192959811166761     
 delta_qm =   0.109974E-04 delta_en =   0.208989E-03 tol =   0.100000E-04
 Iteration #         19
  pAp =   3.364165427617080E-007  rzold =   1.244688365294386E-007  alpha = 
  0.369984292412169     
 delta_qm =   0.621604E-05 delta_en =   0.667684E-04 tol =   0.100000E-04
 Iteration #         20
  pAp =   8.268882364962930E-008  rzold =   3.360014389412284E-008  alpha = 
  0.406344441861865     
 delta_qm =   0.441040E-05 delta_en =   0.336124E-04 tol =   0.100000E-04
 Iteration #         21
  pAp =   3.060679618128671E-008  rzold =   1.487293552314912E-008  alpha = 
  0.485935719474049     
 delta_qm =   0.301112E-05 delta_en =   0.156675E-04 tol =   0.100000E-04
 Iteration #         22
  pAp =   1.082660796839639E-008  rzold =   6.716919609786683E-009  alpha = 
  0.620408500002386     
 delta_qm =   0.150032E-05 delta_en =   0.388963E-05 tol =   0.100000E-04
 Charges are converged, EXIT

%%%% ELECTRONS %%%%%%%%%%%%%%%%%%%%%%%%%%%%%%%%%%%%%%%%%%%%%%%%%%%%%%%%%%%%%%%%%
 number of electrons        =         24
 total electronic charge    =     24.0000000
 number of spin components  =  1

%%%% BOUNDARY %%%%%%%%%%%%%%%%%%%%%%%%%%%%%%%%%%%%%%%%%%%%%%%%%%%%%%%%%%%%%%%%%%
 boundary mode              = electronic           
 boundary is built as a function of a smooth density
 function type              =  2 
 using the modified SCCS function with parameters 
 rhomax                     =      0.0035000 
 rhomin                     =      0.0002000 
 volume of the QM region    =    640.9918549 
 surface of the QM region   =    386.3656142 

%%%% DIELECTRIC %%%%%%%%%%%%%%%%%%%%%%%%%%%%%%%%%%%%%%%%%%%%%%%%%%%%%%%%%%%%%%%%%
 dielectric build on homogeneous background
 environment bulk permitt.  =     78.3000000 
 dielectric flags
 need gradient              =  F 
 need factor depend. sqrt   =  T 
 need gradient of logarithm =  T 

%%%% COMPUTE ELECTROSTATIC POTENTIAL %%%%%%%%%%%%%%%%%%%%%%%%%%%%%%%%%%%%%%%%%%%
 Warning: bad guess with residual norm =   0.501420E+04, reset to no guess
 Iteration #          1
  pAp =    96.4233537872078       rzold =    93.3435993575382       alpha = 
  0.968060077681325     
 delta_qm =   0.430666E-01 delta_en =   0.320498E+04 tol =   0.100000E-04
 Iteration #          2
  pAp =    443.253567197474       rzold =    34.3260655807529       alpha = 
  7.744114908715515E-002
 delta_qm =   0.721752E-02 delta_en =   0.900160E+02 tol =   0.100000E-04
 Iteration #          3
  pAp =    3.16943632180427       rzold =   0.436570604490651       alpha = 
  0.137743926731465     
 delta_qm =   0.268460E-02 delta_en =   0.124538E+02 tol =   0.100000E-04
 Iteration #          4
  pAp =   0.213219167265504       rzold =   2.956214217813726E-002  alpha = 
  0.138646738739609     
 delta_qm =   0.216203E-02 delta_en =   0.807731E+01 tol =   0.100000E-04
 Iteration #          5
  pAp =   3.547862546804957E-002  rzold =   6.705564266666942E-003  alpha = 
  0.189002932842076     
 delta_qm =   0.164562E-02 delta_en =   0.467954E+01 tol =   0.100000E-04
 Iteration #          6
  pAp =   8.945692279313742E-003  rzold =   2.735760346204612E-003  alpha = 
  0.305818740549667     
 delta_qm =   0.106983E-02 delta_en =   0.197777E+01 tol =   0.100000E-04
 Iteration #          7
  pAp =   3.858522477407824E-003  rzold =   1.286886242995768E-003  alpha = 
  0.333517881658242     
 delta_qm =   0.789483E-03 delta_en =   0.107703E+01 tol =   0.100000E-04
 Iteration #          8
  pAp =   2.134569241230314E-003  rzold =   6.748385557245380E-004  alpha = 
  0.316147418734272     
 delta_qm =   0.518089E-03 delta_en =   0.463824E+00 tol =   0.100000E-04
 Iteration #          9
  pAp =   2.986536798149790E-003  rzold =   6.746884621010346E-004  alpha = 
  0.225909977911210     
 delta_qm =   0.491462E-03 delta_en =   0.417372E+00 tol =   0.100000E-04
 Iteration #         10
  pAp =   1.537443151813618E-003  rzold =   5.410973843917601E-004  alpha = 
  0.351946271153808     
 delta_qm =   0.232500E-03 delta_en =   0.934094E-01 tol =   0.100000E-04
 Iteration #         11
  pAp =   6.811205909394412E-004  rzold =   1.999029508857025E-004  alpha = 
  0.293491275326128     
 delta_qm =   0.145547E-03 delta_en =   0.366060E-01 tol =   0.100000E-04
 Iteration #         12
  pAp =   3.195801183337525E-004  rzold =   7.031775687055889E-005  alpha = 
  0.220031700461174     
 delta_qm =   0.103695E-03 delta_en =   0.185806E-01 tol =   0.100000E-04
 Iteration #         13
  pAp =   4.096973976495258E-005  rzold =   1.218498041089170E-005  alpha = 
  0.297414152025327     
 delta_qm =   0.760735E-04 delta_en =   0.100002E-01 tol =   0.100000E-04
 Iteration #         14
  pAp =   1.356528769019469E-005  rzold =   5.143403587474085E-006  alpha = 
  0.379159196984216     
 delta_qm =   0.597192E-04 delta_en =   0.616272E-02 tol =   0.100000E-04
 Iteration #         15
  pAp =   6.073914065941434E-006  rzold =   2.896040259577829E-006  alpha = 
  0.476799676145723     
 delta_qm =   0.348235E-04 delta_en =   0.209550E-02 tol =   0.100000E-04
 Iteration #         16
  pAp =   5.174032032181237E-006  rzold =   1.974168366168063E-006  alpha = 
  0.381553178234926     
 delta_qm =   0.239853E-04 delta_en =   0.994107E-03 tol =   0.100000E-04
 Iteration #         17
  pAp =   1.470738862703177E-006  rzold =   6.060805352507705E-007  alpha = 
  0.412092554715534     
 delta_qm =   0.152181E-04 delta_en =   0.400191E-03 tol =   0.100000E-04
 Iteration #         18
  pAp =   8.911265212419744E-007  rzold =   2.321918595537067E-007  alpha = 
  0.260559925015022     
 delta_qm =   0.104532E-04 delta_en =   0.188818E-03 tol =   0.100000E-04
 Iteration #         19
  pAp =   6.776936485858480E-007  rzold =   1.615919798846735E-007  alpha = 
  0.238443993420729     
 delta_qm =   0.662189E-05 delta_en =   0.757719E-04 tol =   0.100000E-04
 Iteration #         20
  pAp =   9.807009387613831E-008  rzold =   3.811770160223684E-008  alpha = 
  0.388678139233548     
 delta_qm =   0.471945E-05 delta_en =   0.384880E-04 tol =   0.100000E-04
 Iteration #         21
  pAp =   3.462323629068232E-008  rzold =   1.654229151346441E-008  alpha = 
  0.477780048479068     
 delta_qm =   0.321694E-05 delta_en =   0.178825E-04 tol =   0.100000E-04
 Iteration #         22
  pAp =   1.200707882410924E-008  rzold =   7.444025719845660E-009  alpha = 
  0.619969755249600     
 delta_qm =   0.162970E-05 delta_en =   0.458945E-05 tol =   0.100000E-04
 Charges are converged, EXIT

%%%% ELECTRONS %%%%%%%%%%%%%%%%%%%%%%%%%%%%%%%%%%%%%%%%%%%%%%%%%%%%%%%%%%%%%%%%%
 number of electrons        =         24
 total electronic charge    =     24.0000000
 number of spin components  =  1

%%%% BOUNDARY %%%%%%%%%%%%%%%%%%%%%%%%%%%%%%%%%%%%%%%%%%%%%%%%%%%%%%%%%%%%%%%%%%
 boundary mode              = electronic           
 boundary is built as a function of a smooth density
 function type              =  2 
 using the modified SCCS function with parameters 
 rhomax                     =      0.0035000 
 rhomin                     =      0.0002000 
 volume of the QM region    =    640.9918549 
 surface of the QM region   =    386.3656142 

%%%% DIELECTRIC %%%%%%%%%%%%%%%%%%%%%%%%%%%%%%%%%%%%%%%%%%%%%%%%%%%%%%%%%%%%%%%%%
 dielectric build on homogeneous background
 environment bulk permitt.  =     78.3000000 
 dielectric flags
 need gradient              =  F 
 need factor depend. sqrt   =  T 
 need gradient of logarithm =  T 
