
     Program PWSCF v.6.7+ starts on 22Apr2021 at 11:48: 5 

     This program is part of the open-source Quantum ESPRESSO suite
     for quantum simulation of materials; please cite
         "P. Giannozzi et al., J. Phys.:Condens. Matter 21 395502 (2009);
         "P. Giannozzi et al., J. Phys.:Condens. Matter 29 465901 (2017);
          URL http://www.quantum-espresso.org", 
     in publications or presentations arising from this work. More details at
     http://www.quantum-espresso.org/quote

     Parallel version (MPI), running on     1 processors

     MPI processes distributed on     1 nodes
     Reading input from anion-dblcell.in

     Current dimensions of program PWSCF are:
     Max number of different atomic species (ntypx) = 10
     Max number of k-points (npk) =  40000
     Max angular momentum in pseudopotentials (lmaxx) =  3
     file C.pbe-rrkjus.UPF: wavefunction(s)  2S 2P renormalized
     file H.pbe-rrkjus.UPF: wavefunction(s)  1S renormalized

     gamma-point specific algorithms are used

     Subspace diagonalization in iterative solution of the eigenvalue problem:
     a serial algorithm will be used


     G-vector sticks info
     --------------------
     sticks:   dense  smooth     PW     G-vecs:    dense   smooth      PW
     Sum        2385     949    241                87655    22119    2777



     bravais-lattice index     =            1
     lattice parameter (alat)  =      10.0000  a.u.
     unit-cell volume          =    1000.0000 (a.u.)^3
     number of atoms/cell      =            4
     number of atomic types    =            2
     number of electrons       =         8.00
     number of Kohn-Sham states=            4
     kinetic-energy cutoff     =      30.0000  Ry
     charge density cutoff     =     300.0000  Ry
     scf convergence threshold =      1.0E-03
     mixing beta               =       0.7000
     number of iterations used =            8  plain     mixing
     Exchange-correlation= SLA  PW   PBE  PBE
                           (   1   4   3   4   0   0   0)


     Environ Module
     ==============

     Plese cite
         O. Andreussi, I. Dabo and N. Marzari, J. Chem. Phys. 136, 064102 (2012)         
     in publications or presentations arising from this work.

     compensation onset threshold      =               0.1000E+03 
     static permittivity               =                    78.30 
     epsilon calculation mode          =                    ionic 
     surface tension in input (dyn/cm) =                    50.00 
     surface tension in internal units =               0.6423E-04 
     external pressure in input (GPa)  =                    -0.35 
     external pressure in inter. units =              -0.2379E-04 

     Electrostatic Setup
     -------------------
     electrostatic problem to solve    = generalized              
     numerical solver adopted          = cg                       
     type of auxiliary density adopted = none                     
     type of core tool for poisson     = fft                      



     celldm(1)=  10.000000  celldm(2)=   0.000000  celldm(3)=   0.000000
     celldm(4)=   0.000000  celldm(5)=   0.000000  celldm(6)=   0.000000

     crystal axes: (cart. coord. in units of alat)
               a(1) = (   1.000000   0.000000   0.000000 )  
               a(2) = (   0.000000   1.000000   0.000000 )  
               a(3) = (   0.000000   0.000000   1.000000 )  

     reciprocal axes: (cart. coord. in units 2 pi/alat)
               b(1) = (  1.000000  0.000000  0.000000 )  
               b(2) = (  0.000000  1.000000  0.000000 )  
               b(3) = (  0.000000  0.000000  1.000000 )  


     PseudoPot. # 1 for C  read from file:
     ../../../pseudo/C.pbe-rrkjus.UPF
     MD5 check sum: c9ac5a99bc85b198593446162950cd17
     Pseudo is Ultrasoft, Zval =  4.0
     Generated by new atomic code, or converted to UPF format
     Using radial grid of  627 points,  4 beta functions with: 
                l(1) =   0
                l(2) =   0
                l(3) =   1
                l(4) =   1
     Q(r) pseudized with 0 coefficients 


     PseudoPot. # 2 for H  read from file:
     ../../../pseudo/H.pbe-rrkjus.UPF
     MD5 check sum: 2d52a7f45632fd764c17cc6affed14c8
     Pseudo is Ultrasoft, Zval =  1.0
     Generated by new atomic code, or converted to UPF format
     Using radial grid of 1061 points,  2 beta functions with: 
                l(1) =   0
                l(2) =   0
     Q(r) pseudized with 0 coefficients 


     atomic species   valence    mass     pseudopotential
        C              4.00    12.00000     C ( 1.00)
        H              1.00     1.00000     H ( 1.00)

      2 Sym. Ops. (no inversion) found



   Cartesian axes

     site n.     atom                  positions (alat units)
         1           C   tau(   1) = (   0.0000000   0.0000000   0.0594130  )
         2           H   tau(   2) = (  -0.0000000   0.1963425  -0.0132281  )
         3           H   tau(   3) = (   0.1700754  -0.0982280  -0.0132281  )
         4           H   tau(   4) = (  -0.1700754  -0.0982280  -0.0132281  )

     number of k points=     1
                       cart. coord. in units 2pi/alat
        k(    1) = (   0.0000000   0.0000000   0.0000000), wk =   2.0000000

     Dense  grid:    43828 G-vectors     FFT dimensions: (  60,  60,  60)

     Smooth grid:    11060 G-vectors     FFT dimensions: (  36,  36,  36)

     Estimated max dynamical RAM per process >      69.09 MB

     Initial potential from superposition of free atoms

     starting charge    6.71133, renormalised to    8.00000
     Starting wfcs are    7 randomized atomic wfcs

     total cpu time spent up to now is       25.6 secs

     Self-consistent Calculation

     iteration #  1     ecut=    30.00 Ry     beta= 0.70
     Davidson diagonalization with overlap
     ethr =  1.00E-02,  avg # of iterations =  2.0

     add environment contribution to local potential
     polarization accuracy = 5.7E-06, # of iterations =  12

     total cpu time spent up to now is       34.4 secs

     total energy              =     -14.77377040 Ry
     estimated scf accuracy    <       0.66108068 Ry
     electrostatic embedding   =      -0.01058833 Ry
     cavitation energy         =       0.01309546 Ry
     PV energy                 =      -0.00631465 Ry
     correction to one-el term =      -0.00000000 Ry

     iteration #  2     ecut=    30.00 Ry     beta= 0.70
     Davidson diagonalization with overlap
     ethr =  8.26E-03,  avg # of iterations =  2.0

     add environment contribution to local potential
     polarization accuracy = 8.5E-06, # of iterations =  12

     total cpu time spent up to now is       43.7 secs

     total energy              =     -14.97758614 Ry
     estimated scf accuracy    <       0.14180852 Ry
     electrostatic embedding   =      -0.08641009 Ry
     cavitation energy         =       0.01309546 Ry
     PV energy                 =      -0.00631465 Ry
     correction to one-el term =       0.52813960 Ry

     iteration #  3     ecut=    30.00 Ry     beta= 0.70
     Davidson diagonalization with overlap
     ethr =  1.77E-03,  avg # of iterations =  2.0

     add environment contribution to local potential
     polarization accuracy = 1.9E-06, # of iterations =  13

     total cpu time spent up to now is       53.6 secs

     total energy              =     -15.01044214 Ry
     estimated scf accuracy    <       0.00837784 Ry
     electrostatic embedding   =      -0.09663610 Ry
     cavitation energy         =       0.01309546 Ry
     PV energy                 =      -0.00631465 Ry
     correction to one-el term =       0.63283131 Ry

     iteration #  4     ecut=    30.00 Ry     beta= 0.70
     Davidson diagonalization with overlap
     ethr =  1.05E-04,  avg # of iterations =  4.0

     add environment contribution to local potential
     polarization accuracy = 1.9E-06, # of iterations =  13

     total cpu time spent up to now is       63.6 secs

     total energy              =     -15.01608108 Ry
     estimated scf accuracy    <       0.00141282 Ry
     electrostatic embedding   =      -0.11335793 Ry
     cavitation energy         =       0.01309546 Ry
     PV energy                 =      -0.00631465 Ry
     correction to one-el term =       0.75926230 Ry

     iteration #  5     ecut=    30.00 Ry     beta= 0.70
     Davidson diagonalization with overlap
     ethr =  1.77E-05,  avg # of iterations =  2.0

     the potential shift due to the Gaussian-smeared nuclei is    -0.0055 ev

     total cpu time spent up to now is       64.2 secs

     End of self-consistent calculation

          k = 0.0000 0.0000 0.0000 (  1389 PWs)   bands (ev):

   -14.5486  -7.7465  -7.7303  -3.4656

     highest occupied level (ev):    -3.4656

!    total energy              =     -15.01727409 Ry
     estimated scf accuracy    <       0.00005111 Ry

     The total energy is the sum of the following terms:
     one-electron contribution =     -21.59470393 Ry
     hartree contribution      =      12.22192744 Ry
     xc contribution           =      -6.00365750 Ry
     ewald contribution        =      -0.30191319 Ry
     electrostatic embedding   =      -0.12507382 Ry
     cavitation energy         =       0.01309546 Ry
     PV energy                 =      -0.00631465 Ry
     correction to one-el term =       0.77936610 Ry

     convergence has been achieved in   5 iterations
 forces lc
       1   -0.0027   -0.0063   -0.2872
       2   -0.0001    0.0617   -0.0564
       3    0.0135   -0.0285   -0.0666
       4   -0.0364   -0.0251   -0.0510

     Forces acting on atoms (cartesian axes, Ry/au):

     atom    1 type  1   force =     0.00000000   -0.00308857   -0.01730514
     atom    2 type  2   force =     0.00000000    0.01313158    0.00670547
     atom    3 type  2   force =    -0.01472738   -0.00502150    0.00529983
     atom    4 type  2   force =     0.01472738   -0.00502150    0.00529983

     Total force =     0.032662     Total SCF correction =     0.008431
     SCF correction compared to forces is large: reduce conv_thr to get better values

     Writing output data file ./tmp/pwscf.save/

     init_run     :     23.79s CPU     25.54s WALL (       1 calls)
     electrons    :     36.76s CPU     38.64s WALL (       1 calls)
     forces       :      9.78s CPU     10.18s WALL (       1 calls)

     Called by init_run:
     wfcinit      :      0.00s CPU      0.01s WALL (       1 calls)
     potinit      :      0.49s CPU      0.53s WALL (       1 calls)
     hinit0       :     22.79s CPU     24.32s WALL (       1 calls)

     Called by electrons:
     c_bands      :      0.04s CPU      0.09s WALL (       5 calls)
     sum_band     :      0.24s CPU      0.19s WALL (       5 calls)
     v_of_rho     :      0.44s CPU      0.52s WALL (       6 calls)
     newd         :      0.12s CPU      0.16s WALL (       6 calls)
     mix_rho      :      0.03s CPU      0.03s WALL (       5 calls)

     Called by c_bands:
     init_us_2    :      0.00s CPU      0.00s WALL (      11 calls)
     regterg      :      0.03s CPU      0.09s WALL (       5 calls)

     Called by *egterg:
     rdiaghg      :      0.00s CPU      0.00s WALL (      17 calls)
     h_psi        :      0.03s CPU      0.07s WALL (      18 calls)
     s_psi        :      0.00s CPU      0.01s WALL (      18 calls)
     g_psi        :      0.00s CPU      0.00s WALL (      12 calls)

     Called by h_psi:
     h_psi:calbec :      0.00s CPU      0.00s WALL (      18 calls)
     vloc_psi     :      0.03s CPU      0.03s WALL (      18 calls)
     add_vuspsi   :      0.00s CPU      0.04s WALL (      18 calls)

     General routines
     calbec       :      0.00s CPU      0.00s WALL (      27 calls)
     fft          :     23.43s CPU     24.23s WALL (     205 calls)
     ffts         :      0.00s CPU      0.00s WALL (      11 calls)
     fftw         :      0.02s CPU      0.02s WALL (      78 calls)
     interpolate  :      0.02s CPU      0.03s WALL (       6 calls)

     Parallel routines
     fft_scatt_xy :      2.35s CPU      2.36s WALL (     137 calls)
     fft_scatt_yz :      3.21s CPU      3.22s WALL (     137 calls)

     Environ routines
     calc_eelect  :      0.04s CPU      0.04s WALL (      10 calls)
     calc_velect  :     29.76s CPU     30.95s WALL (       8 calls)
     dielectric   :      0.43s CPU      0.46s WALL (       2 calls)
     calc_felect  :      0.72s CPU      0.80s WALL (       1 calls)

     PWSCF        :   1m10.36s CPU   1m14.48s WALL


   This run was terminated on:  11:49:19  22Apr2021            

=------------------------------------------------------------------------------=
   JOB DONE.
=------------------------------------------------------------------------------=
 Calling electrostatic_initbase now
 electrolyte_distance:    0.0000000000000000     
 sc_distance:    0.0000000000000000     
 velectrostatic started
 vreference created

%%%% IONS %%%%%%%%%%%%%%%%%%%%%%%%%%%%%%%%%%%%%%%%%%%%%%%%%%%%%%%%%%%%%%%%%%%%%%
 number of ions             =          4
 ionic center of charge     =     -0.0000000    -0.0000162     0.0282811
 total ionic charge         =     -7.0000000
 ionic dipole               =      0.0000000     0.0000000     0.0000000
 ionic quadrupole (pc)      =     -5.7851250    -5.7847859    -0.9045815
 ionic quadrupole (gauss)   =     -6.6601250    -6.6597859    -1.7795815
 ion   1 type =  1 coordinates =      0.0000000     0.0000000     0.5941299
 ion   2 type =  2 coordinates =     -0.0000000     1.9634254    -0.1322808
 ion   3 type =  2 coordinates =      1.7007535    -0.9822796    -0.1322808
 ion   4 type =  2 coordinates =     -1.7007535    -0.9822796    -0.1322808

%%%% SYSTEM %%%%%%%%%%%%%%%%%%%%%%%%%%%%%%%%%%%%%%%%%%%%%%%%%%%%%%%%%%%%%%%%%%%%
 system is built from all present ionic types
 system defined dimension   =  0 
 system defined axis        =  3 
 system center              =     -0.0000000    -0.0000162     0.0282811 
 system width               =      0.2007341 

%%%% IONS %%%%%%%%%%%%%%%%%%%%%%%%%%%%%%%%%%%%%%%%%%%%%%%%%%%%%%%%%%%%%%%%%%%%%%
 number of ions             =          4
 ionic center of charge     =     -0.0000000    -0.0000162     0.0282811
 total ionic charge         =     -7.0000000
 ionic dipole               =      0.0000000     0.0000000     0.0000000
 ionic quadrupole (pc)      =     -5.7851250    -5.7847859    -0.9045815
 ionic quadrupole (gauss)   =     -6.6601250    -6.6597859    -1.7795815
 ion   1 type =  1 coordinates =      0.0000000     0.0000000     0.5941299
 ion   2 type =  2 coordinates =     -0.0000000     1.9634254    -0.1322808
 ion   3 type =  2 coordinates =      1.7007535    -0.9822796    -0.1322808
 ion   4 type =  2 coordinates =     -1.7007535    -0.9822796    -0.1322808

%%%% SYSTEM %%%%%%%%%%%%%%%%%%%%%%%%%%%%%%%%%%%%%%%%%%%%%%%%%%%%%%%%%%%%%%%%%%%%
 system is built from all present ionic types
 system defined dimension   =  0 
 system defined axis        =  3 
 system center              =     -0.0000000    -0.0000162     0.0282811 
 system width               =      0.2007341 

%%%% BOUNDARY %%%%%%%%%%%%%%%%%%%%%%%%%%%%%%%%%%%%%%%%%%%%%%%%%%%%%%%%%%%%%%%%%%
 boundary label             = solvent              
 boundary mode              = ionic                
 boundary is built from soft-spheres centered on ionic positions
 solvent-dependent scaling  =      0.9800000 
 softness parameter         =      0.5000000 
 volume of the QM region    =    265.4048355 
 surface of the QM region   =    203.8822466 

%%%% DIELECTRIC %%%%%%%%%%%%%%%%%%%%%%%%%%%%%%%%%%%%%%%%%%%%%%%%%%%%%%%%%%%%%%%%%
 dielectric build on homogeneous background
 environment bulk permitt.  =     78.3000000 
 dielectric flags
 need gradient              =  F 
 need factor depend. sqrt   =  T 
 total dielectric charge    =      0.0000000

%%%% ELECTRONS %%%%%%%%%%%%%%%%%%%%%%%%%%%%%%%%%%%%%%%%%%%%%%%%%%%%%%%%%%%%%%%%%
 number of electrons        =          8
 total electronic charge    =      8.0000000

%%%% ELECTRONS %%%%%%%%%%%%%%%%%%%%%%%%%%%%%%%%%%%%%%%%%%%%%%%%%%%%%%%%%%%%%%%%%
 number of electrons        =          8
 total electronic charge    =      8.0000000

%%%% DENSITY %%%%%%%%%%%%%%%%%%%%%%%%%%%%%%%%%%%%%%%%%%%%%%%%%%%%%%%%%%%%%%%%%%%
 density label              = dvtot                                                                           
 integral of density        =      0.000000000    

%%%% DENSITY %%%%%%%%%%%%%%%%%%%%%%%%%%%%%%%%%%%%%%%%%%%%%%%%%%%%%%%%%%%%%%%%%%%
 density label              = vreference                                                                      
 integral of density        =      0.000000000    

%%%% DENSITY %%%%%%%%%%%%%%%%%%%%%%%%%%%%%%%%%%%%%%%%%%%%%%%%%%%%%%%%%%%%%%%%%%%
 density label              = velectrostatic                                                                  
 integral of density        =      0.000000000    

%%%% CHARGES %%%%%%%%%%%%%%%%%%%%%%%%%%%%%%%%%%%%%%%%%%%%%%%%%%%%%%%%%%%%%%%%%%%
 total number of charges    =         12
 total charge               =      1.0000000

%%%% ELECTRONS %%%%%%%%%%%%%%%%%%%%%%%%%%%%%%%%%%%%%%%%%%%%%%%%%%%%%%%%%%%%%%%%%
 number of electrons        =          8
 total electronic charge    =      8.0000000

%%%% ELECTRONS %%%%%%%%%%%%%%%%%%%%%%%%%%%%%%%%%%%%%%%%%%%%%%%%%%%%%%%%%%%%%%%%%
 number of electrons        =          8
 total electronic charge    =      8.0000000

%%%% DENSITY %%%%%%%%%%%%%%%%%%%%%%%%%%%%%%%%%%%%%%%%%%%%%%%%%%%%%%%%%%%%%%%%%%%
 density label              = vreference                                                                      
 integral of density        =     0.2010901733E-12

%%%% COMPUTE ELECTROSTATIC POTENTIAL %%%%%%%%%%%%%%%%%%%%%%%%%%%%%%%%%%%%%%%%%%%
 Iteration #          1
  pAp =    20.784905635901318       rzold =    20.182878125721032       alpha =   0.97103535032940369     
 delta_qm =   0.539898E-02 delta_en =   0.169997E+03 tol =   0.100000E-04
 Iteration #          2
  pAp =    59.161161195512058       rzold =    5.1484317442322123       alpha =    8.7023845377510442E-002
 delta_qm =   0.165824E-02 delta_en =   0.160366E+02 tol =   0.100000E-04
 Iteration #          3
  pAp =    1.5811230698224890       rzold =   0.29772641402333516       alpha =   0.18830059449879546     
 delta_qm =   0.492027E-03 delta_en =   0.141187E+01 tol =   0.100000E-04
 Iteration #          4
  pAp =    6.1530229198966120E-002  rzold =    1.3352706454423994E-002  alpha =   0.21701051057759357     
 delta_qm =   0.265813E-03 delta_en =   0.412069E+00 tol =   0.100000E-04
 Iteration #          5
  pAp =    8.8805545054643600E-004  rzold =    6.1008716767168528E-004  alpha =   0.68699219997612537     
 delta_qm =   0.162450E-03 delta_en =   0.153906E+00 tol =   0.100000E-04
 Iteration #          6
  pAp =    5.4140998340357631E-004  rzold =    3.2480115766683667E-004  alpha =   0.59991719329771631     
 delta_qm =   0.104170E-03 delta_en =   0.632852E-01 tol =   0.100000E-04
 Iteration #          7
  pAp =    1.9939893605030914E-004  rzold =    1.1174269665624410E-004  alpha =   0.56039765742807668     
 delta_qm =   0.640609E-04 delta_en =   0.239333E-01 tol =   0.100000E-04
 Iteration #          8
  pAp =    4.5568725834089222E-004  rzold =    1.3466857577839754E-004  alpha =   0.29552850845272960     
 delta_qm =   0.248488E-04 delta_en =   0.360104E-02 tol =   0.100000E-04
 Iteration #          9
  pAp =    3.0760746976690108E-005  rzold =    1.4864650955192368E-005  alpha =   0.48323439500531340     
 delta_qm =   0.836840E-05 delta_en =   0.408416E-03 tol =   0.100000E-04
 Iteration #         10
  pAp =    1.0488675212106140E-006  rzold =    5.4471504473193524E-007  alpha =   0.51933636395111116     
 delta_qm =   0.444311E-05 delta_en =   0.115131E-03 tol =   0.100000E-04
 Iteration #         11
  pAp =    1.7085669017847603E-007  rzold =    1.2320739629474010E-007  alpha =   0.72111543402859013     
 delta_qm =   0.169489E-05 delta_en =   0.167534E-04 tol =   0.100000E-04
 Iteration #         12
  pAp =    5.3427399983498370E-008  rzold =    2.9886059270788965E-008  alpha =   0.55937701029845355     
 delta_qm =   0.991550E-06 delta_en =   0.573386E-05 tol =   0.100000E-04
 Charges are converged, EXIT

%%%% DENSITY %%%%%%%%%%%%%%%%%%%%%%%%%%%%%%%%%%%%%%%%%%%%%%%%%%%%%%%%%%%%%%%%%%%
 density label              = velectrostatic                                                                  
 integral of density        =     0.1414619269E-11

%%%% CHARGES %%%%%%%%%%%%%%%%%%%%%%%%%%%%%%%%%%%%%%%%%%%%%%%%%%%%%%%%%%%%%%%%%%%
 total number of charges    =         12
 total charge               =      1.0000000

%%%% DENSITY %%%%%%%%%%%%%%%%%%%%%%%%%%%%%%%%%%%%%%%%%%%%%%%%%%%%%%%%%%%%%%%%%%%
 density label              = dvtot                                                                           
 integral of density        =     -35.96341973    

%%%% ELECTRONS %%%%%%%%%%%%%%%%%%%%%%%%%%%%%%%%%%%%%%%%%%%%%%%%%%%%%%%%%%%%%%%%%
 number of electrons        =          8
 total electronic charge    =      8.0000000

%%%% ELECTRONS %%%%%%%%%%%%%%%%%%%%%%%%%%%%%%%%%%%%%%%%%%%%%%%%%%%%%%%%%%%%%%%%%
 number of electrons        =          8
 total electronic charge    =      8.0000000

%%%% DENSITY %%%%%%%%%%%%%%%%%%%%%%%%%%%%%%%%%%%%%%%%%%%%%%%%%%%%%%%%%%%%%%%%%%%
 density label              = vreference                                                                      
 integral of density        =    -0.6148682386E-12

%%%% COMPUTE ELECTROSTATIC POTENTIAL %%%%%%%%%%%%%%%%%%%%%%%%%%%%%%%%%%%%%%%%%%%
 Warning: bad guess with residual norm =   0.152532E+03, reset to no guess
 Iteration #          1
  pAp =    21.885573747575936       rzold =    21.391741941882927       alpha =   0.97743573865648803     
 delta_qm =   0.500707E-02 delta_en =   0.146213E+03 tol =   0.100000E-04
 Iteration #          2
  pAp =    51.015295174962390       rzold =    4.3887005923570870       alpha =    8.6027152784386926E-002
 delta_qm =   0.146649E-02 delta_en =   0.125422E+02 tol =   0.100000E-04
 Iteration #          3
  pAp =    1.2450153403814559       rzold =   0.23004854185774312       alpha =   0.18477566853695102     
 delta_qm =   0.450122E-03 delta_en =   0.118162E+01 tol =   0.100000E-04
 Iteration #          4
  pAp =    4.3535250452652989E-002  rzold =    9.5773299245643598E-003  alpha =   0.21999023377573629     
 delta_qm =   0.270590E-03 delta_en =   0.427014E+00 tol =   0.100000E-04
 Iteration #          5
  pAp =    5.3280128743906155E-004  rzold =    4.8199416765533462E-004  alpha =   0.90464152211805993     
 delta_qm =   0.145780E-03 delta_en =   0.123940E+00 tol =   0.100000E-04
 Iteration #          6
  pAp =    4.9922454783435258E-004  rzold =    2.9574374564974519E-004  alpha =   0.59240625672893743     
 delta_qm =   0.903363E-04 delta_en =   0.475928E-01 tol =   0.100000E-04
 Iteration #          7
  pAp =    1.3459419862409174E-004  rzold =    9.8322382628527330E-005  alpha =   0.73050981122248815     
 delta_qm =   0.348345E-04 delta_en =   0.707682E-02 tol =   0.100000E-04
 Iteration #          8
  pAp =    2.7211928580534979E-004  rzold =    5.8761157418016070E-005  alpha =   0.21593896678109259     
 delta_qm =   0.181454E-04 delta_en =   0.192022E-02 tol =   0.100000E-04
 Iteration #          9
  pAp =    2.5228607340054052E-005  rzold =    9.5901287653591216E-006  alpha =   0.38012913816821786     
 delta_qm =   0.910423E-05 delta_en =   0.483397E-03 tol =   0.100000E-04
 Iteration #         10
  pAp =    6.4993700894415111E-007  rzold =    4.4985579184738887E-007  alpha =   0.69215290967688969     
 delta_qm =   0.432318E-05 delta_en =   0.108999E-03 tol =   0.100000E-04
 Iteration #         11
  pAp =    2.1725069932287049E-007  rzold =    1.4613518321158111E-007  alpha =   0.67265690590206129     
 delta_qm =   0.193511E-05 delta_en =   0.218388E-04 tol =   0.100000E-04
 Iteration #         12
  pAp =    1.3680352663450874E-007  rzold =    5.6964175635007166E-008  alpha =   0.41639405822625869     
 delta_qm =   0.120781E-05 delta_en =   0.850773E-05 tol =   0.100000E-04
 Charges are converged, EXIT

%%%% DENSITY %%%%%%%%%%%%%%%%%%%%%%%%%%%%%%%%%%%%%%%%%%%%%%%%%%%%%%%%%%%%%%%%%%%
 density label              = velectrostatic                                                                  
 integral of density        =    -0.1604644157E-11

%%%% CHARGES %%%%%%%%%%%%%%%%%%%%%%%%%%%%%%%%%%%%%%%%%%%%%%%%%%%%%%%%%%%%%%%%%%%
 total number of charges    =         12
 total charge               =      1.0000000

%%%% DENSITY %%%%%%%%%%%%%%%%%%%%%%%%%%%%%%%%%%%%%%%%%%%%%%%%%%%%%%%%%%%%%%%%%%%
 density label              = dvtot                                                                           
 integral of density        =     -42.24904057    

%%%% ELECTRONS %%%%%%%%%%%%%%%%%%%%%%%%%%%%%%%%%%%%%%%%%%%%%%%%%%%%%%%%%%%%%%%%%
 number of electrons        =          8
 total electronic charge    =      8.0000000

%%%% ELECTRONS %%%%%%%%%%%%%%%%%%%%%%%%%%%%%%%%%%%%%%%%%%%%%%%%%%%%%%%%%%%%%%%%%
 number of electrons        =          8
 total electronic charge    =      8.0000000

%%%% DENSITY %%%%%%%%%%%%%%%%%%%%%%%%%%%%%%%%%%%%%%%%%%%%%%%%%%%%%%%%%%%%%%%%%%%
 density label              = vreference                                                                      
 integral of density        =     0.7184355991E-12

%%%% COMPUTE ELECTROSTATIC POTENTIAL %%%%%%%%%%%%%%%%%%%%%%%%%%%%%%%%%%%%%%%%%%%
 Warning: bad guess with residual norm =   0.233512E+03, reset to no guess
 Iteration #          1
  pAp =    22.080937240706891       rzold =    21.318652836281633       alpha =   0.96547771518411984     
 delta_qm =   0.612670E-02 delta_en =   0.218913E+03 tol =   0.100000E-04
 Iteration #          2
  pAp =    79.492350682182519       rzold =    6.8378732316292075       alpha =    8.6019260632606426E-002
 delta_qm =   0.171719E-02 delta_en =   0.171970E+02 tol =   0.100000E-04
 Iteration #          3
  pAp =    1.7178654005093159       rzold =   0.31322542963509742       alpha =   0.18233409296341363     
 delta_qm =   0.471602E-03 delta_en =   0.129708E+01 tol =   0.100000E-04
 Iteration #          4
  pAp =    5.4365700603081650E-002  rzold =    1.2098217042312327E-002  alpha =   0.22253400412587629     
 delta_qm =   0.262966E-03 delta_en =   0.403290E+00 tol =   0.100000E-04
 Iteration #          5
  pAp =    5.4993074788860024E-004  rzold =    4.9443368939528767E-004  alpha =   0.89908355059907541     
 delta_qm =   0.149521E-03 delta_en =   0.130384E+00 tol =   0.100000E-04
 Iteration #          6
  pAp =    4.8554223665511634E-004  rzold =    2.9091209557814050E-004  alpha =   0.59914889708097041     
 delta_qm =   0.942775E-04 delta_en =   0.518362E-01 tol =   0.100000E-04
 Iteration #          7
  pAp =    1.3391065311073951E-004  rzold =    9.7999153950327009E-005  alpha =   0.73182492709736158     
 delta_qm =   0.356269E-04 delta_en =   0.740242E-02 tol =   0.100000E-04
 Iteration #          8
  pAp =    2.5183107519772505E-004  rzold =    5.6465830833423838E-005  alpha =   0.22422106084044519     
 delta_qm =   0.191983E-04 delta_en =   0.214953E-02 tol =   0.100000E-04
 Iteration #          9
  pAp =    3.0346143744843140E-005  rzold =    1.1082045237952581E-005  alpha =   0.36518792407802408     
 delta_qm =   0.103842E-04 delta_en =   0.628878E-03 tol =   0.100000E-04
 Iteration #         10
  pAp =    6.9977667326773466E-007  rzold =    5.3188297484603431E-007  alpha =   0.76007531426034802     
 delta_qm =   0.479300E-05 delta_en =   0.133978E-03 tol =   0.100000E-04
 Iteration #         11
  pAp =    2.7661876312307972E-007  rzold =    1.9028592825444911E-007  alpha =   0.68789957017406889     
 delta_qm =   0.211170E-05 delta_en =   0.260065E-04 tol =   0.100000E-04
 Iteration #         12
  pAp =    2.0543753115567786E-007  rzold =    7.8879486805892296E-008  alpha =   0.38395850243215035     
 delta_qm =   0.134615E-05 delta_en =   0.105682E-04 tol =   0.100000E-04
 Iteration #         13
  pAp =    2.6350089742773719E-008  rzold =    1.6546464642025729E-008  alpha =   0.62794718361683954     
 delta_qm =   0.567014E-06 delta_en =   0.187502E-05 tol =   0.100000E-04
 Charges are converged, EXIT

%%%% DENSITY %%%%%%%%%%%%%%%%%%%%%%%%%%%%%%%%%%%%%%%%%%%%%%%%%%%%%%%%%%%%%%%%%%%
 density label              = velectrostatic                                                                  
 integral of density        =    -0.3426859359E-11

%%%% CHARGES %%%%%%%%%%%%%%%%%%%%%%%%%%%%%%%%%%%%%%%%%%%%%%%%%%%%%%%%%%%%%%%%%%%
 total number of charges    =         12
 total charge               =      1.0000000

%%%% DENSITY %%%%%%%%%%%%%%%%%%%%%%%%%%%%%%%%%%%%%%%%%%%%%%%%%%%%%%%%%%%%%%%%%%%
 density label              = dvtot                                                                           
 integral of density        =     -40.47057596    

%%%% ELECTRONS %%%%%%%%%%%%%%%%%%%%%%%%%%%%%%%%%%%%%%%%%%%%%%%%%%%%%%%%%%%%%%%%%
 number of electrons        =          8
 total electronic charge    =      8.0000000

%%%% ELECTRONS %%%%%%%%%%%%%%%%%%%%%%%%%%%%%%%%%%%%%%%%%%%%%%%%%%%%%%%%%%%%%%%%%
 number of electrons        =          8
 total electronic charge    =      8.0000000

%%%% DENSITY %%%%%%%%%%%%%%%%%%%%%%%%%%%%%%%%%%%%%%%%%%%%%%%%%%%%%%%%%%%%%%%%%%%
 density label              = vreference                                                                      
 integral of density        =     0.4775603781E-13

%%%% COMPUTE ELECTROSTATIC POTENTIAL %%%%%%%%%%%%%%%%%%%%%%%%%%%%%%%%%%%%%%%%%%%
 Warning: bad guess with residual norm =   0.228393E+03, reset to no guess
 Iteration #          1
  pAp =    22.095839051198677       rzold =    21.341146244832867       alpha =   0.96584457351372366     
 delta_qm =   0.606114E-02 delta_en =   0.214253E+03 tol =   0.100000E-04
 Iteration #          2
  pAp =    74.200115241991753       rzold =    6.5009769216337565       alpha =    8.7614108151070458E-002
 delta_qm =   0.184579E-02 delta_en =   0.198694E+02 tol =   0.100000E-04
 Iteration #          3
  pAp =    2.0932511318836364       rzold =   0.36867881746693976       alpha =   0.17612737041024781     
 delta_qm =   0.487725E-03 delta_en =   0.138729E+01 tol =   0.100000E-04
 Iteration #          4
  pAp =    5.9391576287865649E-002  rzold =    1.3402831078086992E-002  alpha =   0.22566888969446897     
 delta_qm =   0.271238E-03 delta_en =   0.429062E+00 tol =   0.100000E-04
 Iteration #          5
  pAp =    5.8925147240183374E-004  rzold =    5.2802497751140330E-004  alpha =   0.89609445583416769     
 delta_qm =   0.154034E-03 delta_en =   0.138372E+00 tol =   0.100000E-04
 Iteration #          6
  pAp =    5.1653998990100860E-004  rzold =    3.0823482719105773E-004  alpha =   0.59672984322110056     
 delta_qm =   0.959870E-04 delta_en =   0.537332E-01 tol =   0.100000E-04
 Iteration #          7
  pAp =    1.5939104586818338E-004  rzold =    1.0491395440608551E-004  alpha =   0.65821736619288829     
 delta_qm =   0.422034E-04 delta_en =   0.103876E-01 tol =   0.100000E-04
 Iteration #          8
  pAp =    3.5603141032304137E-004  rzold =    8.1038013501995995E-005  alpha =   0.22761478665173673     
 delta_qm =   0.207112E-04 delta_en =   0.250167E-02 tol =   0.100000E-04
 Iteration #          9
  pAp =    2.9266729717724953E-005  rzold =    1.1694048324642196E-005  alpha =   0.39956798854638931     
 delta_qm =   0.116941E-04 delta_en =   0.797543E-03 tol =   0.100000E-04
 Iteration #         10
  pAp =    7.6214132605656090E-007  rzold =    6.3383538648984943E-007  alpha =   0.83165072516066463     
 delta_qm =   0.521924E-05 delta_en =   0.158867E-03 tol =   0.100000E-04
 Iteration #         11
  pAp =    3.4718302423144040E-007  rzold =    2.4412620726806735E-007  alpha =   0.70316285713706750     
 delta_qm =   0.230167E-05 delta_en =   0.308962E-04 tol =   0.100000E-04
 Iteration #         12
  pAp =    2.6331700506365404E-007  rzold =    9.5863259941959919E-008  alpha =   0.36406026993503898     
 delta_qm =   0.150800E-05 delta_en =   0.132624E-04 tol =   0.100000E-04
 Iteration #         13
  pAp =    2.8073588997667190E-008  rzold =    1.8976188867468958E-008  alpha =   0.67594452811308903     
 delta_qm =   0.577744E-06 delta_en =   0.194665E-05 tol =   0.100000E-04
 Charges are converged, EXIT

%%%% DENSITY %%%%%%%%%%%%%%%%%%%%%%%%%%%%%%%%%%%%%%%%%%%%%%%%%%%%%%%%%%%%%%%%%%%
 density label              = velectrostatic                                                                  
 integral of density        =     0.1146239874E-11

%%%% CHARGES %%%%%%%%%%%%%%%%%%%%%%%%%%%%%%%%%%%%%%%%%%%%%%%%%%%%%%%%%%%%%%%%%%%
 total number of charges    =         12
 total charge               =      1.0000000

%%%% DENSITY %%%%%%%%%%%%%%%%%%%%%%%%%%%%%%%%%%%%%%%%%%%%%%%%%%%%%%%%%%%%%%%%%%%
 density label              = dvtot                                                                           
 integral of density        =     -40.88337280    

%%%% ELECTRONS %%%%%%%%%%%%%%%%%%%%%%%%%%%%%%%%%%%%%%%%%%%%%%%%%%%%%%%%%%%%%%%%%
 number of electrons        =          8
 total electronic charge    =      8.0000000

%%%% ELECTRONS %%%%%%%%%%%%%%%%%%%%%%%%%%%%%%%%%%%%%%%%%%%%%%%%%%%%%%%%%%%%%%%%%
 number of electrons        =          8
 total electronic charge    =      8.0000000

%%%% DENSITY %%%%%%%%%%%%%%%%%%%%%%%%%%%%%%%%%%%%%%%%%%%%%%%%%%%%%%%%%%%%%%%%%%%
 density label              = dvtot                                                                           
 integral of density        =     -40.88337280    

%%%% DENSITY %%%%%%%%%%%%%%%%%%%%%%%%%%%%%%%%%%%%%%%%%%%%%%%%%%%%%%%%%%%%%%%%%%%
 density label              = vreference                                                                      
 integral of density        =     0.4775603781E-13

%%%% DENSITY %%%%%%%%%%%%%%%%%%%%%%%%%%%%%%%%%%%%%%%%%%%%%%%%%%%%%%%%%%%%%%%%%%%
 density label              = velectrostatic                                                                  
 integral of density        =     0.1146239874E-11

%%%% CHARGES %%%%%%%%%%%%%%%%%%%%%%%%%%%%%%%%%%%%%%%%%%%%%%%%%%%%%%%%%%%%%%%%%%%
 total number of charges    =         12
 total charge               =      1.0000000
