
     Program PWSCF v.6.3MaX starts on 21Apr2019 at 23:47:59 

     This program is part of the open-source Quantum ESPRESSO suite
     for quantum simulation of materials; please cite
         "P. Giannozzi et al., J. Phys.:Condens. Matter 21 395502 (2009);
         "P. Giannozzi et al., J. Phys.:Condens. Matter 29 465901 (2017);
          URL http://www.quantum-espresso.org", 
     in publications or presentations arising from this work. More details at
     http://www.quantum-espresso.org/quote

     Parallel version (MPI), running on     1 processors

     MPI processes distributed on     1 nodes
     Reading input from neutral.in

     Current dimensions of program PWSCF are:
     Max number of different atomic species (ntypx) = 10
     Max number of k-points (npk) =  40000
     Max angular momentum in pseudopotentials (lmaxx) =  3
               file C.pbe-rrkjus.UPF: wavefunction(s)  2S 2P renormalized
               file H.pbe-rrkjus.UPF: wavefunction(s)  1S renormalized
               file N.pbe-rrkjus.UPF: wavefunction(s)  2S renormalized
               file O.pbe-rrkjus.UPF: wavefunction(s)  2S renormalized

     gamma-point specific algorithms are used

     Subspace diagonalization in iterative solution of the eigenvalue problem:
     a serial algorithm will be used

 
     G-vector sticks info
     --------------------
     sticks:   dense  smooth     PW     G-vecs:    dense   smooth      PW
     Sum        9549    3809    949               701475   177509   22119
 


     bravais-lattice index     =            1
     lattice parameter (alat)  =      20.0000  a.u.
     unit-cell volume          =    8000.0000 (a.u.)^3
     number of atoms/cell      =            9
     number of atomic types    =            4
     number of electrons       =        24.00
     number of Kohn-Sham states=           12
     kinetic-energy cutoff     =      30.0000  Ry
     charge density cutoff     =     300.0000  Ry
     convergence threshold     =      1.0E-03
     mixing beta               =       0.7000
     number of iterations used =            8  plain     mixing
     Exchange-correlation      = SLA PW PBE PBE ( 1  4  3  4 0 0)
 

     Environ Module
     ==============

     Plese cite
         O. Andreussi, I. Dabo and N. Marzari, J. Chem. Phys. 136, 064102 (2012)         
     in publications or presentations arising from this work.

     compensation onset threshold      =               0.1000E+03 
     static permittivity               =                    78.30 
     epsilon calculation mode          =                    ionic 
     surface tension in input (dyn/cm) =                    50.00 
     surface tension in internal units =               0.6423E-04 
     external pressure in input (GPa)  =                    -0.35 
     external pressure in inter. units =              -0.2379E-04 

     Electrostatic Setup
     -------------------
     electrostatic problem to solve    = generalized              
     numerical solver adopted          = cg                       
     type of auxiliary density adopted = none                     
     type of core tool for poisson     = fft                      
     type of core tool for s(r) deriv  = analytic                 



     celldm(1)=  20.000000  celldm(2)=   0.000000  celldm(3)=   0.000000
     celldm(4)=   0.000000  celldm(5)=   0.000000  celldm(6)=   0.000000

     crystal axes: (cart. coord. in units of alat)
               a(1) = (   1.000000   0.000000   0.000000 )  
               a(2) = (   0.000000   1.000000   0.000000 )  
               a(3) = (   0.000000   0.000000   1.000000 )  

     reciprocal axes: (cart. coord. in units 2 pi/alat)
               b(1) = (  1.000000  0.000000  0.000000 )  
               b(2) = (  0.000000  1.000000  0.000000 )  
               b(3) = (  0.000000  0.000000  1.000000 )  


     PseudoPot. # 1 for C  read from file:
     /home/fnattino/Programs/quantumespresso/q-e-qe-6.3-develop/Environ/tests/../..//pseudo/C.pbe-rrkjus.UPF
     MD5 check sum: c9ac5a99bc85b198593446162950cd17
     Pseudo is Ultrasoft, Zval =  4.0
     Generated by new atomic code, or converted to UPF format
     Using radial grid of  627 points,  4 beta functions with: 
                l(1) =   0
                l(2) =   0
                l(3) =   1
                l(4) =   1
     Q(r) pseudized with 0 coefficients 


     PseudoPot. # 2 for H  read from file:
     /home/fnattino/Programs/quantumespresso/q-e-qe-6.3-develop/Environ/tests/../..//pseudo/H.pbe-rrkjus.UPF
     MD5 check sum: 2d52a7f45632fd764c17cc6affed14c8
     Pseudo is Ultrasoft, Zval =  1.0
     Generated by new atomic code, or converted to UPF format
     Using radial grid of 1061 points,  2 beta functions with: 
                l(1) =   0
                l(2) =   0
     Q(r) pseudized with 0 coefficients 


     PseudoPot. # 3 for N  read from file:
     /home/fnattino/Programs/quantumespresso/q-e-qe-6.3-develop/Environ/tests/../..//pseudo/N.pbe-rrkjus.UPF
     MD5 check sum: 28c76d763763edb36c62a6ca2be9aebd
     Pseudo is Ultrasoft, Zval =  5.0
     Generated by new atomic code, or converted to UPF format
     Using radial grid of 1257 points,  4 beta functions with: 
                l(1) =   0
                l(2) =   0
                l(3) =   1
                l(4) =   1
     Q(r) pseudized with 0 coefficients 


     PseudoPot. # 4 for O  read from file:
     /home/fnattino/Programs/quantumespresso/q-e-qe-6.3-develop/Environ/tests/../..//pseudo/O.pbe-rrkjus.UPF
     MD5 check sum: fadcf19ee70a498d3030e2e79cf929a4
     Pseudo is Ultrasoft, Zval =  6.0
     Generated by new atomic code, or converted to UPF format
     Using radial grid of 1269 points,  4 beta functions with: 
                l(1) =   0
                l(2) =   0
                l(3) =   1
                l(4) =   1
     Q(r) pseudized with 0 coefficients 


     atomic species   valence    mass     pseudopotential
        C              4.00    12.00000     C ( 1.00)
        H              1.00     1.00000     H ( 1.00)
        N              5.00    14.00000     N ( 1.00)
        O              6.00    16.00000     O ( 1.00)

     No symmetry found



   Cartesian axes

     site n.     atom                  positions (alat units)
         1           C   tau(   1) = (   0.0000000   0.0000000   0.0000000  )
         2           C   tau(   2) = (   0.0000000   0.0000000   0.1455089  )
         3           N   tau(   3) = (   0.1170969   0.0000000  -0.0545024  )
         4           H   tau(   4) = (   0.0476617  -0.0825466   0.1792090  )
         5           H   tau(   5) = (  -0.0953183  -0.0000030   0.1792090  )
         6           H   tau(   6) = (   0.0476566   0.0825496   0.1792090  )
         7           O   tau(   7) = (  -0.0984002  -0.0000019  -0.0641310  )
         8           H   tau(   8) = (   0.1263131  -0.0000015  -0.1475548  )
         9           H   tau(   9) = (   0.1944645   0.0000134  -0.0025716  )

     number of k points=     1
                       cart. coord. in units 2pi/alat
        k(    1) = (   0.0000000   0.0000000   0.0000000), wk =   2.0000000

     Dense  grid:   350738 G-vectors     FFT dimensions: ( 120, 120, 120)

     Smooth grid:    88755 G-vectors     FFT dimensions: (  72,  72,  72)

     Estimated max dynamical RAM per process >     675.41 MB

     Initial potential from superposition of free atoms
     Check: negative starting charge=   -0.000530

     starting charge   23.51886, renormalised to   24.00000

     negative rho (up, down):  5.411E-04 0.000E+00
     Starting wfcs are   21 randomized atomic wfcs

     total cpu time spent up to now is       42.6 secs

     Self-consistent Calculation

     iteration #  1     ecut=    30.00 Ry     beta= 0.70
     Davidson diagonalization with overlap
     ethr =  1.00E-02,  avg # of iterations =  2.0

     negative rho (up, down):  1.677E-04 0.000E+00

     add environment contribution to local potential
     polarization accuracy = 9.9E-06, # of iterations =  16

     total cpu time spent up to now is       46.3 secs

     total energy              =     -79.57098956 Ry
     Harris-Foulkes estimate   =     -81.75211111 Ry
     estimated scf accuracy    <       2.90357419 Ry
     electrostatic embedding   =       0.00000000 Ry
     cavitation energy         =       0.02739809 Ry
     PV energy                 =      -0.01763538 Ry
     correction to one-el term =       0.00000000 Ry

     iteration #  2     ecut=    30.00 Ry     beta= 0.70
     Davidson diagonalization with overlap
     ethr =  1.00E-02,  avg # of iterations =  4.0

     negative rho (up, down):  1.539E-03 0.000E+00

     add environment contribution to local potential
     polarization accuracy = 3.1E-06, # of iterations =  17

     total cpu time spent up to now is       50.2 secs

     total energy              =     -79.97515488 Ry
     Harris-Foulkes estimate   =     -79.83794455 Ry
     estimated scf accuracy    <       1.89975294 Ry
     electrostatic embedding   =      -0.03021822 Ry
     cavitation energy         =       0.02739809 Ry
     PV energy                 =      -0.01763538 Ry
     correction to one-el term =      -1.12246480 Ry

     iteration #  3     ecut=    30.00 Ry     beta= 0.70
     Davidson diagonalization with overlap
     ethr =  7.92E-03,  avg # of iterations =  3.0

     negative rho (up, down):  3.786E-04 0.000E+00

     add environment contribution to local potential
     polarization accuracy = 5.7E-06, # of iterations =  16

     total cpu time spent up to now is       53.9 secs

     total energy              =     -80.44171395 Ry
     Harris-Foulkes estimate   =     -79.89309615 Ry
     estimated scf accuracy    <       0.19900011 Ry
     electrostatic embedding   =      -0.04884177 Ry
     cavitation energy         =       0.02739809 Ry
     PV energy                 =      -0.01763538 Ry
     correction to one-el term =      -0.61010676 Ry

     iteration #  4     ecut=    30.00 Ry     beta= 0.70
     Davidson diagonalization with overlap
     ethr =  8.29E-04,  avg # of iterations =  4.0

     negative rho (up, down):  2.092E-04 0.000E+00

     add environment contribution to local potential
     polarization accuracy = 8.0E-06, # of iterations =  16

     total cpu time spent up to now is       57.6 secs

     total energy              =     -80.49087858 Ry
     Harris-Foulkes estimate   =     -80.21366450 Ry
     estimated scf accuracy    <       0.02936987 Ry
     electrostatic embedding   =      -0.03901628 Ry
     cavitation energy         =       0.02739809 Ry
     PV energy                 =      -0.01763538 Ry
     correction to one-el term =      -0.26271613 Ry

     iteration #  5     ecut=    30.00 Ry     beta= 0.70
     Davidson diagonalization with overlap
     ethr =  1.22E-04,  avg # of iterations =  2.0

     negative rho (up, down):  9.978E-05 0.000E+00

     add environment contribution to local potential
     polarization accuracy = 6.0E-06, # of iterations =  16

     total cpu time spent up to now is       61.2 secs

     total energy              =     -80.49905167 Ry
     Harris-Foulkes estimate   =     -80.52503659 Ry
     estimated scf accuracy    <       0.00339993 Ry
     electrostatic embedding   =      -0.04629063 Ry
     cavitation energy         =       0.02739809 Ry
     PV energy                 =      -0.01763538 Ry
     correction to one-el term =       0.06074587 Ry

     iteration #  6     ecut=    30.00 Ry     beta= 0.70
     Davidson diagonalization with overlap
     ethr =  1.42E-05,  avg # of iterations =  3.0

     negative rho (up, down):  2.259E-04 0.000E+00

     the potential shift due to the Gaussian-smeared nuclei is    -0.0641 ev

     total cpu time spent up to now is       62.9 secs

     End of self-consistent calculation

          k = 0.0000 0.0000 0.0000 ( 11060 PWs)   bands (ev):

   -25.5936 -22.2074 -17.7411 -14.2488 -12.8805 -11.1434 -10.5368  -9.5451
    -9.2184  -8.6389  -6.3058  -5.7900

     highest occupied level (ev):    -5.7900

!    total energy              =     -80.50000006 Ry
     Harris-Foulkes estimate   =     -80.58058682 Ry
     estimated scf accuracy    <       0.00032688 Ry

     The total energy is the sum of the following terms:

     one-electron contribution =    -236.16695974 Ry
     hartree contribution      =     121.53396874 Ry
     xc contribution           =     -22.69505262 Ry
     ewald contribution        =      56.74764018 Ry
     electrostatic embedding   =      -0.04701254 Ry
     cavitation energy         =       0.02739809 Ry
     PV energy                 =      -0.01763538 Ry
     correction to one-el term =       0.11765321 Ry

     convergence has been achieved in   6 iterations

     Forces acting on atoms (cartesian axes, Ry/au):

     atom    1 type  1   force =     0.02867792    0.00000252    0.01234803
     atom    2 type  1   force =    -0.00683452    0.00000790   -0.06268943
     atom    3 type  3   force =    -0.07003248    0.00000124    0.03145053
     atom    4 type  2   force =     0.02177051   -0.03033661    0.01471008
     atom    5 type  2   force =    -0.03292682   -0.00000636    0.01000433
     atom    6 type  2   force =     0.02176988    0.03032927    0.01471161
     atom    7 type  4   force =    -0.00682434    0.00000881   -0.00342373
     atom    8 type  2   force =     0.00167215   -0.00000413   -0.04661206
     atom    9 type  2   force =     0.04272769   -0.00000264    0.02950063

     Total force =     0.142057     Total SCF correction =     0.029108
     SCF correction compared to forces is large: reduce conv_thr to get better values

     Writing output data file pwscf.save/
 
     init_run     :     40.59s CPU     41.97s WALL (       1 calls)
     electrons    :     16.20s CPU     20.29s WALL (       1 calls)
     forces       :     14.20s CPU     14.57s WALL (       1 calls)

     Called by init_run:
     wfcinit      :      0.14s CPU      0.13s WALL (       1 calls)
     potinit      :      0.85s CPU      0.94s WALL (       1 calls)
     hinit0       :     39.22s CPU     40.25s WALL (       1 calls)

     Called by electrons:
     c_bands      :      1.37s CPU      1.38s WALL (       6 calls)
     sum_band     :      2.36s CPU      3.42s WALL (       6 calls)
     v_of_rho     :      3.24s CPU      3.61s WALL (       7 calls)
     newd         :      1.79s CPU      3.01s WALL (       7 calls)
     mix_rho      :      0.29s CPU      0.30s WALL (       6 calls)

     Called by c_bands:
     init_us_2    :      0.05s CPU      0.06s WALL (      13 calls)
     regterg      :      1.29s CPU      1.30s WALL (       6 calls)

     Called by sum_band:
     sum_band:bec :      0.00s CPU      0.00s WALL (       6 calls)
     addusdens    :      1.92s CPU      2.97s WALL (       6 calls)

     Called by *egterg:
     h_psi        :      1.29s CPU      1.30s WALL (      25 calls)
     s_psi        :      0.01s CPU      0.02s WALL (      25 calls)
     g_psi        :      0.02s CPU      0.01s WALL (      18 calls)
     rdiaghg      :      0.00s CPU      0.01s WALL (      24 calls)

     Called by h_psi:
     h_psi:pot    :      1.29s CPU      1.29s WALL (      25 calls)
     h_psi:calbec :      0.02s CPU      0.03s WALL (      25 calls)
     vloc_psi     :      1.25s CPU      1.24s WALL (      25 calls)
     add_vuspsi   :      0.02s CPU      0.02s WALL (      25 calls)

     General routines
     calbec       :      0.03s CPU      0.04s WALL (      35 calls)
     fft          :      4.88s CPU      5.02s WALL (     283 calls)
     ffts         :      0.04s CPU      0.04s WALL (      13 calls)
     fftw         :      1.12s CPU      1.11s WALL (     282 calls)
     interpolate  :      0.19s CPU      0.22s WALL (       7 calls)
 
     Parallel routines
 
     Environ routines
     calc_eelect  :      0.02s CPU      0.02s WALL (      12 calls)
     calc_velect  :      6.90s CPU      8.39s WALL (      10 calls)
     dielectric   :      0.11s CPU      0.13s WALL (       2 calls)
     calc_felect  :      0.08s CPU      0.08s WALL (       1 calls)
 
     PWSCF        :  1m11.67s CPU     1m17.53s WALL

 
   This run was terminated on:  23:49:16  21Apr2019            

=------------------------------------------------------------------------------=
   JOB DONE.
=------------------------------------------------------------------------------=

%%%% IONS %%%%%%%%%%%%%%%%%%%%%%%%%%%%%%%%%%%%%%%%%%%%%%%%%%%%%%%%%%%%%%%%%%%%%%
 number of ions             =          9
 ionic center of charge     =      0.0131609     0.0000000     0.0130099
 total ionic charge         =    -24.0000000
 ionic dipole               =      0.0000000     0.0000000     0.0000000
 ionic quadrupole (pc)      =    -75.9587432    -5.4513517   -95.3140149
 ionic quadrupole (gauss)   =    -78.9587432    -8.4513517   -98.3140149
 ion   1 type =  1 coordinates =      0.0000000     0.0000000     0.0000000
 ion   2 type =  1 coordinates =      0.0000000     0.0000000     2.9101782
 ion   3 type =  3 coordinates =      2.3419379     0.0000000    -1.0900479
 ion   4 type =  2 coordinates =      0.9532347    -1.6509323     3.5841800
 ion   5 type =  2 coordinates =     -1.9063663    -0.0000596     3.5841809
 ion   6 type =  2 coordinates =      0.9531315     1.6509919     3.5841800
 ion   7 type =  4 coordinates =     -1.9680045    -0.0000375    -1.2826193
 ion   8 type =  2 coordinates =      2.5262613    -0.0000303    -2.9510950
 ion   9 type =  2 coordinates =      3.8892907     0.0002681    -0.0514326

%%%% SYSTEM %%%%%%%%%%%%%%%%%%%%%%%%%%%%%%%%%%%%%%%%%%%%%%%%%%%%%%%%%%%%%%%%%%%%
 system is built from all present ionic types
 system defined dimension   =  0 
 system defined axis        =  3 
 system center              =      0.0131609     0.0000000     0.0130099 
 system width               =      0.1984688 

%%%% BOUNDARY %%%%%%%%%%%%%%%%%%%%%%%%%%%%%%%%%%%%%%%%%%%%%%%%%%%%%%%%%%%%%%%%%%
 boundary label             = solvent              
 boundary mode              = ionic                
 boundary is built from soft-spheres centered on ionic positions
 solvent-dependent scaling  =      1.1200000 
 softness parameter         =      0.5000000 
 volume of the QM region    =    741.2152861 
 surface of the QM region   =    426.5589287 

%%%% DIELECTRIC %%%%%%%%%%%%%%%%%%%%%%%%%%%%%%%%%%%%%%%%%%%%%%%%%%%%%%%%%%%%%%%%%
 dielectric build on homogeneous background
 environment bulk permitt.  =     78.3000000 
 dielectric flags
 need gradient              =  F 
 need factor depend. sqrt   =  T 
 total dielectric charge    =      0.0000000

%%%% ELECTRONS %%%%%%%%%%%%%%%%%%%%%%%%%%%%%%%%%%%%%%%%%%%%%%%%%%%%%%%%%%%%%%%%%
 number of electrons        =         24
 total electronic charge    =     24.0000000
 number of spin components  =  1

%%%% DENSITY %%%%%%%%%%%%%%%%%%%%%%%%%%%%%%%%%%%%%%%%%%%%%%%%%%%%%%%%%%%%%%%%%%%
 density label              = vreference                                                                      
 integral of density        =      0.000000000    

%%%% DENSITY %%%%%%%%%%%%%%%%%%%%%%%%%%%%%%%%%%%%%%%%%%%%%%%%%%%%%%%%%%%%%%%%%%%
 density label              = velectrostatic                                                                  
 integral of density        =      0.000000000    

%%%% CHARGES %%%%%%%%%%%%%%%%%%%%%%%%%%%%%%%%%%%%%%%%%%%%%%%%%%%%%%%%%%%%%%%%%%%
 total number of charges    =         33
 total charge               =      0.0000000

%%%% ELECTRONS %%%%%%%%%%%%%%%%%%%%%%%%%%%%%%%%%%%%%%%%%%%%%%%%%%%%%%%%%%%%%%%%%
 number of electrons        =         24
 total electronic charge    =     24.0000000
 number of spin components  =  1

%%%% DENSITY %%%%%%%%%%%%%%%%%%%%%%%%%%%%%%%%%%%%%%%%%%%%%%%%%%%%%%%%%%%%%%%%%%%
 density label              = vreference                                                                      
 integral of density        =     0.3929038165E-12

%%%% COMPUTE ELECTROSTATIC POTENTIAL %%%%%%%%%%%%%%%%%%%%%%%%%%%%%%%%%%%%%%%%%%%
 Iteration #          1
  pAp =    89.8102812169967       rzold =    89.3166001871174       alpha = 
  0.994503067764742     
 delta_qm =   0.832503E-02 delta_en =   0.119761E+03 tol =   0.100000E-04
 Iteration #          2
  pAp =    39.2994504254025       rzold =    3.97930004955334       alpha = 
  0.101255870157950     
 delta_qm =   0.239908E-02 delta_en =   0.994565E+01 tol =   0.100000E-04
 Iteration #          3
  pAp =   0.568271822087419       rzold =   0.114500656467867       alpha = 
  0.201489238103121     
 delta_qm =   0.103021E-02 delta_en =   0.183399E+01 tol =   0.100000E-04
 Iteration #          4
  pAp =   5.276907171846276E-002  rzold =   9.375287842889282E-003  alpha = 
  0.177666340103706     
 delta_qm =   0.844957E-03 delta_en =   0.123371E+01 tol =   0.100000E-04
 Iteration #          5
  pAp =   5.697506464956262E-003  rzold =   1.783242868596401E-003  alpha = 
  0.312986545880135     
 delta_qm =   0.610325E-03 delta_en =   0.643674E+00 tol =   0.100000E-04
 Iteration #          6
  pAp =   3.105575192910074E-003  rzold =   1.243577818666898E-003  alpha = 
  0.400433974841744     
 delta_qm =   0.336434E-03 delta_en =   0.195588E+00 tol =   0.100000E-04
 Iteration #          7
  pAp =   2.158043246186618E-003  rzold =   6.810179738944767E-004  alpha = 
  0.315571977113004     
 delta_qm =   0.215984E-03 delta_en =   0.806097E-01 tol =   0.100000E-04
 Iteration #          8
  pAp =   1.688587335915545E-003  rzold =   3.539259768107654E-004  alpha = 
  0.209598857745115     
 delta_qm =   0.172273E-03 delta_en =   0.512833E-01 tol =   0.100000E-04
 Iteration #          9
  pAp =   3.225005397569616E-004  rzold =   1.581105131285371E-004  alpha = 
  0.490264336449453     
 delta_qm =   0.807304E-04 delta_en =   0.112621E-01 tol =   0.100000E-04
 Iteration #         10
  pAp =   1.581209198134737E-004  rzold =   4.726896351536240E-005  alpha = 
  0.298941870380737     
 delta_qm =   0.398133E-04 delta_en =   0.273905E-02 tol =   0.100000E-04
 Iteration #         11
  pAp =   2.273433185470102E-005  rzold =   8.055037559435259E-006  alpha = 
  0.354311602861979     
 delta_qm =   0.284375E-04 delta_en =   0.139742E-02 tol =   0.100000E-04
 Iteration #         12
  pAp =   3.427912916011788E-006  rzold =   1.624584727394259E-006  alpha = 
  0.473928237734926     
 delta_qm =   0.175693E-04 delta_en =   0.533401E-03 tol =   0.100000E-04
 Iteration #         13
  pAp =   1.973783647270338E-006  rzold =   9.752697925111267E-007  alpha = 
  0.494111800885515     
 delta_qm =   0.846469E-05 delta_en =   0.123813E-03 tol =   0.100000E-04
 Iteration #         14
  pAp =   1.485961369151182E-006  rzold =   4.596851028487209E-007  alpha = 
  0.309351987468762     
 delta_qm =   0.570127E-05 delta_en =   0.561678E-04 tol =   0.100000E-04
 Iteration #         15
  pAp =   3.728262763961944E-007  rzold =   1.225135528303903E-007  alpha = 
  0.328607613215003     
 delta_qm =   0.368288E-05 delta_en =   0.234379E-04 tol =   0.100000E-04
 Iteration #         16
  pAp =   1.027690949555022E-007  rzold =   3.488985060019246E-008  alpha = 
  0.339497497913155     
 delta_qm =   0.239433E-05 delta_en =   0.990629E-05 tol =   0.100000E-04
 Charges are converged, EXIT

%%%% DENSITY %%%%%%%%%%%%%%%%%%%%%%%%%%%%%%%%%%%%%%%%%%%%%%%%%%%%%%%%%%%%%%%%%%%
 density label              = velectrostatic                                                                  
 integral of density        =     0.5658025488E-12

%%%% CHARGES %%%%%%%%%%%%%%%%%%%%%%%%%%%%%%%%%%%%%%%%%%%%%%%%%%%%%%%%%%%%%%%%%%%
 total number of charges    =         33
 total charge               =     -0.0000000

%%%% ELECTRONS %%%%%%%%%%%%%%%%%%%%%%%%%%%%%%%%%%%%%%%%%%%%%%%%%%%%%%%%%%%%%%%%%
 number of electrons        =         24
 total electronic charge    =     24.0000000
 number of spin components  =  1

%%%% DENSITY %%%%%%%%%%%%%%%%%%%%%%%%%%%%%%%%%%%%%%%%%%%%%%%%%%%%%%%%%%%%%%%%%%%
 density label              = vreference                                                                      
 integral of density        =    -0.6881737978E-13

%%%% COMPUTE ELECTROSTATIC POTENTIAL %%%%%%%%%%%%%%%%%%%%%%%%%%%%%%%%%%%%%%%%%%%
 Warning: bad guess with residual norm =   0.221123E+03, reset to no guess
 Iteration #          1
  pAp =    92.0164992279496       rzold =    91.1928305596454       alpha = 
  0.991048685016111     
 delta_qm =   0.112280E-01 delta_en =   0.217845E+03 tol =   0.100000E-04
 Iteration #          2
  pAp =    58.9728922315754       rzold =    6.40880034046802       alpha = 
  0.108673665101957     
 delta_qm =   0.240840E-02 delta_en =   0.100230E+02 tol =   0.100000E-04
 Iteration #          3
  pAp =   0.973160251026953       rzold =   0.133541560335584       alpha = 
  0.137224635094436     
 delta_qm =   0.107098E-02 delta_en =   0.198200E+01 tol =   0.100000E-04
 Iteration #          4
  pAp =   7.599759616744067E-002  rzold =   1.388821288439939E-002  alpha = 
  0.182745423339448     
 delta_qm =   0.928116E-03 delta_en =   0.148850E+01 tol =   0.100000E-04
 Iteration #          5
  pAp =   6.982290366463060E-003  rzold =   2.278016121006896E-003  alpha = 
  0.326256285752385     
 delta_qm =   0.650455E-03 delta_en =   0.731103E+00 tol =   0.100000E-04
 Iteration #          6
  pAp =   3.097153776446283E-003  rzold =   1.329974264669667E-003  alpha = 
  0.429418220943391     
 delta_qm =   0.383722E-03 delta_en =   0.254435E+00 tol =   0.100000E-04
 Iteration #          7
  pAp =   4.916056912077399E-003  rzold =   1.057830146614066E-003  alpha = 
  0.215178580218481     
 delta_qm =   0.268306E-03 delta_en =   0.124396E+00 tol =   0.100000E-04
 Iteration #          8
  pAp =   1.353549658386777E-003  rzold =   4.499633412554872E-004  alpha = 
  0.332432089556119     
 delta_qm =   0.185347E-03 delta_en =   0.593628E-01 tol =   0.100000E-04
 Iteration #          9
  pAp =   2.915994617720311E-004  rzold =   1.492808720123829E-004  alpha = 
  0.511938091741366     
 delta_qm =   0.750809E-04 delta_en =   0.974097E-02 tol =   0.100000E-04
 Iteration #         10
  pAp =   2.033456781324484E-004  rzold =   6.004678732098885E-005  alpha = 
  0.295294140856427     
 delta_qm =   0.454688E-04 delta_en =   0.357249E-02 tol =   0.100000E-04
 Iteration #         11
  pAp =   2.357684136896599E-005  rzold =   8.459777080934923E-006  alpha = 
  0.358817237158429     
 delta_qm =   0.309715E-04 delta_en =   0.165755E-02 tol =   0.100000E-04
 Iteration #         12
  pAp =   5.143457739586796E-006  rzold =   2.119298243687322E-006  alpha = 
  0.412037650737571     
 delta_qm =   0.202675E-04 delta_en =   0.709810E-03 tol =   0.100000E-04
 Iteration #         13
  pAp =   3.055814841952637E-006  rzold =   1.305440761192832E-006  alpha = 
  0.427198907234402     
 delta_qm =   0.106714E-04 delta_en =   0.196782E-03 tol =   0.100000E-04
 Iteration #         14
  pAp =   1.333868628134935E-006  rzold =   5.521769737916913E-007  alpha = 
  0.413966534743205     
 delta_qm =   0.560536E-05 delta_en =   0.542939E-04 tol =   0.100000E-04
 Iteration #         15
  pAp =   3.306540144032632E-007  rzold =   1.260607843063831E-007  alpha = 
  0.381246798209564     
 delta_qm =   0.365596E-05 delta_en =   0.230965E-04 tol =   0.100000E-04
 Iteration #         16
  pAp =   8.916133634011864E-008  rzold =   3.025558981985563E-008  alpha = 
  0.339335311265876     
 delta_qm =   0.249645E-05 delta_en =   0.107694E-04 tol =   0.100000E-04
 Iteration #         17
  pAp =   7.935829434654137E-008  rzold =   2.435553540541062E-008  alpha = 
  0.306905983879328     
 delta_qm =   0.134967E-05 delta_en =   0.314772E-05 tol =   0.100000E-04
 Charges are converged, EXIT

%%%% DENSITY %%%%%%%%%%%%%%%%%%%%%%%%%%%%%%%%%%%%%%%%%%%%%%%%%%%%%%%%%%%%%%%%%%%
 density label              = velectrostatic                                                                  
 integral of density        =    -0.7972552659E-12

%%%% CHARGES %%%%%%%%%%%%%%%%%%%%%%%%%%%%%%%%%%%%%%%%%%%%%%%%%%%%%%%%%%%%%%%%%%%
 total number of charges    =         33
 total charge               =      0.0000000

%%%% ELECTRONS %%%%%%%%%%%%%%%%%%%%%%%%%%%%%%%%%%%%%%%%%%%%%%%%%%%%%%%%%%%%%%%%%
 number of electrons        =         24
 total electronic charge    =     24.0000000
 number of spin components  =  1

%%%% DENSITY %%%%%%%%%%%%%%%%%%%%%%%%%%%%%%%%%%%%%%%%%%%%%%%%%%%%%%%%%%%%%%%%%%%
 density label              = vreference                                                                      
 integral of density        =     0.1184237893E-13

%%%% COMPUTE ELECTROSTATIC POTENTIAL %%%%%%%%%%%%%%%%%%%%%%%%%%%%%%%%%%%%%%%%%%%
 Warning: bad guess with residual norm =   0.146242E+03, reset to no guess
 Iteration #          1
  pAp =    92.8813999010805       rzold =    92.3285421622435       alpha = 
  0.994047702344863     
 delta_qm =   0.915392E-02 delta_en =   0.144797E+03 tol =   0.100000E-04
 Iteration #          2
  pAp =    37.5591432534832       rzold =    4.17373612724086       alpha = 
  0.111124369879065     
 delta_qm =   0.221312E-02 delta_en =   0.846355E+01 tol =   0.100000E-04
 Iteration #          3
  pAp =   0.698316024588971       rzold =   0.100379362581656       alpha = 
  0.143744893496807     
 delta_qm =   0.985355E-03 delta_en =   0.167776E+01 tol =   0.100000E-04
 Iteration #          4
  pAp =   7.413008990447978E-002  rzold =   1.319751730558054E-002  alpha = 
  0.178031853496821     
 delta_qm =   0.887771E-03 delta_en =   0.136190E+01 tol =   0.100000E-04
 Iteration #          5
  pAp =   6.234111134294241E-003  rzold =   2.015146387355554E-003  alpha = 
  0.323245181862432     
 delta_qm =   0.635037E-03 delta_en =   0.696854E+00 tol =   0.100000E-04
 Iteration #          6
  pAp =   2.432149929064521E-003  rzold =   1.200272118631242E-003  alpha = 
  0.493502519843792     
 delta_qm =   0.350919E-03 delta_en =   0.212794E+00 tol =   0.100000E-04
 Iteration #          7
  pAp =   3.705515056345369E-003  rzold =   8.731441940716435E-004  alpha = 
  0.235633692157440     
 delta_qm =   0.246229E-03 delta_en =   0.104767E+00 tol =   0.100000E-04
 Iteration #          8
  pAp =   1.774698336531983E-003  rzold =   4.708335797986243E-004  alpha = 
  0.265303443467863     
 delta_qm =   0.175073E-03 delta_en =   0.529641E-01 tol =   0.100000E-04
 Iteration #          9
  pAp =   2.876010976945762E-004  rzold =   1.360804646405210E-004  alpha = 
  0.473156972387617     
 delta_qm =   0.756292E-04 delta_en =   0.988378E-02 tol =   0.100000E-04
 Iteration #         10
  pAp =   1.700141935975593E-004  rzold =   5.320288294919651E-005  alpha = 
  0.312932007754206     
 delta_qm =   0.451348E-04 delta_en =   0.352020E-02 tol =   0.100000E-04
 Iteration #         11
  pAp =   2.368824468956158E-005  rzold =   8.178014165837826E-006  alpha = 
  0.345235127085695     
 delta_qm =   0.302997E-04 delta_en =   0.158643E-02 tol =   0.100000E-04
 Iteration #         12
  pAp =   4.589597459160308E-006  rzold =   2.021751565255433E-006  alpha = 
  0.440507382890464     
 delta_qm =   0.196617E-04 delta_en =   0.668011E-03 tol =   0.100000E-04
 Iteration #         13
  pAp =   3.073083704586718E-006  rzold =   1.268773804865831E-006  alpha = 
  0.412866659952063     
 delta_qm =   0.105822E-04 delta_en =   0.193505E-03 tol =   0.100000E-04
 Iteration #         14
  pAp =   1.420458898111161E-006  rzold =   5.671907162182730E-007  alpha = 
  0.399301040651362     
 delta_qm =   0.540459E-05 delta_en =   0.504741E-04 tol =   0.100000E-04
 Iteration #         15
  pAp =   2.873659138161457E-007  rzold =   1.149719838690422E-007  alpha = 
  0.400089148856396     
 delta_qm =   0.348720E-05 delta_en =   0.210135E-04 tol =   0.100000E-04
 Iteration #         16
  pAp =   4.041532974164136E-008  rzold =   2.239788332733045E-008  alpha = 
  0.554192764738304     
 delta_qm =   0.181892E-05 delta_en =   0.571707E-05 tol =   0.100000E-04
 Charges are converged, EXIT

%%%% DENSITY %%%%%%%%%%%%%%%%%%%%%%%%%%%%%%%%%%%%%%%%%%%%%%%%%%%%%%%%%%%%%%%%%%%
 density label              = velectrostatic                                                                  
 integral of density        =    -0.8351508785E-12

%%%% CHARGES %%%%%%%%%%%%%%%%%%%%%%%%%%%%%%%%%%%%%%%%%%%%%%%%%%%%%%%%%%%%%%%%%%%
 total number of charges    =         33
 total charge               =      0.0000000

%%%% ELECTRONS %%%%%%%%%%%%%%%%%%%%%%%%%%%%%%%%%%%%%%%%%%%%%%%%%%%%%%%%%%%%%%%%%
 number of electrons        =         24
 total electronic charge    =     24.0000000
 number of spin components  =  1

%%%% DENSITY %%%%%%%%%%%%%%%%%%%%%%%%%%%%%%%%%%%%%%%%%%%%%%%%%%%%%%%%%%%%%%%%%%%
 density label              = vreference                                                                      
 integral of density        =    -0.7500173322E-14

%%%% COMPUTE ELECTROSTATIC POTENTIAL %%%%%%%%%%%%%%%%%%%%%%%%%%%%%%%%%%%%%%%%%%%
 Warning: bad guess with residual norm =   0.159855E+03, reset to no guess
 Iteration #          1
  pAp =    92.7445915329939       rzold =    92.1418135221333       alpha = 
  0.993500666713851     
 delta_qm =   0.956575E-02 delta_en =   0.158118E+03 tol =   0.100000E-04
 Iteration #          2
  pAp =    37.7868960366644       rzold =    4.36426825501773       alpha = 
  0.115496870946561     
 delta_qm =   0.218792E-02 delta_en =   0.827193E+01 tol =   0.100000E-04
 Iteration #          3
  pAp =   0.642850238092610       rzold =   9.687910457416962E-002  alpha = 
  0.150702447994136     
 delta_qm =   0.912177E-03 delta_en =   0.143781E+01 tol =   0.100000E-04
 Iteration #          4
  pAp =   8.993525247459699E-002  rzold =   1.479264480841638E-002  alpha = 
  0.164481050549057     
 delta_qm =   0.872555E-03 delta_en =   0.131562E+01 tol =   0.100000E-04
 Iteration #          5
  pAp =   7.223553067365499E-003  rzold =   2.191786156361386E-003  alpha = 
  0.303422171322229     
 delta_qm =   0.624812E-03 delta_en =   0.674594E+00 tol =   0.100000E-04
 Iteration #          6
  pAp =   2.189993078017803E-003  rzold =   1.115676675977268E-003  alpha = 
  0.509443014763811     
 delta_qm =   0.366143E-03 delta_en =   0.231657E+00 tol =   0.100000E-04
 Iteration #          7
  pAp =   3.280685454809342E-003  rzold =   8.486014881382421E-004  alpha = 
  0.258665909861681     
 delta_qm =   0.250462E-03 delta_en =   0.108399E+00 tol =   0.100000E-04
 Iteration #          8
  pAp =   2.062385190731756E-003  rzold =   4.938014834456778E-004  alpha = 
  0.239432229083487     
 delta_qm =   0.181396E-03 delta_en =   0.568592E-01 tol =   0.100000E-04
 Iteration #          9
  pAp =   3.398226193111478E-004  rzold =   1.468853934734166E-004  alpha = 
  0.432241366896550     
 delta_qm =   0.858925E-04 delta_en =   0.127483E-01 tol =   0.100000E-04
 Iteration #         10
  pAp =   1.811200498582355E-004  rzold =   6.156558809640534E-005  alpha = 
  0.339915918445215     
 delta_qm =   0.457582E-04 delta_en =   0.361811E-02 tol =   0.100000E-04
 Iteration #         11
  pAp =   2.667968110923693E-005  rzold =   9.328546140081465E-006  alpha = 
  0.349649836588631     
 delta_qm =   0.302442E-04 delta_en =   0.158062E-02 tol =   0.100000E-04
 Iteration #         12
  pAp =   4.723390057931930E-006  rzold =   2.040305709218651E-006  alpha = 
  0.431957912472715     
 delta_qm =   0.202840E-04 delta_en =   0.710968E-03 tol =   0.100000E-04
 Iteration #         13
  pAp =   3.062310197082050E-006  rzold =   1.252236053139299E-006  alpha = 
  0.408918748444395     
 delta_qm =   0.110602E-04 delta_en =   0.211382E-03 tol =   0.100000E-04
 Iteration #         14
  pAp =   1.447248052858958E-006  rzold =   5.958878803462674E-007  alpha = 
  0.411738595307918     
 delta_qm =   0.548421E-05 delta_en =   0.519722E-04 tol =   0.100000E-04
 Iteration #         15
  pAp =   3.193065464006090E-007  rzold =   1.275637722340075E-007  alpha = 
  0.399502527185782     
 delta_qm =   0.349753E-05 delta_en =   0.211382E-04 tol =   0.100000E-04
 Iteration #         16
  pAp =   5.549106156387501E-008  rzold =   2.465114706791158E-008  alpha = 
  0.444236357589519     
 delta_qm =   0.214670E-05 delta_en =   0.796321E-05 tol =   0.100000E-04
 Charges are converged, EXIT

%%%% DENSITY %%%%%%%%%%%%%%%%%%%%%%%%%%%%%%%%%%%%%%%%%%%%%%%%%%%%%%%%%%%%%%%%%%%
 density label              = velectrostatic                                                                  
 integral of density        =    -0.4513262192E-12

%%%% CHARGES %%%%%%%%%%%%%%%%%%%%%%%%%%%%%%%%%%%%%%%%%%%%%%%%%%%%%%%%%%%%%%%%%%%
 total number of charges    =         33
 total charge               =      0.0000000

%%%% ELECTRONS %%%%%%%%%%%%%%%%%%%%%%%%%%%%%%%%%%%%%%%%%%%%%%%%%%%%%%%%%%%%%%%%%
 number of electrons        =         24
 total electronic charge    =     24.0000000
 number of spin components  =  1

%%%% DENSITY %%%%%%%%%%%%%%%%%%%%%%%%%%%%%%%%%%%%%%%%%%%%%%%%%%%%%%%%%%%%%%%%%%%
 density label              = vreference                                                                      
 integral of density        =     0.7100164078E-12

%%%% COMPUTE ELECTROSTATIC POTENTIAL %%%%%%%%%%%%%%%%%%%%%%%%%%%%%%%%%%%%%%%%%%%
 Warning: bad guess with residual norm =   0.160445E+03, reset to no guess
 Iteration #          1
  pAp =    92.8794266568107       rzold =    92.2756438506428       alpha = 
  0.993499283663767     
 delta_qm =   0.958330E-02 delta_en =   0.158699E+03 tol =   0.100000E-04
 Iteration #          2
  pAp =    37.5684851328250       rzold =    4.35582760870526       alpha = 
  0.115943658449497     
 delta_qm =   0.216781E-02 delta_en =   0.812060E+01 tol =   0.100000E-04
 Iteration #          3
  pAp =   0.620607141530723       rzold =   9.438441627039158E-002  alpha = 
  0.152083999609790     
 delta_qm =   0.901488E-03 delta_en =   0.140431E+01 tol =   0.100000E-04
 Iteration #          4
  pAp =   8.948649743932974E-002  rzold =   1.462779426676912E-002  alpha = 
  0.163463703299892     
 delta_qm =   0.872904E-03 delta_en =   0.131667E+01 tol =   0.100000E-04
 Iteration #          5
  pAp =   7.422826073304832E-003  rzold =   2.215922420827643E-003  alpha = 
  0.298528134560084     
 delta_qm =   0.624680E-03 delta_en =   0.674309E+00 tol =   0.100000E-04
 Iteration #          6
  pAp =   2.175977875129681E-003  rzold =   1.112757730899397E-003  alpha = 
  0.511382833262071     
 delta_qm =   0.367593E-03 delta_en =   0.233495E+00 tol =   0.100000E-04
 Iteration #          7
  pAp =   3.323067934857303E-003  rzold =   8.537752331649552E-004  alpha = 
  0.256923797497272     
 delta_qm =   0.251954E-03 delta_en =   0.109695E+00 tol =   0.100000E-04
 Iteration #          8
  pAp =   2.070044008790475E-003  rzold =   4.997346906240138E-004  alpha = 
  0.241412592438558     
 delta_qm =   0.181988E-03 delta_en =   0.572310E-01 tol =   0.100000E-04
 Iteration #          9
  pAp =   3.257660707065315E-004  rzold =   1.441246936221578E-004  alpha = 
  0.442417754892570     
 delta_qm =   0.848184E-04 delta_en =   0.124315E-01 tol =   0.100000E-04
 Iteration #         10
  pAp =   1.815725160643544E-004  rzold =   6.089610656399258E-005  alpha = 
  0.335381741047248     
 delta_qm =   0.457983E-04 delta_en =   0.362445E-02 tol =   0.100000E-04
 Iteration #         11
  pAp =   2.681545884796903E-005  rzold =   9.327604606109285E-006  alpha = 
  0.347844303503900     
 delta_qm =   0.301629E-04 delta_en =   0.157214E-02 tol =   0.100000E-04
 Iteration #         12
  pAp =   4.735808965209229E-006  rzold =   2.037614857326336E-006  alpha = 
  0.430256978753853     
 delta_qm =   0.202125E-04 delta_en =   0.705969E-03 tol =   0.100000E-04
 Iteration #         13
  pAp =   3.044550650681255E-006  rzold =   1.251875504993859E-006  alpha = 
  0.411185639074107     
 delta_qm =   0.110271E-04 delta_en =   0.210119E-03 tol =   0.100000E-04
 Iteration #         14
  pAp =   1.435064727179299E-006  rzold =   5.909821464464726E-007  alpha = 
  0.411815673017120     
 delta_qm =   0.547546E-05 delta_en =   0.518066E-04 tol =   0.100000E-04
 Iteration #         15
  pAp =   3.195188560466290E-007  rzold =   1.280352345232615E-007  alpha = 
  0.400712609288313     
 delta_qm =   0.348963E-05 delta_en =   0.210428E-04 tol =   0.100000E-04
 Iteration #         16
  pAp =   4.154444273496362E-008  rzold =   2.279214364448529E-008  alpha = 
  0.548620757531633     
 delta_qm =   0.185619E-05 delta_en =   0.595371E-05 tol =   0.100000E-04
 Charges are converged, EXIT

%%%% DENSITY %%%%%%%%%%%%%%%%%%%%%%%%%%%%%%%%%%%%%%%%%%%%%%%%%%%%%%%%%%%%%%%%%%%
 density label              = velectrostatic                                                                  
 integral of density        =     0.4460629397E-12

%%%% CHARGES %%%%%%%%%%%%%%%%%%%%%%%%%%%%%%%%%%%%%%%%%%%%%%%%%%%%%%%%%%%%%%%%%%%
 total number of charges    =         33
 total charge               =      0.0000000

%%%% ELECTRONS %%%%%%%%%%%%%%%%%%%%%%%%%%%%%%%%%%%%%%%%%%%%%%%%%%%%%%%%%%%%%%%%%
 number of electrons        =         24
 total electronic charge    =     24.0000000
 number of spin components  =  1

%%%% DENSITY %%%%%%%%%%%%%%%%%%%%%%%%%%%%%%%%%%%%%%%%%%%%%%%%%%%%%%%%%%%%%%%%%%%
 density label              = vreference                                                                      
 integral of density        =     0.7100164078E-12

%%%% DENSITY %%%%%%%%%%%%%%%%%%%%%%%%%%%%%%%%%%%%%%%%%%%%%%%%%%%%%%%%%%%%%%%%%%%
 density label              = velectrostatic                                                                  
 integral of density        =     0.4460629397E-12

%%%% CHARGES %%%%%%%%%%%%%%%%%%%%%%%%%%%%%%%%%%%%%%%%%%%%%%%%%%%%%%%%%%%%%%%%%%%
 total number of charges    =         33
 total charge               =      0.0000000
