
     Program PWSCF v.6.7MaX starts on  3Mar2021 at 11:30:37 

     This program is part of the open-source Quantum ESPRESSO suite
     for quantum simulation of materials; please cite
         "P. Giannozzi et al., J. Phys.:Condens. Matter 21 395502 (2009);
         "P. Giannozzi et al., J. Phys.:Condens. Matter 29 465901 (2017);
          URL http://www.quantum-espresso.org", 
     in publications or presentations arising from this work. More details at
     http://www.quantum-espresso.org/quote

     Parallel version (MPI), running on     1 processors

     MPI processes distributed on     1 nodes
     Waiting for input...
     Reading input from standard input

     Current dimensions of program PWSCF are:
     Max number of different atomic species (ntypx) = 10
     Max number of k-points (npk) =  40000
     Max angular momentum in pseudopotentials (lmaxx) =  3
     file N.pbe-rrkjus.UPF: wavefunction(s)  2S renormalized
     file C.pbe-rrkjus.UPF: wavefunction(s)  2S 2P renormalized
     file H.pbe-rrkjus.UPF: wavefunction(s)  1S renormalized

     gamma-point specific algorithms are used

     Subspace diagonalization in iterative solution of the eigenvalue problem:
     a serial algorithm will be used


     G-vector sticks info
     --------------------
     sticks:   dense  smooth     PW     G-vecs:    dense   smooth      PW
     Sum        2385     949    241                87655    22119    2777



     bravais-lattice index     =            1
     lattice parameter (alat)  =      10.0000  a.u.
     unit-cell volume          =    1000.0000 (a.u.)^3
     number of atoms/cell      =           11
     number of atomic types    =            3
     number of electrons       =        30.00
     number of Kohn-Sham states=           15
     kinetic-energy cutoff     =      30.0000  Ry
     charge density cutoff     =     300.0000  Ry
     scf convergence threshold =      5.0E-04
     mixing beta               =       0.7000
     number of iterations used =            8  plain     mixing
     Exchange-correlation= SLA  PW   PBE  PBE
                           (   1   4   3   4   0   0   0)


     Environ Module
     ==============

     Plese cite
         O. Andreussi, I. Dabo and N. Marzari, J. Chem. Phys. 136, 064102 (2012)         
     in publications or presentations arising from this work.

     compensation onset threshold      =               0.1000E+03 
     static permittivity               =                    20.00 
     epsilon calculation mode          =               electronic 

     Electrostatic Setup
     -------------------
     electrostatic problem to solve    = linmodpb                 
     numerical solver adopted          = cg                       
     type of auxiliary density adopted = none                     
     type of core tool for poisson     = fft                      



     celldm(1)=  10.000000  celldm(2)=   0.000000  celldm(3)=   0.000000
     celldm(4)=   0.000000  celldm(5)=   0.000000  celldm(6)=   0.000000

     crystal axes: (cart. coord. in units of alat)
               a(1) = (   1.000000   0.000000   0.000000 )  
               a(2) = (   0.000000   1.000000   0.000000 )  
               a(3) = (   0.000000   0.000000   1.000000 )  

     reciprocal axes: (cart. coord. in units 2 pi/alat)
               b(1) = (  1.000000  0.000000  0.000000 )  
               b(2) = (  0.000000  1.000000  0.000000 )  
               b(3) = (  0.000000  0.000000  1.000000 )  


     PseudoPot. # 1 for N  read from file:
     ../../../pseudo/N.pbe-rrkjus.UPF
     MD5 check sum: 28c76d763763edb36c62a6ca2be9aebd
     Pseudo is Ultrasoft, Zval =  5.0
     Generated by new atomic code, or converted to UPF format
     Using radial grid of 1257 points,  4 beta functions with: 
                l(1) =   0
                l(2) =   0
                l(3) =   1
                l(4) =   1
     Q(r) pseudized with 0 coefficients 


     PseudoPot. # 2 for C  read from file:
     ../../../pseudo/C.pbe-rrkjus.UPF
     MD5 check sum: c9ac5a99bc85b198593446162950cd17
     Pseudo is Ultrasoft, Zval =  4.0
     Generated by new atomic code, or converted to UPF format
     Using radial grid of  627 points,  4 beta functions with: 
                l(1) =   0
                l(2) =   0
                l(3) =   1
                l(4) =   1
     Q(r) pseudized with 0 coefficients 


     PseudoPot. # 3 for H  read from file:
     ../../../pseudo/H.pbe-rrkjus.UPF
     MD5 check sum: 2d52a7f45632fd764c17cc6affed14c8
     Pseudo is Ultrasoft, Zval =  1.0
     Generated by new atomic code, or converted to UPF format
     Using radial grid of 1061 points,  2 beta functions with: 
                l(1) =   0
                l(2) =   0
     Q(r) pseudized with 0 coefficients 


     atomic species   valence    mass     pseudopotential
        N              5.00    14.00000     N ( 1.00)
        C              4.00    12.00000     C ( 1.00)
        H              1.00     1.00000     H ( 1.00)

     No symmetry found



   Cartesian axes

     site n.     atom                  positions (alat units)
         1           N   tau(   1) = (  -0.2445407   0.0000000   0.0003027  )
         2           C   tau(   2) = (  -0.1233144   0.2247358   0.0002075  )
         3           C   tau(   3) = (   0.1378123   0.2285192   0.0001463  )
         4           C   tau(   4) = (   0.2693935   0.0000000   0.0001319  )
         5           C   tau(   5) = (   0.1378123  -0.2285192   0.0002652  )
         6           C   tau(   6) = (  -0.1233144  -0.2247357   0.0003546  )
         7           H   tau(   7) = (  -0.2412731   0.3938141   0.0001709  )
         8           H   tau(   8) = (   0.2359096   0.4098722   0.0000804  )
         9           H   tau(   9) = (   0.4758586  -0.0000000   0.0000020  )
        10           H   tau(  10) = (   0.2359097  -0.4098722   0.0003207  )
        11           H   tau(  11) = (  -0.2412730  -0.3938140   0.0004881  )

     number of k points=     1
                       cart. coord. in units 2pi/alat
        k(    1) = (   0.0000000   0.0000000   0.0000000), wk =   2.0000000

     Dense  grid:    43828 G-vectors     FFT dimensions: (  60,  60,  60)

     Smooth grid:    11060 G-vectors     FFT dimensions: (  36,  36,  36)

     Estimated max dynamical RAM per process >      76.01 MB

     Initial potential from superposition of free atoms

     starting charge   29.51871, renormalised to   30.00000
     Starting wfcs are   29 randomized atomic wfcs

     total cpu time spent up to now is       10.3 secs

     Self-consistent Calculation

     iteration #  1     ecut=    30.00 Ry     beta= 0.70
     Davidson diagonalization with overlap
     ethr =  1.00E-02,  avg # of iterations =  2.0

     add environment contribution to local potential
     polarization accuracy = 8.0E-06, # of iterations =  28

     total cpu time spent up to now is       43.3 secs

     total energy              =     -81.97572229 Ry
     estimated scf accuracy    <       2.14951728 Ry
     electrostatic embedding   =       0.00000000 Ry
     electrolyte free energy   =       0.00281976 Ry
     correction to one-el term =      -0.00000000 Ry

     iteration #  2     ecut=    30.00 Ry     beta= 0.70
     Davidson diagonalization with overlap
     ethr =  7.17E-03,  avg # of iterations =  2.0

     add environment contribution to local potential
     polarization accuracy = 5.3E-06, # of iterations =  27

     total cpu time spent up to now is       77.3 secs

     total energy              =     -82.36900105 Ry
     estimated scf accuracy    <       0.11458652 Ry
     electrostatic embedding   =      -0.09228242 Ry
     electrolyte free energy   =      -0.02855178 Ry
     correction to one-el term =       5.30998182 Ry

     iteration #  3     ecut=    30.00 Ry     beta= 0.70
     Davidson diagonalization with overlap
     ethr =  3.82E-04,  avg # of iterations =  2.0

     add environment contribution to local potential
     polarization accuracy = 6.7E-06, # of iterations =  30

     total cpu time spent up to now is      112.0 secs

     total energy              =     -82.40223618 Ry
     estimated scf accuracy    <       0.00582845 Ry
     electrostatic embedding   =      -0.14297149 Ry
     electrolyte free energy   =      -0.02728920 Ry
     correction to one-el term =       4.70880668 Ry

     iteration #  4     ecut=    30.00 Ry     beta= 0.70
     Davidson diagonalization with overlap
     ethr =  1.94E-05,  avg # of iterations =  2.0

     add environment contribution to local potential
     polarization accuracy = 3.2E-06, # of iterations =  29

     total cpu time spent up to now is      145.9 secs

     total energy              =     -82.40293671 Ry
     estimated scf accuracy    <       0.00054199 Ry
     electrostatic embedding   =      -0.15426165 Ry
     electrolyte free energy   =      -0.02767936 Ry
     correction to one-el term =       4.74023713 Ry

     iteration #  5     ecut=    30.00 Ry     beta= 0.70
     Davidson diagonalization with overlap
     ethr =  1.81E-06,  avg # of iterations =  3.0

     the potential shift due to the Gaussian-smeared nuclei is    -0.0237 ev

     total cpu time spent up to now is      150.2 secs

     End of self-consistent calculation

          k = 0.0000 0.0000 0.0000 (  1389 PWs)   bands (ev):

   -21.2320 -17.3949 -16.4166 -14.1621 -12.7595 -12.0268 -11.2596  -9.3231
    -8.0278  -6.6686  -6.5334  -4.8276  -4.4686  -4.3589  -2.9102

     highest occupied level (ev):    -2.9102

!    total energy              =     -82.40338011 Ry
     estimated scf accuracy    <       0.00008325 Ry

     The total energy is the sum of the following terms:
     one-electron contribution =    -121.17062218 Ry
     hartree contribution      =      66.51187849 Ry
     xc contribution           =     -26.32995478 Ry
     ewald contribution        =      -5.97292420 Ry
     electrostatic embedding   =      -0.16302154 Ry
     electrolyte free energy   =      -0.02781573 Ry
     correction to one-el term =       4.74907984 Ry

     WARNING: you are using the parabolic pbc correction;
              the potential shift above must be added to 
              band and Fermi energies.

     convergence has been achieved in   5 iterations
 forces lc
       1    0.0396   -0.0283   -0.0007
       2   -0.1445    0.0451   -0.0003
       3    0.1889    0.1056   -0.0004
       4    1.2683    0.2526   -0.0010
       5    0.1781    0.0681   -0.0004
       6   -0.1451   -0.0329    0.0000
       7   -3.0652   -7.0001    0.0166
       8  -34.7689    7.7985    0.0349
       9  143.1396   -4.1287    0.0043
      10  -27.0644    8.7195    0.0286
      11   -3.7764    0.0611    0.0077

     Forces acting on atoms (cartesian axes, Ry/au):

     atom    1 type  1   force =    -6.18902433   -0.55938254   -0.00762776
     atom    2 type  2   force =    -7.06868103   -0.68155680   -0.00866499
     atom    3 type  2   force =    -6.69098026   -0.59010267   -0.00903277
     atom    4 type  2   force =    -5.86392622   -0.27997056   -0.00941361
     atom    5 type  2   force =    -6.70115234   -0.29112386   -0.00841318
     atom    6 type  2   force =    -7.07038681   -0.36439098   -0.00802762
     atom    7 type  3   force =    -9.98229213   -7.68914184    0.00818316
     atom    8 type  3   force =   -41.70741902    6.98091056    0.02632144
     atom    9 type  3   force =   135.97007287   -4.66485096   -0.00381952
     atom   10 type  3   force =   -34.00043417    8.46203890    0.02073506
     atom   11 type  3   force =   -10.69577657   -0.32242925   -0.00024020

     Total force =   148.534561     Total SCF correction =     0.014839

     Writing output data file ./tmp/pwscf.save/

     init_run     :      9.42s CPU     10.21s WALL (       1 calls)
     electrons    :    133.50s CPU    140.00s WALL (       1 calls)
     forces       :      1.48s CPU      1.58s WALL (       1 calls)

     Called by init_run:
     wfcinit      :      0.02s CPU      0.02s WALL (       1 calls)
     potinit      :      3.85s CPU      4.14s WALL (       1 calls)
     hinit0       :      4.54s CPU      4.68s WALL (       1 calls)

     Called by electrons:
     c_bands      :      0.14s CPU      0.19s WALL (       5 calls)
     sum_band     :      0.41s CPU      0.26s WALL (       5 calls)
     v_of_rho     :      0.42s CPU      0.50s WALL (       6 calls)
     newd         :      0.17s CPU      0.23s WALL (       6 calls)
     mix_rho      :      0.03s CPU      0.03s WALL (       5 calls)

     Called by c_bands:
     init_us_2    :      0.00s CPU      0.00s WALL (      11 calls)
     regterg      :      0.13s CPU      0.18s WALL (       5 calls)

     Called by *egterg:
     rdiaghg      :      0.00s CPU      0.00s WALL (      16 calls)
     h_psi        :      0.11s CPU      0.17s WALL (      17 calls)
     s_psi        :      0.01s CPU      0.01s WALL (      17 calls)
     g_psi        :      0.00s CPU      0.00s WALL (      11 calls)

     Called by h_psi:
     h_psi:calbec :      0.00s CPU      0.00s WALL (      17 calls)
     vloc_psi     :      0.10s CPU      0.10s WALL (      17 calls)
     add_vuspsi   :      0.01s CPU      0.07s WALL (      17 calls)

     General routines
     calbec       :      0.01s CPU      0.01s WALL (      26 calls)
     fft          :     56.04s CPU     58.07s WALL (     419 calls)
     ffts         :      0.01s CPU      0.01s WALL (      11 calls)
     fftw         :      0.09s CPU      0.09s WALL (     294 calls)
     interpolate  :      0.02s CPU      0.06s WALL (       6 calls)

     Parallel routines
     fft_scatt_xy :      5.99s CPU      6.01s WALL (     350 calls)
     fft_scatt_yz :      8.20s CPU      8.22s WALL (     350 calls)

     Environ routines
     calc_eelect  :      0.07s CPU      0.07s WALL (      10 calls)
     calc_velect  :    104.16s CPU    108.31s WALL (       8 calls)
     dielectric   :      0.98s CPU      1.17s WALL (       7 calls)
     electrolyte  :      0.06s CPU      0.06s WALL (       7 calls)
     calc_felect  :      1.37s CPU      1.47s WALL (       1 calls)

     PWSCF        :   2m24.45s CPU   2m32.06s WALL


   This run was terminated on:  11:33: 9   3Mar2021            

=------------------------------------------------------------------------------=
   JOB DONE.
=------------------------------------------------------------------------------=
