
     Program PWSCF v.6.1 (svn rev. 13369) starts on 15Dec2017 at 11: 7:39 

     This program is part of the open-source Quantum ESPRESSO suite
     for quantum simulation of materials; please cite
         "P. Giannozzi et al., J. Phys.:Condens. Matter 21 395502 (2009);
          URL http://www.quantum-espresso.org", 
     in publications or presentations arising from this work. More details at
     http://www.quantum-espresso.org/quote

     Parallel version (MPI), running on     1 processors
     Reading input from pw.in

     Current dimensions of program PWSCF are:
     Max number of different atomic species (ntypx) = 10
     Max number of k-points (npk) =  40000
     Max angular momentum in pseudopotentials (lmaxx) =  3
               file N.pbe-rrkjus.UPF: wavefunction(s)  2S renormalized
               file C.pbe-rrkjus.UPF: wavefunction(s)  2S 2P renormalized
               file H.pbe-rrkjus.UPF: wavefunction(s)  1S renormalized

     gamma-point specific algorithms are used

     Subspace diagonalization in iterative solution of the eigenvalue problem:
     a serial algorithm will be used

 
     G-vector sticks info
     --------------------
     sticks:   dense  smooth     PW     G-vecs:    dense   smooth      PW
     Sum        9549    3809    949               701475   177509   22119
 


     bravais-lattice index     =            1
     lattice parameter (alat)  =      20.0000  a.u.
     unit-cell volume          =    8000.0000 (a.u.)^3
     number of atoms/cell      =           11
     number of atomic types    =            3
     number of electrons       =        30.00
     number of Kohn-Sham states=           15
     kinetic-energy cutoff     =      30.0000  Ry
     charge density cutoff     =     300.0000  Ry
     convergence threshold     =      5.0E-04
     mixing beta               =       0.7000
     number of iterations used =            8  plain     mixing
     Exchange-correlation      =  SLA  PW   PBE  PBE ( 1  4  3  4 0 0)
 

     Environ Module
     ==============

     Plese cite
         O. Andreussi, I. Dabo and N. Marzari, J. Chem. Phys. 136, 064102 (2012)         
     in publications or presentations arising from this work.

     compensation onset threshold      =               0.1000E+03 
     static permittivity               =                    20.00 
     epsilon calculation mode          =               electronic 

     Electrostatic Setup
     -------------------
     electrostatic problem to solve    = linmodpb                 
     numerical solver adopted          = cg                       
     type of auxiliary density adopted = none                     
     type of core tool for poisson     = fft                      
     type of core tool for s(r) deriv  = analytic                 



     celldm(1)=  20.000000  celldm(2)=   0.000000  celldm(3)=   0.000000
     celldm(4)=   0.000000  celldm(5)=   0.000000  celldm(6)=   0.000000

     crystal axes: (cart. coord. in units of alat)
               a(1) = (   1.000000   0.000000   0.000000 )  
               a(2) = (   0.000000   1.000000   0.000000 )  
               a(3) = (   0.000000   0.000000   1.000000 )  

     reciprocal axes: (cart. coord. in units 2 pi/alat)
               b(1) = (  1.000000  0.000000  0.000000 )  
               b(2) = (  0.000000  1.000000  0.000000 )  
               b(3) = (  0.000000  0.000000  1.000000 )  


     PseudoPot. # 1 for N  read from file:
     /home/fnattino/Programs/qe-6.1/Environ/tests/../..//pseudo/N.pbe-rrkjus.UPF
     MD5 check sum: 0c3fbe5807a93f9ba59d5a7019aa238b
     Pseudo is Ultrasoft, Zval =  5.0
     Generated by new atomic code, or converted to UPF format
     Using radial grid of 1257 points,  4 beta functions with: 
                l(1) =   0
                l(2) =   0
                l(3) =   1
                l(4) =   1
     Q(r) pseudized with 0 coefficients 


     PseudoPot. # 2 for C  read from file:
     /home/fnattino/Programs/qe-6.1/Environ/tests/../..//pseudo/C.pbe-rrkjus.UPF
     MD5 check sum: 00fb224312de0c5b6853bd333518df6f
     Pseudo is Ultrasoft, Zval =  4.0
     Generated by new atomic code, or converted to UPF format
     Using radial grid of  627 points,  4 beta functions with: 
                l(1) =   0
                l(2) =   0
                l(3) =   1
                l(4) =   1
     Q(r) pseudized with 0 coefficients 


     PseudoPot. # 3 for H  read from file:
     /home/fnattino/Programs/qe-6.1/Environ/tests/../..//pseudo/H.pbe-rrkjus.UPF
     MD5 check sum: 7cc9d459525c9a0585f487a71c3c9563
     Pseudo is Ultrasoft, Zval =  1.0
     Generated by new atomic code, or converted to UPF format
     Using radial grid of 1061 points,  2 beta functions with: 
                l(1) =   0
                l(2) =   0
     Q(r) pseudized with 0 coefficients 


     atomic species   valence    mass     pseudopotential
        N              5.00    14.00000     N ( 1.00)
        C              4.00    12.00000     C ( 1.00)
        H              1.00     1.00000     H ( 1.00)

     No symmetry found



   Cartesian axes

     site n.     atom                  positions (alat units)
         1           N   tau(   1) = (  -0.1222704   0.0000000   0.0001514  )
         2           C   tau(   2) = (  -0.0616572   0.1123679   0.0001037  )
         3           C   tau(   3) = (   0.0689061   0.1142596   0.0000731  )
         4           C   tau(   4) = (   0.1346968   0.0000000   0.0000659  )
         5           C   tau(   5) = (   0.0689062  -0.1142596   0.0001326  )
         6           C   tau(   6) = (  -0.0616572  -0.1123679   0.0001773  )
         7           H   tau(   7) = (  -0.1206366   0.1969071   0.0000855  )
         8           H   tau(   8) = (   0.1179548   0.2049361   0.0000402  )
         9           H   tau(   9) = (   0.2379293  -0.0000000   0.0000010  )
        10           H   tau(  10) = (   0.1179548  -0.2049361   0.0001604  )
        11           H   tau(  11) = (  -0.1206365  -0.1969070   0.0002440  )

     number of k points=     1
                       cart. coord. in units 2pi/alat
        k(    1) = (   0.0000000   0.0000000   0.0000000), wk =   2.0000000

     Dense  grid:   350738 G-vectors     FFT dimensions: ( 120, 120, 120)

     Smooth grid:    88755 G-vectors     FFT dimensions: (  72,  72,  72)

     Estimated max dynamical RAM per process >     300.59MB

     Initial potential from superposition of free atoms
     Check: negative starting charge=   -0.000446

     starting charge   29.51871, renormalised to   30.00000

     negative rho (up, down):  4.533E-04 0.000E+00
     Starting wfc are   29 randomized atomic wfcs

     total cpu time spent up to now is        3.1 secs

     per-process dynamical memory:   873.1 Mb

     Self-consistent Calculation

     iteration #  1     ecut=    30.00 Ry     beta=0.70
     Davidson diagonalization with overlap
     ethr =  1.00E-02,  avg # of iterations =  2.0

     negative rho (up, down):  1.360E-04 0.000E+00

     add environment contribution to local potential
     polarization accuracy = 7.5E-06, # of iterations =  17

     total cpu time spent up to now is        9.6 secs

     total energy              =     -82.24704869 Ry
     Harris-Foulkes estimate   =     -83.63778213 Ry
     estimated scf accuracy    <       2.07062237 Ry
     electrostatic embedding   =       0.00000000 Ry
     electrolyte free energy   =       0.01117092 Ry
     correction to one-el term =       0.00000000 Ry

     iteration #  2     ecut=    30.00 Ry     beta=0.70
     Davidson diagonalization with overlap
     ethr =  6.90E-03,  avg # of iterations =  3.0

     negative rho (up, down):  1.552E-04 0.000E+00

     add environment contribution to local potential
     polarization accuracy = 3.4E-06, # of iterations =  19

     total cpu time spent up to now is       16.6 secs

     total energy              =     -82.45750491 Ry
     Harris-Foulkes estimate   =     -82.81809714 Ry
     estimated scf accuracy    <       0.49815578 Ry
     electrostatic embedding   =      -0.01905368 Ry
     electrolyte free energy   =       0.00746034 Ry
     correction to one-el term =       0.05160618 Ry

     iteration #  3     ecut=    30.00 Ry     beta=0.70
     Davidson diagonalization with overlap
     ethr =  1.66E-03,  avg # of iterations =  4.0

     negative rho (up, down):  1.953E-04 0.000E+00

     add environment contribution to local potential
     polarization accuracy = 4.0E-06, # of iterations =  19

     total cpu time spent up to now is       23.5 secs

     total energy              =     -82.59826533 Ry
     Harris-Foulkes estimate   =     -83.25965983 Ry
     estimated scf accuracy    <       0.20616910 Ry
     electrostatic embedding   =      -0.01977602 Ry
     electrolyte free energy   =       0.00514953 Ry
     correction to one-el term =       0.57423509 Ry

     iteration #  4     ecut=    30.00 Ry     beta=0.70
     Davidson diagonalization with overlap
     ethr =  6.87E-04,  avg # of iterations =  4.0

     negative rho (up, down):  5.023E-05 0.000E+00

     add environment contribution to local potential
     polarization accuracy = 8.4E-06, # of iterations =  19

     total cpu time spent up to now is       30.3 secs

     total energy              =     -82.64262770 Ry
     Harris-Foulkes estimate   =     -83.44904805 Ry
     estimated scf accuracy    <       0.00853694 Ry
     electrostatic embedding   =      -0.01729240 Ry
     electrolyte free energy   =       0.00451186 Ry
     correction to one-el term =       0.81498291 Ry

     iteration #  5     ecut=    30.00 Ry     beta=0.70
     Davidson diagonalization with overlap
     ethr =  2.85E-05,  avg # of iterations =  4.0

     negative rho (up, down):  5.286E-05 0.000E+00

     add environment contribution to local potential
     polarization accuracy = 9.1E-06, # of iterations =  19

     total cpu time spent up to now is       37.1 secs

     total energy              =     -82.64623150 Ry
     Harris-Foulkes estimate   =     -83.60714812 Ry
     estimated scf accuracy    <       0.00114100 Ry
     electrostatic embedding   =      -0.01823565 Ry
     electrolyte free energy   =       0.00436363 Ry
     correction to one-el term =       0.97434927 Ry

     iteration #  6     ecut=    30.00 Ry     beta=0.70
     Davidson diagonalization with overlap
     ethr =  3.80E-06,  avg # of iterations =  3.0

     negative rho (up, down):  1.400E-04 0.000E+00

     total cpu time spent up to now is       39.5 secs

     End of self-consistent calculation

          k = 0.0000 0.0000 0.0000 ( 11060 PWs)   bands (ev):

   -23.2527 -19.6364 -18.8567 -15.3850 -15.2764 -12.8026 -11.6471 -11.1973
   -10.4388  -9.7798  -9.4579  -8.6840  -7.0459  -6.6426  -5.5807

     highest occupied level (ev):    -5.5807

!    total energy              =     -82.64637502 Ry
     Harris-Foulkes estimate   =     -83.65046086 Ry
     estimated scf accuracy    <       0.00009164 Ry

     The total energy is the sum of the following terms:

     one-electron contribution =    -292.46217203 Ry
     hartree contribution      =     149.42942456 Ry
     xc contribution           =     -25.97512410 Ry
     ewald contribution        =      85.35745671 Ry
     electrostatic embedding   =      -0.01814478 Ry
     electrolyte free energy   =       0.00436334 Ry
     correction to one-el term =       1.01782128 Ry

     convergence has been achieved in   6 iterations

     Forces acting on atoms (cartesian axes, Ry/au):

     atom    1 type  1   force =    -0.04654821    0.00000268    0.00000253
     atom    2 type  2   force =    -0.00611820   -0.06235575    0.00002529
     atom    3 type  2   force =     0.02095486    0.01705104   -0.00004681
     atom    4 type  2   force =     0.00627280   -0.00000275    0.00000480
     atom    5 type  2   force =     0.02096188   -0.01704060    0.00000570
     atom    6 type  2   force =    -0.00613406    0.06235645    0.00001088
     atom    7 type  3   force =     0.00205509    0.00189501    0.00000999
     atom    8 type  3   force =     0.00529293   -0.00375469   -0.00000730
     atom    9 type  3   force =    -0.00408823    0.00000264    0.00003014
     atom   10 type  3   force =     0.00530046    0.00374188   -0.00002393
     atom   11 type  3   force =     0.00205068   -0.00189590   -0.00001129

     Total force =     0.107860     Total SCF correction =     0.015658
     SCF correction compared to forces is large: reduce conv_thr to get better values

     Writing output data file pwscf.save
 
     init_run     :      2.90s CPU      3.02s WALL (       1 calls)
     electrons    :     35.06s CPU     36.45s WALL (       1 calls)
     forces       :      0.88s CPU      0.93s WALL (       1 calls)

     Called by init_run:
     wfcinit      :      0.14s CPU      0.14s WALL (       1 calls)
     potinit      :      0.93s CPU      0.96s WALL (       1 calls)

     Called by electrons:
     c_bands      :      1.38s CPU      1.41s WALL (       6 calls)
     sum_band     :      2.54s CPU      2.76s WALL (       6 calls)
     v_of_rho     :      3.84s CPU      4.00s WALL (       7 calls)
     newd         :      1.33s CPU      1.57s WALL (       7 calls)
     mix_rho      :      0.34s CPU      0.34s WALL (       6 calls)

     Called by c_bands:
     init_us_2    :      0.05s CPU      0.05s WALL (      13 calls)
     regterg      :      1.28s CPU      1.30s WALL (       6 calls)

     Called by sum_band:
     sum_band:bec :      0.00s CPU      0.00s WALL (       6 calls)
     addusdens    :      1.74s CPU      1.94s WALL (       6 calls)

     Called by *egterg:
     h_psi        :      1.22s CPU      1.22s WALL (      27 calls)
     s_psi        :      0.04s CPU      0.05s WALL (      27 calls)
     g_psi        :      0.01s CPU      0.01s WALL (      20 calls)
     rdiaghg      :      0.00s CPU      0.01s WALL (      26 calls)

     Called by h_psi:
     h_psi:pot    :      1.21s CPU      1.21s WALL (      27 calls)
     h_psi:calbec :      0.05s CPU      0.05s WALL (      27 calls)
     vloc_psi     :      1.11s CPU      1.12s WALL (      27 calls)
     add_vuspsi   :      0.05s CPU      0.04s WALL (      27 calls)

     General routines
     calbec       :      0.07s CPU      0.07s WALL (      37 calls)
     fft          :      9.43s CPU      9.95s WALL (     427 calls)
     ffts         :      0.05s CPU      0.05s WALL (      13 calls)
     fftw         :      0.88s CPU      0.88s WALL (     364 calls)
     interpolate  :      0.41s CPU      0.44s WALL (      13 calls)
     davcio       :      0.00s CPU      0.00s WALL (       1 calls)
 
     Parallel routines
     fft_scatter  :      2.62s CPU      2.87s WALL (     804 calls)
 
     Environ routines
     calc_eelect  :      0.02s CPU      0.03s WALL (      12 calls)
     calc_velect  :     18.56s CPU     19.09s WALL (      10 calls)
     dielectric   :      0.32s CPU      0.33s WALL (       7 calls)
     electrolyte  :      0.02s CPU      0.03s WALL (       7 calls)
     calc_felect  :      0.21s CPU      0.21s WALL (       1 calls)
 
     PWSCF        :    38.97s CPU        40.54s WALL

 
   This run was terminated on:  11: 8:19  15Dec2017            

=------------------------------------------------------------------------------=
   JOB DONE.
=------------------------------------------------------------------------------=

%%%% IONS %%%%%%%%%%%%%%%%%%%%%%%%%%%%%%%%%%%%%%%%%%%%%%%%%%%%%%%%%%%%%%%%%%%%%%
 number of ions             =         11
 ionic center of charge     =      0.0072664     0.0000000     0.0001166
 total ionic charge         =    -30.0000000
 ionic dipole               =      0.0000000     0.0000000     0.0000000
 ionic quadrupole (pc)      =   -131.0719095  -146.7987094    -0.0000314
 ionic quadrupole (gauss)   =   -134.8219095  -150.5487094    -3.7500314
 ion   1 type =  1 coordinates =     -2.4454071     0.0000002     0.0030272
 ion   2 type =  2 coordinates =     -1.2331440     2.2473584     0.0020749
 ion   3 type =  2 coordinates =      1.3781229     2.2851921     0.0014627
 ion   4 type =  2 coordinates =      2.6939354     0.0000002     0.0013189
 ion   5 type =  2 coordinates =      1.3781232    -2.2851919     0.0026521
 ion   6 type =  2 coordinates =     -1.2331437    -2.2473574     0.0035464
 ion   7 type =  3 coordinates =     -2.4127312     3.9381412     0.0017094
 ion   8 type =  3 coordinates =      2.3590962     4.0987221     0.0008035
 ion   9 type =  3 coordinates =      4.7585861    -0.0000002     0.0000199
 ion  10 type =  3 coordinates =      2.3590968    -4.0987217     0.0032074
 ion  11 type =  3 coordinates =     -2.4127303    -3.9381403     0.0048805

%%%% SYSTEM %%%%%%%%%%%%%%%%%%%%%%%%%%%%%%%%%%%%%%%%%%%%%%%%%%%%%%%%%%%%%%%%%%%%
 system is built from all present ionic types
 system defined dimension   =  0 
 system defined axis        =  3 
 system center              =      0.0072664     0.0000000     0.0001166 
 system width               =      0.2348011 

%%%% ELECTRONS %%%%%%%%%%%%%%%%%%%%%%%%%%%%%%%%%%%%%%%%%%%%%%%%%%%%%%%%%%%%%%%%%
 number of electrons        =         30
 total electronic charge    =     30.0000000
 number of spin components  =  1

%%%% BOUNDARY %%%%%%%%%%%%%%%%%%%%%%%%%%%%%%%%%%%%%%%%%%%%%%%%%%%%%%%%%%%%%%%%%%
 boundary mode              = electronic           
 boundary is built as a function of a smooth density
 function type              =  2 
 using the modified SCCS function with parameters 
 rhomax                     =      0.0050000 
 rhomin                     =      0.0001000 
 volume of the QM region    =   1074.1872471 
 surface of the QM region   =    527.4241024 

%%%% DIELECTRIC %%%%%%%%%%%%%%%%%%%%%%%%%%%%%%%%%%%%%%%%%%%%%%%%%%%%%%%%%%%%%%%%%
 dielectric build on homogeneous background
 environment bulk permitt.  =     20.0000000 
 dielectric flags
 need gradient              =  F 
 need factor depend. sqrt   =  T 
 total dielectric charge    =      0.0000000

%%%% BOUNDARY %%%%%%%%%%%%%%%%%%%%%%%%%%%%%%%%%%%%%%%%%%%%%%%%%%%%%%%%%%%%%%%%%%
 boundary mode              = electronic           
 boundary is built as a function of a smooth density
 function type              =  2 
 using the modified SCCS function with parameters 
 rhomax                     =      0.0007071 
 rhomin                     =      0.0000141 
 volume of the QM region    =   3961.6572593 
 surface of the QM region   =   1007.0653042 

%%%% ELECTROLYTE %%%%%%%%%%%%%%%%%%%%%%%%%%%%%%%%%%%%%%%%%%%%%%%%%%%%%%%%%%%%%%%%
 number electrol. species   =    2
 solvent temperature        =   300.0
 Debye length / sqrt(eps)   =      0.2301070
 modified Poisson-Boltzmann 
 maximum concentration      =      0.0190986
 electrolyte species    1
 bulk concentration  (a.u.) =      0.7139E-03
 bulk concentration (mol/L) =      8.0000000
 ionic charge               =    1.00
 electrolyte species    2
 bulk concentration  (a.u.) =      0.7139E-03
 bulk concentration (mol/L) =      8.0000000
 ionic charge               =   -1.00
 electrolyte flags
 linearized                 =  T
 total electrolyte charge   =      0.0000000

%%%% COMPUTE ELECTROSTATIC POTENTIAL %%%%%%%%%%%%%%%%%%%%%%%%%%%%%%%%%%%%%%%%%%%
 Iteration #          1
  pAp =    124.330193798894       rzold =    120.820643240974       alpha = 
  0.971772339037802     
 delta_qm =   0.182908E-01 delta_en =   0.578111E+03 tol =   0.100000E-04
 Iteration #          2
  pAp =    8159.32129138291       rzold =    155.062821669967       alpha = 
  1.900437746381305E-002
 delta_qm =   0.494674E-02 delta_en =   0.422845E+02 tol =   0.100000E-04
 Iteration #          3
  pAp =    24.3133123734617       rzold =    2.59013118365870       alpha = 
  0.106531399090067     
 delta_qm =   0.212588E-02 delta_en =   0.780944E+01 tol =   0.100000E-04
 Iteration #          4
  pAp =    2.60542125880109       rzold =   0.273649392756442       alpha = 
  0.105030766841276     
 delta_qm =   0.130234E-02 delta_en =   0.293083E+01 tol =   0.100000E-04
 Iteration #          5
  pAp =    2.27668276095625       rzold =   0.163184579953749       alpha = 
  7.167646839176163E-002
 delta_qm =   0.675132E-03 delta_en =   0.787627E+00 tol =   0.100000E-04
 Iteration #          6
  pAp =   0.119329037629312       rzold =   2.066930325200012E-002  alpha = 
  0.173212687059524     
 delta_qm =   0.431290E-03 delta_en =   0.321427E+00 tol =   0.100000E-04
 Iteration #          7
  pAp =   0.220631510575964       rzold =   1.440878540620145E-002  alpha = 
  6.530701516110266E-002
 delta_qm =   0.241137E-03 delta_en =   0.100478E+00 tol =   0.100000E-04
 Iteration #          8
  pAp =   3.041545159387947E-002  rzold =   2.651780723692646E-003  alpha = 
  8.718531485576453E-002
 delta_qm =   0.170294E-03 delta_en =   0.501120E-01 tol =   0.100000E-04
 Iteration #          9
  pAp =   2.579979709336821E-003  rzold =   5.825982135175228E-004  alpha = 
  0.225815036997821     
 delta_qm =   0.949292E-04 delta_en =   0.155720E-01 tol =   0.100000E-04
 Iteration #         10
  pAp =   1.134926852966054E-003  rzold =   1.485814846356124E-004  alpha = 
  0.130917234222897     
 delta_qm =   0.747756E-04 delta_en =   0.966193E-02 tol =   0.100000E-04
 Iteration #         11
  pAp =   1.595847898833440E-003  rzold =   1.754422245319803E-004  alpha = 
  0.109936682976008     
 delta_qm =   0.464009E-04 delta_en =   0.372047E-02 tol =   0.100000E-04
 Iteration #         12
  pAp =   1.703049884083061E-004  rzold =   3.736344115972042E-005  alpha = 
  0.219391349066896     
 delta_qm =   0.232237E-04 delta_en =   0.931983E-03 tol =   0.100000E-04
 Iteration #         13
  pAp =   4.878109942205156E-005  rzold =   9.212585018595727E-006  alpha = 
  0.188855624980670     
 delta_qm =   0.159506E-04 delta_en =   0.439639E-03 tol =   0.100000E-04
 Iteration #         14
  pAp =   4.355754985620790E-005  rzold =   7.072880233795250E-006  alpha = 
  0.162380121405915     
 delta_qm =   0.614281E-05 delta_en =   0.652046E-04 tol =   0.100000E-04
 Iteration #         15
  pAp =   1.677824021701967E-006  rzold =   4.545608527274367E-007  alpha = 
  0.270922842233678     
 delta_qm =   0.394696E-05 delta_en =   0.269196E-04 tol =   0.100000E-04
 Iteration #         16
  pAp =   4.803552928544422E-006  rzold =   2.666730870450511E-007  alpha = 
  5.551580070251431E-002
 delta_qm =   0.341994E-05 delta_en =   0.202107E-04 tol =   0.100000E-04
 Iteration #         17
  pAp =   4.176241770584141E-006  rzold =   4.421412075791410E-007  alpha = 
  0.105870596547694     
 delta_qm =   0.209010E-05 delta_en =   0.754883E-05 tol =   0.100000E-04
 Charges are converged, exit!

%%%% ELECTRONS %%%%%%%%%%%%%%%%%%%%%%%%%%%%%%%%%%%%%%%%%%%%%%%%%%%%%%%%%%%%%%%%%
 number of electrons        =         30
 total electronic charge    =     30.0000000
 number of spin components  =  1

%%%% BOUNDARY %%%%%%%%%%%%%%%%%%%%%%%%%%%%%%%%%%%%%%%%%%%%%%%%%%%%%%%%%%%%%%%%%%
 boundary mode              = electronic           
 boundary is built as a function of a smooth density
 function type              =  2 
 using the modified SCCS function with parameters 
 rhomax                     =      0.0050000 
 rhomin                     =      0.0001000 
 volume of the QM region    =   1022.9292217 
 surface of the QM region   =    515.5619811 

%%%% DIELECTRIC %%%%%%%%%%%%%%%%%%%%%%%%%%%%%%%%%%%%%%%%%%%%%%%%%%%%%%%%%%%%%%%%%
 dielectric build on homogeneous background
 environment bulk permitt.  =     20.0000000 
 dielectric flags
 need gradient              =  F 
 need factor depend. sqrt   =  T 
 total dielectric charge    =      0.0026030

%%%% BOUNDARY %%%%%%%%%%%%%%%%%%%%%%%%%%%%%%%%%%%%%%%%%%%%%%%%%%%%%%%%%%%%%%%%%%
 boundary mode              = electronic           
 boundary is built as a function of a smooth density
 function type              =  2 
 using the modified SCCS function with parameters 
 rhomax                     =      0.0007071 
 rhomin                     =      0.0000141 
 volume of the QM region    =   2679.5165802 
 surface of the QM region   =    882.9115675 

%%%% ELECTROLYTE %%%%%%%%%%%%%%%%%%%%%%%%%%%%%%%%%%%%%%%%%%%%%%%%%%%%%%%%%%%%%%%%
 number electrol. species   =    2
 solvent temperature        =   300.0
 Debye length / sqrt(eps)   =      0.2301070
 modified Poisson-Boltzmann 
 maximum concentration      =      0.0190986
 electrolyte species    1
 bulk concentration  (a.u.) =      0.7139E-03
 bulk concentration (mol/L) =      8.0000000
 ionic charge               =    1.00
 electrolyte species    2
 bulk concentration  (a.u.) =      0.7139E-03
 bulk concentration (mol/L) =      8.0000000
 ionic charge               =   -1.00
 electrolyte flags
 linearized                 =  T
 total electrolyte charge   =     -0.0029086

%%%% COMPUTE ELECTROSTATIC POTENTIAL %%%%%%%%%%%%%%%%%%%%%%%%%%%%%%%%%%%%%%%%%%%
 Warning: bad guess with residual norm =   0.550667E+03, reset to no guess
 Iteration #          1
  pAp =    124.942235808548       rzold =    122.298513146960       alpha = 
  0.978840440588571     
 delta_qm =   0.175491E-01 delta_en =   0.532174E+03 tol =   0.100000E-04
 Iteration #          2
  pAp =    10490.4445765252       rzold =    152.071153172045       alpha = 
  1.449615905815272E-002
 delta_qm =   0.502493E-02 delta_en =   0.436318E+02 tol =   0.100000E-04
 Iteration #          3
  pAp =    64.7535272269875       rzold =    3.38061055869324       alpha = 
  5.220735770644305E-002
 delta_qm =   0.316696E-02 delta_en =   0.173312E+02 tol =   0.100000E-04
 Iteration #          4
  pAp =    12.7380388097495       rzold =    1.00696818513418       alpha = 
  7.905205818367125E-002
 delta_qm =   0.178002E-02 delta_en =   0.547511E+01 tol =   0.100000E-04
 Iteration #          5
  pAp =    1.90121991787654       rzold =   0.209545667586495       alpha = 
  0.110216427682146     
 delta_qm =   0.836788E-03 delta_en =   0.120997E+01 tol =   0.100000E-04
 Iteration #          6
  pAp =   0.287144771748582       rzold =   3.432866273283511E-002  alpha = 
  0.119551759636051     
 delta_qm =   0.491439E-03 delta_en =   0.417332E+00 tol =   0.100000E-04
 Iteration #          7
  pAp =   9.551796221577484E-002  rzold =   1.064640562391865E-002  alpha = 
  0.111459723144726     
 delta_qm =   0.269721E-03 delta_en =   0.125711E+00 tol =   0.100000E-04
 Iteration #          8
  pAp =   7.265516432361291E-002  rzold =   3.725345496282083E-003  alpha = 
  5.127433859607069E-002
 delta_qm =   0.210489E-03 delta_en =   0.765602E-01 tol =   0.100000E-04
 Iteration #          9
  pAp =   7.490429220269742E-003  rzold =   1.151886718392420E-003  alpha = 
  0.153781136503542     
 delta_qm =   0.123422E-03 delta_en =   0.263228E-01 tol =   0.100000E-04
 Iteration #         10
  pAp =   2.956920680844950E-003  rzold =   2.928383410368498E-004  alpha = 
  9.903489901973637E-002
 delta_qm =   0.993898E-04 delta_en =   0.170698E-01 tol =   0.100000E-04
 Iteration #         11
  pAp =   2.748770324030734E-003  rzold =   2.511223709068667E-004  alpha = 
  9.135807699590796E-002
 delta_qm =   0.737470E-04 delta_en =   0.939793E-02 tol =   0.100000E-04
 Iteration #         12
  pAp =   1.228785688199116E-003  rzold =   1.366620404747204E-004  alpha = 
  0.111217148594080     
 delta_qm =   0.509297E-04 delta_en =   0.448214E-02 tol =   0.100000E-04
 Iteration #         13
  pAp =   2.640903819913579E-004  rzold =   4.877512517090916E-005  alpha = 
  0.184691031922947     
 delta_qm =   0.251905E-04 delta_en =   0.109652E-02 tol =   0.100000E-04
 Iteration #         14
  pAp =   2.963471944827949E-005  rzold =   8.349618478542373E-006  alpha = 
  0.281751224036883     
 delta_qm =   0.121925E-04 delta_en =   0.256879E-03 tol =   0.100000E-04
 Iteration #         15
  pAp =   1.084619875599821E-005  rzold =   2.264818098917312E-006  alpha = 
  0.208812151599639     
 delta_qm =   0.689901E-05 delta_en =   0.822465E-04 tol =   0.100000E-04
 Iteration #         16
  pAp =   1.306714400410084E-005  rzold =   6.226631641198451E-007  alpha = 
  4.765105243536276E-002
 delta_qm =   0.602667E-05 delta_en =   0.627622E-04 tol =   0.100000E-04
 Iteration #         17
  pAp =   1.551089514283673E-005  rzold =   1.248527103307534E-006  alpha = 
  8.049355577547893E-002
 delta_qm =   0.368156E-05 delta_en =   0.234211E-04 tol =   0.100000E-04
 Iteration #         18
  pAp =   5.132212456073242E-007  rzold =   1.297950591393578E-007  alpha = 
  0.252902739803306     
 delta_qm =   0.254911E-05 delta_en =   0.112285E-04 tol =   0.100000E-04
 Iteration #         19
  pAp =   1.150464750386140E-007  rzold =   4.409079956271842E-008  alpha = 
  0.383243376626010     
 delta_qm =   0.140332E-05 delta_en =   0.340298E-05 tol =   0.100000E-04
 Charges are converged, exit!

%%%% ELECTRONS %%%%%%%%%%%%%%%%%%%%%%%%%%%%%%%%%%%%%%%%%%%%%%%%%%%%%%%%%%%%%%%%%
 number of electrons        =         30
 total electronic charge    =     30.0000000
 number of spin components  =  1

%%%% BOUNDARY %%%%%%%%%%%%%%%%%%%%%%%%%%%%%%%%%%%%%%%%%%%%%%%%%%%%%%%%%%%%%%%%%%
 boundary mode              = electronic           
 boundary is built as a function of a smooth density
 function type              =  2 
 using the modified SCCS function with parameters 
 rhomax                     =      0.0050000 
 rhomin                     =      0.0001000 
 volume of the QM region    =    990.2444314 
 surface of the QM region   =    507.9531292 

%%%% DIELECTRIC %%%%%%%%%%%%%%%%%%%%%%%%%%%%%%%%%%%%%%%%%%%%%%%%%%%%%%%%%%%%%%%%%
 dielectric build on homogeneous background
 environment bulk permitt.  =     20.0000000 
 dielectric flags
 need gradient              =  F 
 need factor depend. sqrt   =  T 
 total dielectric charge    =      0.0000484

%%%% BOUNDARY %%%%%%%%%%%%%%%%%%%%%%%%%%%%%%%%%%%%%%%%%%%%%%%%%%%%%%%%%%%%%%%%%%
 boundary mode              = electronic           
 boundary is built as a function of a smooth density
 function type              =  2 
 using the modified SCCS function with parameters 
 rhomax                     =      0.0007071 
 rhomin                     =      0.0000141 
 volume of the QM region    =   1868.0423557 
 surface of the QM region   =    761.3772304 

%%%% ELECTROLYTE %%%%%%%%%%%%%%%%%%%%%%%%%%%%%%%%%%%%%%%%%%%%%%%%%%%%%%%%%%%%%%%%
 number electrol. species   =    2
 solvent temperature        =   300.0
 Debye length / sqrt(eps)   =      0.2301070
 modified Poisson-Boltzmann 
 maximum concentration      =      0.0190986
 electrolyte species    1
 bulk concentration  (a.u.) =      0.7139E-03
 bulk concentration (mol/L) =      8.0000000
 ionic charge               =    1.00
 electrolyte species    2
 bulk concentration  (a.u.) =      0.7139E-03
 bulk concentration (mol/L) =      8.0000000
 ionic charge               =   -1.00
 electrolyte flags
 linearized                 =  T
 total electrolyte charge   =     -0.0001033

%%%% COMPUTE ELECTROSTATIC POTENTIAL %%%%%%%%%%%%%%%%%%%%%%%%%%%%%%%%%%%%%%%%%%%
 Warning: bad guess with residual norm =   0.477742E+03, reset to no guess
 Iteration #          1
  pAp =    124.733640634073       rzold =    122.819467739960       alpha = 
  0.984653916262026     
 delta_qm =   0.164148E-01 delta_en =   0.465603E+03 tol =   0.100000E-04
 Iteration #          2
  pAp =    10898.7080194463       rzold =    133.711553776332       alpha = 
  1.226856922286140E-002
 delta_qm =   0.441357E-02 delta_en =   0.336608E+02 tol =   0.100000E-04
 Iteration #          3
  pAp =    47.2050282968364       rzold =    2.31538071129056       alpha = 
  4.904945076467059E-002
 delta_qm =   0.261996E-02 delta_en =   0.118614E+02 tol =   0.100000E-04
 Iteration #          4
  pAp =    9.74377093603079       rzold =   0.657487801024684       alpha = 
  6.747775633696468E-002
 delta_qm =   0.167253E-02 delta_en =   0.483383E+01 tol =   0.100000E-04
 Iteration #          5
  pAp =    1.76023465621459       rzold =   0.181548134656138       alpha = 
  0.103138598035878     
 delta_qm =   0.864930E-03 delta_en =   0.129272E+01 tol =   0.100000E-04
 Iteration #          6
  pAp =   0.325195394595139       rzold =   3.690350156494061E-002  alpha = 
  0.113481009197208     
 delta_qm =   0.478455E-03 delta_en =   0.395573E+00 tol =   0.100000E-04
 Iteration #          7
  pAp =   7.887572480492432E-002  rzold =   9.112390102815972E-003  alpha = 
  0.115528448395913     
 delta_qm =   0.268149E-03 delta_en =   0.124250E+00 tol =   0.100000E-04
 Iteration #          8
  pAp =   4.680754550121181E-002  rzold =   2.672918521857432E-003  alpha = 
  5.710443675770677E-002
 delta_qm =   0.216885E-03 delta_en =   0.812838E-01 tol =   0.100000E-04
 Iteration #          9
  pAp =   1.404637529737022E-002  rzold =   1.514421822118017E-003  alpha = 
  0.107815845017437     
 delta_qm =   0.128385E-03 delta_en =   0.284822E-01 tol =   0.100000E-04
 Iteration #         10
  pAp =   2.579659429476418E-003  rzold =   2.908006637812441E-004  alpha = 
  0.112728316171669     
 delta_qm =   0.971286E-04 delta_en =   0.163019E-01 tol =   0.100000E-04
 Iteration #         11
  pAp =   1.130822137567203E-003  rzold =   1.784560007783610E-004  alpha = 
  0.157810848275647     
 delta_qm =   0.634799E-04 delta_en =   0.696332E-02 tol =   0.100000E-04
 Iteration #         12
  pAp =   2.073412361411453E-003  rzold =   1.139055006260857E-004  alpha = 
  5.493625037932432E-002
 delta_qm =   0.514607E-04 delta_en =   0.457610E-02 tol =   0.100000E-04
 Iteration #         13
  pAp =   3.854517927035440E-004  rzold =   5.162877268522422E-005  alpha = 
  0.133943527212838     
 delta_qm =   0.308501E-04 delta_en =   0.164459E-02 tol =   0.100000E-04
 Iteration #         14
  pAp =   3.773663230257700E-005  rzold =   1.105132979465653E-005  alpha = 
  0.292854161072074     
 delta_qm =   0.134797E-04 delta_en =   0.313980E-03 tol =   0.100000E-04
 Iteration #         15
  pAp =   6.212111811411878E-005  rzold =   3.467549106028206E-006  alpha = 
  5.581916764051462E-002
 delta_qm =   0.122730E-04 delta_en =   0.260284E-03 tol =   0.100000E-04
 Iteration #         16
  pAp =   2.270647834126971E-004  rzold =   8.854988581119760E-006  alpha = 
  3.899763075556084E-002
 delta_qm =   0.799736E-05 delta_en =   0.110519E-03 tol =   0.100000E-04
 Iteration #         17
  pAp =   2.622446929472185E-006  rzold =   6.472416766400689E-007  alpha = 
  0.246808303102758     
 delta_qm =   0.420945E-05 delta_en =   0.306193E-04 tol =   0.100000E-04
 Iteration #         18
  pAp =   2.345640780459015E-007  rzold =   9.831067803112040E-008  alpha = 
  0.419120774374848     
 delta_qm =   0.251161E-05 delta_en =   0.109006E-04 tol =   0.100000E-04
 Iteration #         19
  pAp =   1.091741612643066E-007  rzold =   3.487338327474564E-008  alpha = 
  0.319428909468042     
 delta_qm =   0.152191E-05 delta_en =   0.400240E-05 tol =   0.100000E-04
 Charges are converged, exit!

%%%% ELECTRONS %%%%%%%%%%%%%%%%%%%%%%%%%%%%%%%%%%%%%%%%%%%%%%%%%%%%%%%%%%%%%%%%%
 number of electrons        =         30
 total electronic charge    =     30.0000000
 number of spin components  =  1

%%%% BOUNDARY %%%%%%%%%%%%%%%%%%%%%%%%%%%%%%%%%%%%%%%%%%%%%%%%%%%%%%%%%%%%%%%%%%
 boundary mode              = electronic           
 boundary is built as a function of a smooth density
 function type              =  2 
 using the modified SCCS function with parameters 
 rhomax                     =      0.0050000 
 rhomin                     =      0.0001000 
 volume of the QM region    =    970.5507606 
 surface of the QM region   =    503.1542826 

%%%% DIELECTRIC %%%%%%%%%%%%%%%%%%%%%%%%%%%%%%%%%%%%%%%%%%%%%%%%%%%%%%%%%%%%%%%%%
 dielectric build on homogeneous background
 environment bulk permitt.  =     20.0000000 
 dielectric flags
 need gradient              =  F 
 need factor depend. sqrt   =  T 
 total dielectric charge    =     -0.0002942

%%%% BOUNDARY %%%%%%%%%%%%%%%%%%%%%%%%%%%%%%%%%%%%%%%%%%%%%%%%%%%%%%%%%%%%%%%%%%
 boundary mode              = electronic           
 boundary is built as a function of a smooth density
 function type              =  2 
 using the modified SCCS function with parameters 
 rhomax                     =      0.0007071 
 rhomin                     =      0.0000141 
 volume of the QM region    =   1628.6837141 
 surface of the QM region   =    693.2740402 

%%%% ELECTROLYTE %%%%%%%%%%%%%%%%%%%%%%%%%%%%%%%%%%%%%%%%%%%%%%%%%%%%%%%%%%%%%%%%
 number electrol. species   =    2
 solvent temperature        =   300.0
 Debye length / sqrt(eps)   =      0.2301070
 modified Poisson-Boltzmann 
 maximum concentration      =      0.0190986
 electrolyte species    1
 bulk concentration  (a.u.) =      0.7139E-03
 bulk concentration (mol/L) =      8.0000000
 ionic charge               =    1.00
 electrolyte species    2
 bulk concentration  (a.u.) =      0.7139E-03
 bulk concentration (mol/L) =      8.0000000
 ionic charge               =   -1.00
 electrolyte flags
 linearized                 =  T
 total electrolyte charge   =      0.0002903

%%%% COMPUTE ELECTROSTATIC POTENTIAL %%%%%%%%%%%%%%%%%%%%%%%%%%%%%%%%%%%%%%%%%%%
 Warning: bad guess with residual norm =   0.406465E+03, reset to no guess
 Iteration #          1
  pAp =    124.143692062898       rzold =    122.592266572004       alpha = 
  0.987502985732787     
 delta_qm =   0.151759E-01 delta_en =   0.397970E+03 tol =   0.100000E-04
 Iteration #          2
  pAp =    9264.67935226435       rzold =    109.186862384415       alpha = 
  1.178528238624140E-002
 delta_qm =   0.471038E-02 delta_en =   0.383404E+02 tol =   0.100000E-04
 Iteration #          3
  pAp =    61.4903470194815       rzold =    2.67622334135411       alpha = 
  4.352265796298441E-002
 delta_qm =   0.270322E-02 delta_en =   0.126272E+02 tol =   0.100000E-04
 Iteration #          4
  pAp =    9.11539284220954       rzold =   0.642816074455646       alpha = 
  7.051984325667626E-002
 delta_qm =   0.174711E-02 delta_en =   0.527451E+01 tol =   0.100000E-04
 Iteration #          5
  pAp =    1.94026509239967       rzold =   0.198997555253548       alpha = 
  0.102562044760303     
 delta_qm =   0.917533E-03 delta_en =   0.145475E+01 tol =   0.100000E-04
 Iteration #          6
  pAp =   0.332818955291785       rzold =   3.883763619252206E-002  alpha = 
  0.116692981499424     
 delta_qm =   0.486598E-03 delta_en =   0.409152E+00 tol =   0.100000E-04
 Iteration #          7
  pAp =   7.875065924775224E-002  rzold =   8.847879473926103E-003  alpha = 
  0.112353084513113     
 delta_qm =   0.284214E-03 delta_en =   0.139584E+00 tol =   0.100000E-04
 Iteration #          8
  pAp =   4.439438007038410E-002  rzold =   2.702674025216827E-003  alpha = 
  6.087874233026638E-002
 delta_qm =   0.227068E-03 delta_en =   0.890952E-01 tol =   0.100000E-04
 Iteration #          9
  pAp =   1.888892086190058E-002  rzold =   1.757924067303210E-003  alpha = 
  9.306641073651732E-002
 delta_qm =   0.136131E-03 delta_en =   0.320227E-01 tol =   0.100000E-04
 Iteration #         10
  pAp =   2.081937632101888E-003  rzold =   2.795875528419457E-004  alpha = 
  0.134291992483790     
 delta_qm =   0.100025E-03 delta_en =   0.172886E-01 tol =   0.100000E-04
 Iteration #         11
  pAp =   1.589501592557344E-003  rzold =   2.209071381714188E-004  alpha = 
  0.138978871871403     
 delta_qm =   0.623329E-04 delta_en =   0.671396E-02 tol =   0.100000E-04
 Iteration #         12
  pAp =   3.530923889194033E-004  rzold =   5.198551545747019E-005  alpha = 
  0.147229215607183     
 delta_qm =   0.432806E-04 delta_en =   0.323691E-02 tol =   0.100000E-04
 Iteration #         13
  pAp =   1.185748989418306E-003  rzold =   6.126989209545222E-005  alpha = 
  5.167189062965970E-002
 delta_qm =   0.332341E-04 delta_en =   0.190858E-02 tol =   0.100000E-04
 Iteration #         14
  pAp =   7.043282546886303E-005  rzold =   1.599744244949997E-005  alpha = 
  0.227130494098552     
 delta_qm =   0.159333E-04 delta_en =   0.438686E-03 tol =   0.100000E-04
 Iteration #         15
  pAp =   5.211642554603306E-004  rzold =   8.918004744101728E-006  alpha = 
  1.711169684157385E-002
 delta_qm =   0.142697E-04 delta_en =   0.351861E-03 tol =   0.100000E-04
 Iteration #         16
  pAp =   2.977997411728619E-005  rzold =   3.962664525434499E-006  alpha = 
  0.133064740413401     
 delta_qm =   0.896047E-05 delta_en =   0.138741E-03 tol =   0.100000E-04
 Iteration #         17
  pAp =   3.649707558056886E-006  rzold =   8.116260406442641E-007  alpha = 
  0.222381116221919     
 delta_qm =   0.492219E-05 delta_en =   0.418660E-04 tol =   0.100000E-04
 Iteration #         18
  pAp =   3.976939274511581E-007  rzold =   1.367328589610561E-007  alpha = 
  0.343814299195827     
 delta_qm =   0.310409E-05 delta_en =   0.166499E-04 tol =   0.100000E-04
 Iteration #         19
  pAp =   2.767029509391865E-007  rzold =   6.019263712157773E-008  alpha = 
  0.217535219329146     
 delta_qm =   0.220840E-05 delta_en =   0.842753E-05 tol =   0.100000E-04
 Charges are converged, exit!

%%%% ELECTRONS %%%%%%%%%%%%%%%%%%%%%%%%%%%%%%%%%%%%%%%%%%%%%%%%%%%%%%%%%%%%%%%%%
 number of electrons        =         30
 total electronic charge    =     30.0000000
 number of spin components  =  1

%%%% BOUNDARY %%%%%%%%%%%%%%%%%%%%%%%%%%%%%%%%%%%%%%%%%%%%%%%%%%%%%%%%%%%%%%%%%%
 boundary mode              = electronic           
 boundary is built as a function of a smooth density
 function type              =  2 
 using the modified SCCS function with parameters 
 rhomax                     =      0.0050000 
 rhomin                     =      0.0001000 
 volume of the QM region    =    968.2271801 
 surface of the QM region   =    502.9521723 

%%%% DIELECTRIC %%%%%%%%%%%%%%%%%%%%%%%%%%%%%%%%%%%%%%%%%%%%%%%%%%%%%%%%%%%%%%%%%
 dielectric build on homogeneous background
 environment bulk permitt.  =     20.0000000 
 dielectric flags
 need gradient              =  F 
 need factor depend. sqrt   =  T 
 total dielectric charge    =     -0.0005648

%%%% BOUNDARY %%%%%%%%%%%%%%%%%%%%%%%%%%%%%%%%%%%%%%%%%%%%%%%%%%%%%%%%%%%%%%%%%%
 boundary mode              = electronic           
 boundary is built as a function of a smooth density
 function type              =  2 
 using the modified SCCS function with parameters 
 rhomax                     =      0.0007071 
 rhomin                     =      0.0000141 
 volume of the QM region    =   1580.7092941 
 surface of the QM region   =    681.5394031 

%%%% ELECTROLYTE %%%%%%%%%%%%%%%%%%%%%%%%%%%%%%%%%%%%%%%%%%%%%%%%%%%%%%%%%%%%%%%%
 number electrol. species   =    2
 solvent temperature        =   300.0
 Debye length / sqrt(eps)   =      0.2301070
 modified Poisson-Boltzmann 
 maximum concentration      =      0.0190986
 electrolyte species    1
 bulk concentration  (a.u.) =      0.7139E-03
 bulk concentration (mol/L) =      8.0000000
 ionic charge               =    1.00
 electrolyte species    2
 bulk concentration  (a.u.) =      0.7139E-03
 bulk concentration (mol/L) =      8.0000000
 ionic charge               =   -1.00
 electrolyte flags
 linearized                 =  T
 total electrolyte charge   =      0.0004831

%%%% COMPUTE ELECTROSTATIC POTENTIAL %%%%%%%%%%%%%%%%%%%%%%%%%%%%%%%%%%%%%%%%%%%
 Warning: bad guess with residual norm =   0.379370E+03, reset to no guess
 Iteration #          1
  pAp =    124.149190994551       rzold =    122.715648008989       alpha = 
  0.988453062206219     
 delta_qm =   0.146729E-01 delta_en =   0.372027E+03 tol =   0.100000E-04
 Iteration #          2
  pAp =    8579.30564634211       rzold =    100.422477773374       alpha = 
  1.170519875535507E-002
 delta_qm =   0.475073E-02 delta_en =   0.390000E+02 tol =   0.100000E-04
 Iteration #          3
  pAp =    65.5776281486494       rzold =    2.75550181458774       alpha = 
  4.201893072957211E-002
 delta_qm =   0.270528E-02 delta_en =   0.126465E+02 tol =   0.100000E-04
 Iteration #          4
  pAp =    8.73554090219923       rzold =   0.628211431351040       alpha = 
  7.191442846920715E-002
 delta_qm =   0.173471E-02 delta_en =   0.519992E+01 tol =   0.100000E-04
 Iteration #          5
  pAp =    1.92669058185401       rzold =   0.196527638595844       alpha = 
  0.102002698537473     
 delta_qm =   0.914996E-03 delta_en =   0.144671E+01 tol =   0.100000E-04
 Iteration #          6
  pAp =   0.317760332562502       rzold =   3.759310009815822E-002  alpha = 
  0.118306460076365     
 delta_qm =   0.482784E-03 delta_en =   0.402763E+00 tol =   0.100000E-04
 Iteration #          7
  pAp =   7.706567947199744E-002  rzold =   8.572877019660774E-003  alpha = 
  0.111241178672483     
 delta_qm =   0.285814E-03 delta_en =   0.141160E+00 tol =   0.100000E-04
 Iteration #          8
  pAp =   4.399780698213954E-002  rzold =   2.690555400648922E-003  alpha = 
  6.115203427618848E-002
 delta_qm =   0.227667E-03 delta_en =   0.895659E-01 tol =   0.100000E-04
 Iteration #          9
  pAp =   1.934155842363606E-002  rzold =   1.765363378246310E-003  alpha = 
  9.127306805272603E-002
 delta_qm =   0.137068E-03 delta_en =   0.324650E-01 tol =   0.100000E-04
 Iteration #         10
  pAp =   1.979977916808540E-003  rzold =   2.747009458165937E-004  alpha = 
  0.138739398800657     
 delta_qm =   0.997719E-04 delta_en =   0.172013E-01 tol =   0.100000E-04
 Iteration #         11
  pAp =   1.684331114094597E-003  rzold =   2.253397010623308E-004  alpha = 
  0.133785868572202     
 delta_qm =   0.620235E-04 delta_en =   0.664748E-02 tol =   0.100000E-04
 Iteration #         12
  pAp =   2.481486790823768E-004  rzold =   4.731073121026146E-005  alpha = 
  0.190654777551953     
 delta_qm =   0.383964E-04 delta_en =   0.254757E-02 tol =   0.100000E-04
 Iteration #         13
  pAp =   4.114967920292250E-004  rzold =   2.773960891400413E-005  alpha = 
  6.741148278996553E-002
 delta_qm =   0.316446E-04 delta_en =   0.173039E-02 tol =   0.100000E-04
 Iteration #         14
  pAp =   1.863372920220697E-004  rzold =   2.473033485345266E-005  alpha = 
  0.132718118767786     
 delta_qm =   0.155849E-04 delta_en =   0.419712E-03 tol =   0.100000E-04
 Iteration #         15
  pAp =   7.346106465210816E-005  rzold =   3.714256387225083E-006  alpha = 
  5.056088425637174E-002
 delta_qm =   0.133432E-04 delta_en =   0.307653E-03 tol =   0.100000E-04
 Iteration #         16
  pAp =   2.148407374519225E-004  rzold =   9.768180849021805E-006  alpha = 
  4.546707931128634E-002
 delta_qm =   0.908211E-05 delta_en =   0.142533E-03 tol =   0.100000E-04
 Iteration #         17
  pAp =   3.856302826319242E-006  rzold =   8.285235390701735E-007  alpha = 
  0.214849190114300     
 delta_qm =   0.505374E-05 delta_en =   0.441336E-04 tol =   0.100000E-04
 Iteration #         18
  pAp =   4.313992390595572E-007  rzold =   1.429094518438557E-007  alpha = 
  0.331269596477258     
 delta_qm =   0.321666E-05 delta_en =   0.178794E-04 tol =   0.100000E-04
 Iteration #         19
  pAp =   2.881783422472450E-007  rzold =   6.214157779927322E-008  alpha = 
  0.215635836179383     
 delta_qm =   0.230097E-05 delta_en =   0.914883E-05 tol =   0.100000E-04
 Charges are converged, exit!

%%%% ELECTRONS %%%%%%%%%%%%%%%%%%%%%%%%%%%%%%%%%%%%%%%%%%%%%%%%%%%%%%%%%%%%%%%%%
 number of electrons        =         30
 total electronic charge    =     30.0000000
 number of spin components  =  1

%%%% BOUNDARY %%%%%%%%%%%%%%%%%%%%%%%%%%%%%%%%%%%%%%%%%%%%%%%%%%%%%%%%%%%%%%%%%%
 boundary mode              = electronic           
 boundary is built as a function of a smooth density
 function type              =  2 
 using the modified SCCS function with parameters 
 rhomax                     =      0.0050000 
 rhomin                     =      0.0001000 
 volume of the QM region    =    968.2271801 
 surface of the QM region   =    502.9521723 

%%%% DIELECTRIC %%%%%%%%%%%%%%%%%%%%%%%%%%%%%%%%%%%%%%%%%%%%%%%%%%%%%%%%%%%%%%%%%
 dielectric build on homogeneous background
 environment bulk permitt.  =     20.0000000 
 dielectric flags
 need gradient              =  F 
 need factor depend. sqrt   =  T 
 total dielectric charge    =     -0.0006272

%%%% BOUNDARY %%%%%%%%%%%%%%%%%%%%%%%%%%%%%%%%%%%%%%%%%%%%%%%%%%%%%%%%%%%%%%%%%%
 boundary mode              = electronic           
 boundary is built as a function of a smooth density
 function type              =  2 
 using the modified SCCS function with parameters 
 rhomax                     =      0.0007071 
 rhomin                     =      0.0000141 
 volume of the QM region    =   1580.7092941 
 surface of the QM region   =    681.5394031 

%%%% ELECTROLYTE %%%%%%%%%%%%%%%%%%%%%%%%%%%%%%%%%%%%%%%%%%%%%%%%%%%%%%%%%%%%%%%%
 number electrol. species   =    2
 solvent temperature        =   300.0
 Debye length / sqrt(eps)   =      0.2301070
 modified Poisson-Boltzmann 
 maximum concentration      =      0.0190986
 electrolyte species    1
 bulk concentration  (a.u.) =      0.7139E-03
 bulk concentration (mol/L) =      8.0000000
 ionic charge               =    1.00
 electrolyte species    2
 bulk concentration  (a.u.) =      0.7139E-03
 bulk concentration (mol/L) =      8.0000000
 ionic charge               =   -1.00
 electrolyte flags
 linearized                 =  T
 total electrolyte charge   =      0.0005394
