
     Program PWSCF v.6.1 (svn rev. 13369) starts on 21Dec2017 at 15:10:14 

     This program is part of the open-source Quantum ESPRESSO suite
     for quantum simulation of materials; please cite
         "P. Giannozzi et al., J. Phys.:Condens. Matter 21 395502 (2009);
          URL http://www.quantum-espresso.org", 
     in publications or presentations arising from this work. More details at
     http://www.quantum-espresso.org/quote

     Parallel version (MPI), running on     1 processors
     Reading input from pw.in

     Current dimensions of program PWSCF are:
     Max number of different atomic species (ntypx) = 10
     Max number of k-points (npk) =  40000
     Max angular momentum in pseudopotentials (lmaxx) =  3
               file N.pbe-rrkjus.UPF: wavefunction(s)  2S renormalized
               file C.pbe-rrkjus.UPF: wavefunction(s)  2S 2P renormalized
               file H.pbe-rrkjus.UPF: wavefunction(s)  1S renormalized

     gamma-point specific algorithms are used

     Subspace diagonalization in iterative solution of the eigenvalue problem:
     a serial algorithm will be used

 
     G-vector sticks info
     --------------------
     sticks:   dense  smooth     PW     G-vecs:    dense   smooth      PW
     Sum        9549    3809    949               701475   177509   22119
 


     bravais-lattice index     =            1
     lattice parameter (alat)  =      20.0000  a.u.
     unit-cell volume          =    8000.0000 (a.u.)^3
     number of atoms/cell      =           11
     number of atomic types    =            3
     number of electrons       =        30.00
     number of Kohn-Sham states=           15
     kinetic-energy cutoff     =      30.0000  Ry
     charge density cutoff     =     300.0000  Ry
     convergence threshold     =      5.0E-04
     mixing beta               =       0.7000
     number of iterations used =            8  plain     mixing
     Exchange-correlation      =  SLA  PW   PBE  PBE ( 1  4  3  4 0 0)
 

     Environ Module
     ==============

     Plese cite
         O. Andreussi, I. Dabo and N. Marzari, J. Chem. Phys. 136, 064102 (2012)         
     in publications or presentations arising from this work.

     compensation onset threshold      =               0.1000E+03 
     static permittivity               =                    20.00 
     epsilon calculation mode          =               electronic 

     Electrostatic Setup
     -------------------
     electrostatic problem to solve    = linmodpb                 
     numerical solver adopted          = cg                       
     type of auxiliary density adopted = none                     
     type of core tool for poisson     = fft                      
     type of core tool for s(r) deriv  = analytic                 



     celldm(1)=  20.000000  celldm(2)=   0.000000  celldm(3)=   0.000000
     celldm(4)=   0.000000  celldm(5)=   0.000000  celldm(6)=   0.000000

     crystal axes: (cart. coord. in units of alat)
               a(1) = (   1.000000   0.000000   0.000000 )  
               a(2) = (   0.000000   1.000000   0.000000 )  
               a(3) = (   0.000000   0.000000   1.000000 )  

     reciprocal axes: (cart. coord. in units 2 pi/alat)
               b(1) = (  1.000000  0.000000  0.000000 )  
               b(2) = (  0.000000  1.000000  0.000000 )  
               b(3) = (  0.000000  0.000000  1.000000 )  


     PseudoPot. # 1 for N  read from file:
     /home/fnattino/Programs/qe-6.1/Environ/tests/../..//pseudo/N.pbe-rrkjus.UPF
     MD5 check sum: 0c3fbe5807a93f9ba59d5a7019aa238b
     Pseudo is Ultrasoft, Zval =  5.0
     Generated by new atomic code, or converted to UPF format
     Using radial grid of 1257 points,  4 beta functions with: 
                l(1) =   0
                l(2) =   0
                l(3) =   1
                l(4) =   1
     Q(r) pseudized with 0 coefficients 


     PseudoPot. # 2 for C  read from file:
     /home/fnattino/Programs/qe-6.1/Environ/tests/../..//pseudo/C.pbe-rrkjus.UPF
     MD5 check sum: 00fb224312de0c5b6853bd333518df6f
     Pseudo is Ultrasoft, Zval =  4.0
     Generated by new atomic code, or converted to UPF format
     Using radial grid of  627 points,  4 beta functions with: 
                l(1) =   0
                l(2) =   0
                l(3) =   1
                l(4) =   1
     Q(r) pseudized with 0 coefficients 


     PseudoPot. # 3 for H  read from file:
     /home/fnattino/Programs/qe-6.1/Environ/tests/../..//pseudo/H.pbe-rrkjus.UPF
     MD5 check sum: 7cc9d459525c9a0585f487a71c3c9563
     Pseudo is Ultrasoft, Zval =  1.0
     Generated by new atomic code, or converted to UPF format
     Using radial grid of 1061 points,  2 beta functions with: 
                l(1) =   0
                l(2) =   0
     Q(r) pseudized with 0 coefficients 


     atomic species   valence    mass     pseudopotential
        N              5.00    14.00000     N ( 1.00)
        C              4.00    12.00000     C ( 1.00)
        H              1.00     1.00000     H ( 1.00)

     No symmetry found



   Cartesian axes

     site n.     atom                  positions (alat units)
         1           N   tau(   1) = (  -0.1222704   0.0000000   0.0001514  )
         2           C   tau(   2) = (  -0.0616572   0.1123679   0.0001037  )
         3           C   tau(   3) = (   0.0689061   0.1142596   0.0000731  )
         4           C   tau(   4) = (   0.1346968   0.0000000   0.0000659  )
         5           C   tau(   5) = (   0.0689062  -0.1142596   0.0001326  )
         6           C   tau(   6) = (  -0.0616572  -0.1123679   0.0001773  )
         7           H   tau(   7) = (  -0.1206366   0.1969071   0.0000855  )
         8           H   tau(   8) = (   0.1179548   0.2049361   0.0000402  )
         9           H   tau(   9) = (   0.2379293  -0.0000000   0.0000010  )
        10           H   tau(  10) = (   0.1179548  -0.2049361   0.0001604  )
        11           H   tau(  11) = (  -0.1206365  -0.1969070   0.0002440  )

     number of k points=     1
                       cart. coord. in units 2pi/alat
        k(    1) = (   0.0000000   0.0000000   0.0000000), wk =   2.0000000

     Dense  grid:   350738 G-vectors     FFT dimensions: ( 120, 120, 120)

     Smooth grid:    88755 G-vectors     FFT dimensions: (  72,  72,  72)

     Estimated max dynamical RAM per process >     300.59MB

     Initial potential from superposition of free atoms
     Check: negative starting charge=   -0.000446

     starting charge   29.51871, renormalised to   30.00000

     negative rho (up, down):  4.533E-04 0.000E+00
     Starting wfc are   29 randomized atomic wfcs

     total cpu time spent up to now is        8.1 secs

     per-process dynamical memory:   873.1 Mb

     Self-consistent Calculation

     iteration #  1     ecut=    30.00 Ry     beta=0.70
     Davidson diagonalization with overlap
     ethr =  1.00E-02,  avg # of iterations =  2.0

     negative rho (up, down):  1.360E-04 0.000E+00

     add environment contribution to local potential
     polarization accuracy = 7.7E-06, # of iterations =  13

     total cpu time spent up to now is       20.9 secs

     total energy              =     -82.24138465 Ry
     Harris-Foulkes estimate   =     -83.63778213 Ry
     estimated scf accuracy    <       2.07062237 Ry
     electrostatic embedding   =       0.00000000 Ry
     electrolyte free energy   =       0.01683495 Ry
     correction to one-el term =       0.00000000 Ry

     iteration #  2     ecut=    30.00 Ry     beta=0.70
     Davidson diagonalization with overlap
     ethr =  6.90E-03,  avg # of iterations =  3.0

     negative rho (up, down):  1.552E-04 0.000E+00

     add environment contribution to local potential
     polarization accuracy = 4.0E-06, # of iterations =  15

     total cpu time spent up to now is       35.1 secs

     total energy              =     -82.44611533 Ry
     Harris-Foulkes estimate   =     -82.81949544 Ry
     estimated scf accuracy    <       0.49833926 Ry
     electrostatic embedding   =      -0.02762867 Ry
     electrolyte free energy   =       0.01109157 Ry
     correction to one-el term =       0.06923209 Ry

     iteration #  3     ecut=    30.00 Ry     beta=0.70
     Davidson diagonalization with overlap
     ethr =  1.66E-03,  avg # of iterations =  4.0

     negative rho (up, down):  1.955E-04 0.000E+00

     add environment contribution to local potential
     polarization accuracy = 4.9E-06, # of iterations =  16

     total cpu time spent up to now is       48.9 secs

     total energy              =     -82.59326291 Ry
     Harris-Foulkes estimate   =     -83.25988833 Ry
     estimated scf accuracy    <       0.20656889 Ry
     electrostatic embedding   =      -0.02434677 Ry
     electrolyte free energy   =       0.00744086 Ry
     correction to one-el term =       0.58156878 Ry

     iteration #  4     ecut=    30.00 Ry     beta=0.70
     Davidson diagonalization with overlap
     ethr =  6.89E-04,  avg # of iterations =  4.0

     negative rho (up, down):  5.025E-05 0.000E+00

     add environment contribution to local potential
     polarization accuracy = 7.0E-06, # of iterations =  16

     total cpu time spent up to now is       60.2 secs

     total energy              =     -82.64343945 Ry
     Harris-Foulkes estimate   =     -83.44802448 Ry
     estimated scf accuracy    <       0.00854753 Ry
     electrostatic embedding   =      -0.01657978 Ry
     electrolyte free energy   =       0.00518585 Ry
     correction to one-el term =       0.81175582 Ry

     iteration #  5     ecut=    30.00 Ry     beta=0.70
     Davidson diagonalization with overlap
     ethr =  2.85E-05,  avg # of iterations =  4.0

     negative rho (up, down):  5.286E-05 0.000E+00

     add environment contribution to local potential
     polarization accuracy = 7.8E-06, # of iterations =  16

     total cpu time spent up to now is       72.6 secs

     total energy              =     -82.64605979 Ry
     Harris-Foulkes estimate   =     -83.60555487 Ry
     estimated scf accuracy    <       0.00114233 Ry
     electrostatic embedding   =      -0.01812864 Ry
     electrolyte free energy   =       0.00449386 Ry
     correction to one-el term =       0.97269006 Ry

     iteration #  6     ecut=    30.00 Ry     beta=0.70
     Davidson diagonalization with overlap
     ethr =  3.81E-06,  avg # of iterations =  3.0

     negative rho (up, down):  1.400E-04 0.000E+00

     total cpu time spent up to now is       78.0 secs

     End of self-consistent calculation

          k = 0.0000 0.0000 0.0000 ( 11060 PWs)   bands (ev):

   -23.2520 -19.6364 -18.8566 -15.3850 -15.2766 -12.8028 -11.6471 -11.1978
   -10.4391  -9.7791  -9.4582  -8.6844  -7.0455  -6.6423  -5.5797

     highest occupied level (ev):    -5.5797

!    total energy              =     -82.64630715 Ry
     Harris-Foulkes estimate   =     -83.64876175 Ry
     estimated scf accuracy    <       0.00009194 Ry

     The total energy is the sum of the following terms:

     one-electron contribution =    -292.45893047 Ry
     hartree contribution      =     149.42779538 Ry
     xc contribution           =     -25.97503717 Ry
     ewald contribution        =      85.35745671 Ry
     electrostatic embedding   =      -0.01803905 Ry
     electrolyte free energy   =       0.00435707 Ry
     correction to one-el term =       1.01609038 Ry

     convergence has been achieved in   6 iterations

     Forces acting on atoms (cartesian axes, Ry/au):

     atom    1 type  1   force =    -0.04652338    0.00000137    0.00000385
     atom    2 type  2   force =    -0.00612641   -0.06238448    0.00002605
     atom    3 type  2   force =     0.02094496    0.01704449   -0.00004607
     atom    4 type  2   force =     0.00624105   -0.00000363    0.00000556
     atom    5 type  2   force =     0.02095239   -0.01703452    0.00000643
     atom    6 type  2   force =    -0.00614265    0.06238462    0.00001160
     atom    7 type  3   force =     0.00205784    0.00189804    0.00000900
     atom    8 type  3   force =     0.00530846   -0.00374707   -0.00000832
     atom    9 type  3   force =    -0.00408163    0.00000301    0.00002913
     atom   10 type  3   force =     0.00531621    0.00373569   -0.00002495
     atom   11 type  3   force =     0.00205317   -0.00189754   -0.00001229

     Total force =     0.107877     Total SCF correction =     0.015688
     SCF correction compared to forces is large: reduce conv_thr to get better values

     Writing output data file pwscf.save
 
     init_run     :      7.68s CPU      8.06s WALL (       1 calls)
     electrons    :     67.52s CPU     69.96s WALL (       1 calls)
     forces       :      2.30s CPU      2.40s WALL (       1 calls)

     Called by init_run:
     wfcinit      :      0.33s CPU      0.33s WALL (       1 calls)
     potinit      :      3.99s CPU      4.09s WALL (       1 calls)

     Called by electrons:
     c_bands      :      3.41s CPU      3.44s WALL (       6 calls)
     sum_band     :      5.96s CPU      6.39s WALL (       6 calls)
     v_of_rho     :      7.34s CPU      7.59s WALL (       7 calls)
     newd         :      3.55s CPU      3.93s WALL (       7 calls)
     mix_rho      :      0.64s CPU      0.65s WALL (       6 calls)

     Called by c_bands:
     init_us_2    :      0.10s CPU      0.10s WALL (      13 calls)
     regterg      :      3.16s CPU      3.18s WALL (       6 calls)

     Called by sum_band:
     sum_band:bec :      0.00s CPU      0.00s WALL (       6 calls)
     addusdens    :      4.11s CPU      4.49s WALL (       6 calls)

     Called by *egterg:
     h_psi        :      3.02s CPU      3.03s WALL (      27 calls)
     s_psi        :      0.11s CPU      0.11s WALL (      27 calls)
     g_psi        :      0.02s CPU      0.02s WALL (      20 calls)
     rdiaghg      :      0.01s CPU      0.01s WALL (      26 calls)

     Called by h_psi:
     h_psi:pot    :      3.01s CPU      3.01s WALL (      27 calls)
     h_psi:calbec :      0.08s CPU      0.09s WALL (      27 calls)
     vloc_psi     :      2.81s CPU      2.80s WALL (      27 calls)
     add_vuspsi   :      0.12s CPU      0.11s WALL (      27 calls)

     General routines
     calbec       :      0.10s CPU      0.13s WALL (      37 calls)
     fft          :     21.24s CPU     21.87s WALL (     405 calls)
     ffts         :      0.12s CPU      0.11s WALL (      13 calls)
     fftw         :      2.24s CPU      2.24s WALL (     364 calls)
     interpolate  :      0.86s CPU      0.93s WALL (      13 calls)
     davcio       :      0.00s CPU      0.00s WALL (       1 calls)
 
     Parallel routines
     fft_scatter  :      5.43s CPU      5.87s WALL (     782 calls)
 
     Environ routines
     calc_eelect  :      0.08s CPU      0.07s WALL (      12 calls)
     calc_velect  :     30.75s CPU     31.62s WALL (      10 calls)
     dielectric   :      0.66s CPU      0.68s WALL (       8 calls)
     electrolyte  :      0.07s CPU      0.07s WALL (       8 calls)
     calc_felect  :      0.47s CPU      0.47s WALL (       1 calls)
 
     PWSCF        :  1m17.74s CPU     1m20.71s WALL

 
   This run was terminated on:  15:11:34  21Dec2017            

=------------------------------------------------------------------------------=
   JOB DONE.
=------------------------------------------------------------------------------=

%%%% IONS %%%%%%%%%%%%%%%%%%%%%%%%%%%%%%%%%%%%%%%%%%%%%%%%%%%%%%%%%%%%%%%%%%%%%%
 number of ions             =         11
 ionic center of charge     =      0.0072664     0.0000000     0.0001166
 total ionic charge         =    -30.0000000
 ionic dipole               =      0.0000000     0.0000000     0.0000000
 ionic quadrupole (pc)      =   -131.0719095  -146.7987094    -0.0000314
 ionic quadrupole (gauss)   =   -134.8219095  -150.5487094    -3.7500314
 ion   1 type =  1 coordinates =     -2.4454071     0.0000002     0.0030272
 ion   2 type =  2 coordinates =     -1.2331440     2.2473584     0.0020749
 ion   3 type =  2 coordinates =      1.3781229     2.2851921     0.0014627
 ion   4 type =  2 coordinates =      2.6939354     0.0000002     0.0013189
 ion   5 type =  2 coordinates =      1.3781232    -2.2851919     0.0026521
 ion   6 type =  2 coordinates =     -1.2331437    -2.2473574     0.0035464
 ion   7 type =  3 coordinates =     -2.4127312     3.9381412     0.0017094
 ion   8 type =  3 coordinates =      2.3590962     4.0987221     0.0008035
 ion   9 type =  3 coordinates =      4.7585861    -0.0000002     0.0000199
 ion  10 type =  3 coordinates =      2.3590968    -4.0987217     0.0032074
 ion  11 type =  3 coordinates =     -2.4127303    -3.9381403     0.0048805

%%%% SYSTEM %%%%%%%%%%%%%%%%%%%%%%%%%%%%%%%%%%%%%%%%%%%%%%%%%%%%%%%%%%%%%%%%%%%%
 system is built from all present ionic types
 system defined dimension   =  0 
 system defined axis        =  3 
 system center              =      0.0072664     0.0000000     0.0001166 
 system width               =      0.2348011 

%%%% ELECTRONS %%%%%%%%%%%%%%%%%%%%%%%%%%%%%%%%%%%%%%%%%%%%%%%%%%%%%%%%%%%%%%%%%
 number of electrons        =         30
 total electronic charge    =     30.0000000
 number of spin components  =  1

%%%% BOUNDARY %%%%%%%%%%%%%%%%%%%%%%%%%%%%%%%%%%%%%%%%%%%%%%%%%%%%%%%%%%%%%%%%%%
 boundary mode              = electronic           
 boundary is built as a function of a smooth density
 function type              =  2 
 using the modified SCCS function with parameters 
 rhomax                     =      0.0050000 
 rhomin                     =      0.0001000 
 volume of the QM region    =   2407.1059985 
 surface of the QM region   =    815.5587051 

%%%% DIELECTRIC %%%%%%%%%%%%%%%%%%%%%%%%%%%%%%%%%%%%%%%%%%%%%%%%%%%%%%%%%%%%%%%%%
 dielectric build on homogeneous background
 environment bulk permitt.  =     20.0000000 
 dielectric flags
 need gradient              =  F 
 need factor depend. sqrt   =  T 
 total dielectric charge    =      0.0000000

%%%% BOUNDARY %%%%%%%%%%%%%%%%%%%%%%%%%%%%%%%%%%%%%%%%%%%%%%%%%%%%%%%%%%%%%%%%%%
 boundary mode              = electronic           
 boundary is built as a function of a smooth density
 function type              =  2 
 using the modified SCCS function with parameters 
 rhomax                     =      0.0007071 
 rhomin                     =      0.0000141 
 volume of the QM region    =   5970.3512116 
 surface of the QM region   =   1118.1531714 

%%%% ELECTROLYTE %%%%%%%%%%%%%%%%%%%%%%%%%%%%%%%%%%%%%%%%%%%%%%%%%%%%%%%%%%%%%%%%
 number electrol. species   =    2
 solvent temperature        =   300.0
 Debye length / sqrt(eps)   =      0.2301070
 modified Poisson-Boltzmann 
 maximum concentration      =      0.0190986
 electrolyte species    1
 bulk concentration  (a.u.) =      0.7139E-03
 bulk concentration (mol/L) =      8.0000000
 ionic charge               =    1.00
 electrolyte species    2
 bulk concentration  (a.u.) =      0.7139E-03
 bulk concentration (mol/L) =      8.0000000
 ionic charge               =   -1.00
 electrolyte flags
 linearized                 =  T
 total electrolyte charge   =      0.0000000

%%%% ELECTRONS %%%%%%%%%%%%%%%%%%%%%%%%%%%%%%%%%%%%%%%%%%%%%%%%%%%%%%%%%%%%%%%%%
 number of electrons        =         30
 total electronic charge    =     30.0000000
 number of spin components  =  1

%%%% BOUNDARY %%%%%%%%%%%%%%%%%%%%%%%%%%%%%%%%%%%%%%%%%%%%%%%%%%%%%%%%%%%%%%%%%%
 boundary mode              = electronic           
 boundary is built as a function of a smooth density
 function type              =  2 
 using the modified SCCS function with parameters 
 rhomax                     =      0.0050000 
 rhomin                     =      0.0001000 
 volume of the QM region    =   1074.1872471 
 surface of the QM region   =    527.4241024 

%%%% DIELECTRIC %%%%%%%%%%%%%%%%%%%%%%%%%%%%%%%%%%%%%%%%%%%%%%%%%%%%%%%%%%%%%%%%%
 dielectric build on homogeneous background
 environment bulk permitt.  =     20.0000000 
 dielectric flags
 need gradient              =  F 
 need factor depend. sqrt   =  T 
 total dielectric charge    =      0.0000000

%%%% BOUNDARY %%%%%%%%%%%%%%%%%%%%%%%%%%%%%%%%%%%%%%%%%%%%%%%%%%%%%%%%%%%%%%%%%%
 boundary mode              = electronic           
 boundary is built as a function of a smooth density
 function type              =  2 
 using the modified SCCS function with parameters 
 rhomax                     =      0.0007071 
 rhomin                     =      0.0000141 
 volume of the QM region    =   3961.6572593 
 surface of the QM region   =   1007.0653042 

%%%% ELECTROLYTE %%%%%%%%%%%%%%%%%%%%%%%%%%%%%%%%%%%%%%%%%%%%%%%%%%%%%%%%%%%%%%%%
 number electrol. species   =    2
 solvent temperature        =   300.0
 Debye length / sqrt(eps)   =      0.2301070
 modified Poisson-Boltzmann 
 maximum concentration      =      0.0190986
 electrolyte species    1
 bulk concentration  (a.u.) =      0.7139E-03
 bulk concentration (mol/L) =      8.0000000
 ionic charge               =    1.00
 electrolyte species    2
 bulk concentration  (a.u.) =      0.7139E-03
 bulk concentration (mol/L) =      8.0000000
 ionic charge               =   -1.00
 electrolyte flags
 linearized                 =  T
 total electrolyte charge   =      0.0000000

%%%% COMPUTE ELECTROSTATIC POTENTIAL %%%%%%%%%%%%%%%%%%%%%%%%%%%%%%%%%%%%%%%%%%%
 Iteration #          1
  pAp =    123.218646675403       rzold =    120.820643240974       alpha = 
  0.980538631943053     
 delta_qm =   0.112726E-01 delta_en =   0.219578E+03 tol =   0.100000E-04
 Iteration #          2
  pAp =    1757.52888361199       rzold =    59.5240147883236       alpha = 
  3.386801511107611E-002
 delta_qm =   0.339756E-02 delta_en =   0.199470E+02 tol =   0.100000E-04
 Iteration #          3
  pAp =    7.89682722087515       rzold =    1.17910397836861       alpha = 
  0.149313635133318     
 delta_qm =   0.102027E-02 delta_en =   0.179877E+01 tol =   0.100000E-04
 Iteration #          4
  pAp =   0.296489026523628       rzold =   6.279901320062183E-002  alpha = 
  0.211808895381216     
 delta_qm =   0.535910E-03 delta_en =   0.496281E+00 tol =   0.100000E-04
 Iteration #          5
  pAp =   0.257329923068774       rzold =   2.847834286095157E-002  alpha = 
  0.110668602086126     
 delta_qm =   0.262814E-03 delta_en =   0.119355E+00 tol =   0.100000E-04
 Iteration #          6
  pAp =   7.503184582641215E-003  rzold =   2.051997218882504E-003  alpha = 
  0.273483505074611     
 delta_qm =   0.127058E-03 delta_en =   0.278964E-01 tol =   0.100000E-04
 Iteration #          7
  pAp =   3.876694483716384E-003  rzold =   4.542190938776658E-004  alpha = 
  0.117166595352190     
 delta_qm =   0.980833E-04 delta_en =   0.166239E-01 tol =   0.100000E-04
 Iteration #          8
  pAp =   5.144233623149077E-004  rzold =   1.563193212732147E-004  alpha = 
  0.303872904546514     
 delta_qm =   0.475637E-04 delta_en =   0.390927E-02 tol =   0.100000E-04
 Iteration #          9
  pAp =   1.670243868366787E-004  rzold =   4.021284121369351E-005  alpha = 
  0.240760298392921     
 delta_qm =   0.268662E-04 delta_en =   0.124726E-02 tol =   0.100000E-04
 Iteration #         10
  pAp =   5.539186635025166E-005  rzold =   1.478412269344922E-005  alpha = 
  0.266900605947574     
 delta_qm =   0.122481E-04 delta_en =   0.259229E-03 tol =   0.100000E-04
 Iteration #         11
  pAp =   5.748326084055036E-005  rzold =   6.551739236612527E-006  alpha = 
  0.113976471425065     
 delta_qm =   0.800115E-05 delta_en =   0.110624E-03 tol =   0.100000E-04
 Iteration #         12
  pAp =   2.631853783129462E-006  rzold =   1.029291371793201E-006  alpha = 
  0.391089876797525     
 delta_qm =   0.430536E-05 delta_en =   0.320304E-04 tol =   0.100000E-04
 Iteration #         13
  pAp =   3.075778002770249E-007  rzold =   1.925631407960051E-007  alpha = 
  0.626063196441908     
 delta_qm =   0.211348E-05 delta_en =   0.771860E-05 tol =   0.100000E-04
 Charges are converged, EXIT

%%%% ELECTRONS %%%%%%%%%%%%%%%%%%%%%%%%%%%%%%%%%%%%%%%%%%%%%%%%%%%%%%%%%%%%%%%%%
 number of electrons        =         30
 total electronic charge    =     30.0000000
 number of spin components  =  1

%%%% BOUNDARY %%%%%%%%%%%%%%%%%%%%%%%%%%%%%%%%%%%%%%%%%%%%%%%%%%%%%%%%%%%%%%%%%%
 boundary mode              = electronic           
 boundary is built as a function of a smooth density
 function type              =  2 
 using the modified SCCS function with parameters 
 rhomax                     =      0.0050000 
 rhomin                     =      0.0001000 
 volume of the QM region    =   1022.9715260 
 surface of the QM region   =    515.5825535 

%%%% DIELECTRIC %%%%%%%%%%%%%%%%%%%%%%%%%%%%%%%%%%%%%%%%%%%%%%%%%%%%%%%%%%%%%%%%%
 dielectric build on homogeneous background
 environment bulk permitt.  =     20.0000000 
 dielectric flags
 need gradient              =  F 
 need factor depend. sqrt   =  T 
 total dielectric charge    =      0.0044561

%%%% BOUNDARY %%%%%%%%%%%%%%%%%%%%%%%%%%%%%%%%%%%%%%%%%%%%%%%%%%%%%%%%%%%%%%%%%%
 boundary mode              = electronic           
 boundary is built as a function of a smooth density
 function type              =  2 
 using the modified SCCS function with parameters 
 rhomax                     =      0.0007071 
 rhomin                     =      0.0000141 
 volume of the QM region    =   2679.7086430 
 surface of the QM region   =    882.9489371 

%%%% ELECTROLYTE %%%%%%%%%%%%%%%%%%%%%%%%%%%%%%%%%%%%%%%%%%%%%%%%%%%%%%%%%%%%%%%%
 number electrol. species   =    2
 solvent temperature        =   300.0
 Debye length / sqrt(eps)   =      0.2301070
 modified Poisson-Boltzmann 
 maximum concentration      =      0.0190986
 electrolyte species    1
 bulk concentration  (a.u.) =      0.7139E-03
 bulk concentration (mol/L) =      8.0000000
 ionic charge               =    1.00
 electrolyte species    2
 bulk concentration  (a.u.) =      0.7139E-03
 bulk concentration (mol/L) =      8.0000000
 ionic charge               =   -1.00
 electrolyte flags
 linearized                 =  T
 total electrolyte charge   =     -0.0049523

%%%% COMPUTE ELECTROSTATIC POTENTIAL %%%%%%%%%%%%%%%%%%%%%%%%%%%%%%%%%%%%%%%%%%%
 Warning: bad guess with residual norm =   0.196540E+03, reset to no guess
 Iteration #          1
  pAp =    124.032897517027       rzold =    122.299060263922       alpha = 
  0.986021150131824     
 delta_qm =   0.105709E-01 delta_en =   0.193095E+03 tol =   0.100000E-04
 Iteration #          2
  pAp =    2064.12304742687       rzold =    54.1351861041835       alpha = 
  2.622672430874127E-002
 delta_qm =   0.349339E-02 delta_en =   0.210881E+02 tol =   0.100000E-04
 Iteration #          3
  pAp =    15.0442102247066       rzold =    1.47341199846664       alpha = 
  9.793880678740477E-002
 delta_qm =   0.183724E-02 delta_en =   0.583276E+01 tol =   0.100000E-04
 Iteration #          4
  pAp =    2.89309770330146       rzold =   0.336913129115613       alpha = 
  0.116454113779546     
 delta_qm =   0.787968E-03 delta_en =   0.107290E+01 tol =   0.100000E-04
 Iteration #          5
  pAp =   0.241845113647372       rzold =   4.145443527504360E-002  alpha = 
  0.171409025594320     
 delta_qm =   0.302119E-03 delta_en =   0.157725E+00 tol =   0.100000E-04
 Iteration #          6
  pAp =   1.490247203166540E-002  rzold =   3.316482856892935E-003  alpha = 
  0.222545819904639     
 delta_qm =   0.156683E-03 delta_en =   0.424218E-01 tol =   0.100000E-04
 Iteration #          7
  pAp =   3.769282268672836E-003  rzold =   6.946779255324436E-004  alpha = 
  0.184299788664286     
 delta_qm =   0.104508E-03 delta_en =   0.188730E-01 tol =   0.100000E-04
 Iteration #          8
  pAp =   8.760308940963757E-004  rzold =   1.652139490417745E-004  alpha = 
  0.188593747269829     
 delta_qm =   0.750610E-04 delta_en =   0.973582E-02 tol =   0.100000E-04
 Iteration #          9
  pAp =   1.096508340284613E-003  rzold =   1.603029859790258E-004  alpha = 
  0.146194041659015     
 delta_qm =   0.409748E-04 delta_en =   0.290120E-02 tol =   0.100000E-04
 Iteration #         10
  pAp =   7.737620379803292E-005  rzold =   2.416439303894344E-005  alpha = 
  0.312297474582977     
 delta_qm =   0.180842E-04 delta_en =   0.565125E-03 tol =   0.100000E-04
 Iteration #         11
  pAp =   1.051557662729626E-004  rzold =   1.098656601236716E-005  alpha = 
  0.104478968693436     
 delta_qm =   0.131369E-04 delta_en =   0.298214E-03 tol =   0.100000E-04
 Iteration #         12
  pAp =   1.849900832970472E-005  rzold =   3.317383889549890E-006  alpha = 
  0.179327660727792     
 delta_qm =   0.930613E-05 delta_en =   0.149652E-03 tol =   0.100000E-04
 Iteration #         13
  pAp =   5.920717324172267E-006  rzold =   1.327973591801131E-006  alpha = 
  0.224292686019559     
 delta_qm =   0.565732E-05 delta_en =   0.553052E-04 tol =   0.100000E-04
 Iteration #         14
  pAp =   4.536106505936425E-007  rzold =   2.249315276051018E-007  alpha = 
  0.495869149700812     
 delta_qm =   0.303824E-05 delta_en =   0.159510E-04 tol =   0.100000E-04
 Iteration #         15
  pAp =   2.222145786568582E-007  rzold =   8.346274114018252E-008  alpha = 
  0.375595254121760     
 delta_qm =   0.151924E-05 delta_en =   0.398840E-05 tol =   0.100000E-04
 Charges are converged, EXIT

%%%% ELECTRONS %%%%%%%%%%%%%%%%%%%%%%%%%%%%%%%%%%%%%%%%%%%%%%%%%%%%%%%%%%%%%%%%%
 number of electrons        =         30
 total electronic charge    =     30.0000000
 number of spin components  =  1

%%%% BOUNDARY %%%%%%%%%%%%%%%%%%%%%%%%%%%%%%%%%%%%%%%%%%%%%%%%%%%%%%%%%%%%%%%%%%
 boundary mode              = electronic           
 boundary is built as a function of a smooth density
 function type              =  2 
 using the modified SCCS function with parameters 
 rhomax                     =      0.0050000 
 rhomin                     =      0.0001000 
 volume of the QM region    =    990.2990181 
 surface of the QM region   =    507.9805963 

%%%% DIELECTRIC %%%%%%%%%%%%%%%%%%%%%%%%%%%%%%%%%%%%%%%%%%%%%%%%%%%%%%%%%%%%%%%%%
 dielectric build on homogeneous background
 environment bulk permitt.  =     20.0000000 
 dielectric flags
 need gradient              =  F 
 need factor depend. sqrt   =  T 
 total dielectric charge    =     -0.0029717

%%%% BOUNDARY %%%%%%%%%%%%%%%%%%%%%%%%%%%%%%%%%%%%%%%%%%%%%%%%%%%%%%%%%%%%%%%%%%
 boundary mode              = electronic           
 boundary is built as a function of a smooth density
 function type              =  2 
 using the modified SCCS function with parameters 
 rhomax                     =      0.0007071 
 rhomin                     =      0.0000141 
 volume of the QM region    =   1868.3286964 
 surface of the QM region   =    761.4903176 

%%%% ELECTROLYTE %%%%%%%%%%%%%%%%%%%%%%%%%%%%%%%%%%%%%%%%%%%%%%%%%%%%%%%%%%%%%%%%
 number electrol. species   =    2
 solvent temperature        =   300.0
 Debye length / sqrt(eps)   =      0.2301070
 modified Poisson-Boltzmann 
 maximum concentration      =      0.0190986
 electrolyte species    1
 bulk concentration  (a.u.) =      0.7139E-03
 bulk concentration (mol/L) =      8.0000000
 ionic charge               =    1.00
 electrolyte species    2
 bulk concentration  (a.u.) =      0.7139E-03
 bulk concentration (mol/L) =      8.0000000
 ionic charge               =   -1.00
 electrolyte flags
 linearized                 =  T
 total electrolyte charge   =      0.0032316

%%%% COMPUTE ELECTROSTATIC POTENTIAL %%%%%%%%%%%%%%%%%%%%%%%%%%%%%%%%%%%%%%%%%%%
 Warning: bad guess with residual norm =   0.169837E+03, reset to no guess
 Iteration #          1
  pAp =    124.038332249887       rzold =    122.820056527000       alpha = 
  0.990178231996601     
 delta_qm =   0.984598E-02 delta_en =   0.167518E+03 tol =   0.100000E-04
 Iteration #          2
  pAp =    2051.52389058233       rzold =    45.7618644130072       alpha = 
  2.230627906556704E-002
 delta_qm =   0.303762E-02 delta_en =   0.159444E+02 tol =   0.100000E-04
 Iteration #          3
  pAp =    10.3173807899719       rzold =   0.969199876271885       alpha = 
  9.393855824473450E-002
 delta_qm =   0.157337E-02 delta_en =   0.427763E+01 tol =   0.100000E-04
 Iteration #          4
  pAp =    2.22063826768478       rzold =   0.235902457988132       alpha = 
  0.106231825966902     
 delta_qm =   0.788458E-03 delta_en =   0.107424E+01 tol =   0.100000E-04
 Iteration #          5
  pAp =   0.255097246192128       rzold =   4.076232458272745E-002  alpha = 
  0.159791315630382     
 delta_qm =   0.324902E-03 delta_en =   0.182410E+00 tol =   0.100000E-04
 Iteration #          6
  pAp =   2.165734123620396E-002  rzold =   4.208407660700918E-003  alpha = 
  0.194317834991945     
 delta_qm =   0.162470E-03 delta_en =   0.456131E-01 tol =   0.100000E-04
 Iteration #          7
  pAp =   3.931155957210714E-003  rzold =   7.269308755492811E-004  alpha = 
  0.184915298060335     
 delta_qm =   0.107324E-03 delta_en =   0.199040E-01 tol =   0.100000E-04
 Iteration #          8
  pAp =   3.890031030084340E-004  rzold =   1.271673858172413E-004  alpha = 
  0.326905839140528     
 delta_qm =   0.580873E-04 delta_en =   0.583051E-02 tol =   0.100000E-04
 Iteration #          9
  pAp =   1.119605713928723E-003  rzold =   9.981316140390149E-005  alpha = 
  8.915027867592311E-002
 delta_qm =   0.415546E-04 delta_en =   0.298389E-02 tol =   0.100000E-04
 Iteration #         10
  pAp =   1.057114244175120E-004  rzold =   2.538268520930459E-005  alpha = 
  0.240112980684609     
 delta_qm =   0.215170E-04 delta_en =   0.800034E-03 tol =   0.100000E-04
 Iteration #         11
  pAp =   6.997655825222615E-005  rzold =   1.171609664186694E-005  alpha = 
  0.167428878105679     
 delta_qm =   0.126517E-04 delta_en =   0.276593E-03 tol =   0.100000E-04
 Iteration #         12
  pAp =   6.841351839918092E-006  rzold =   1.833169822066202E-006  alpha = 
  0.267954326127473     
 delta_qm =   0.780389E-05 delta_en =   0.105236E-03 tol =   0.100000E-04
 Iteration #         13
  pAp =   1.620201077460346E-005  rzold =   1.395743535997485E-006  alpha = 
  8.614631575145619E-002
 delta_qm =   0.616430E-05 delta_en =   0.656616E-04 tol =   0.100000E-04
 Iteration #         14
  pAp =   7.663222679970322E-007  rzold =   2.674377900668496E-007  alpha = 
  0.348988671262108     
 delta_qm =   0.375259E-05 delta_en =   0.243336E-04 tol =   0.100000E-04
 Iteration #         15
  pAp =   5.025618032513811E-006  rzold =   2.103226329950113E-007  alpha = 
  4.185010313842098E-002
 delta_qm =   0.369568E-05 delta_en =   0.236011E-04 tol =   0.100000E-04
 Iteration #         16
  pAp =   6.907454529034108E-007  rzold =   1.705922889854575E-007  alpha = 
  0.246968385051841     
 delta_qm =   0.169015E-05 delta_en =   0.493623E-05 tol =   0.100000E-04
 Charges are converged, EXIT

%%%% ELECTRONS %%%%%%%%%%%%%%%%%%%%%%%%%%%%%%%%%%%%%%%%%%%%%%%%%%%%%%%%%%%%%%%%%
 number of electrons        =         30
 total electronic charge    =     30.0000000
 number of spin components  =  1

%%%% BOUNDARY %%%%%%%%%%%%%%%%%%%%%%%%%%%%%%%%%%%%%%%%%%%%%%%%%%%%%%%%%%%%%%%%%%
 boundary mode              = electronic           
 boundary is built as a function of a smooth density
 function type              =  2 
 using the modified SCCS function with parameters 
 rhomax                     =      0.0050000 
 rhomin                     =      0.0001000 
 volume of the QM region    =    970.5892444 
 surface of the QM region   =    503.1765060 

%%%% DIELECTRIC %%%%%%%%%%%%%%%%%%%%%%%%%%%%%%%%%%%%%%%%%%%%%%%%%%%%%%%%%%%%%%%%%
 dielectric build on homogeneous background
 environment bulk permitt.  =     20.0000000 
 dielectric flags
 need gradient              =  F 
 need factor depend. sqrt   =  T 
 total dielectric charge    =     -0.0000849

%%%% BOUNDARY %%%%%%%%%%%%%%%%%%%%%%%%%%%%%%%%%%%%%%%%%%%%%%%%%%%%%%%%%%%%%%%%%%
 boundary mode              = electronic           
 boundary is built as a function of a smooth density
 function type              =  2 
 using the modified SCCS function with parameters 
 rhomax                     =      0.0007071 
 rhomin                     =      0.0000141 
 volume of the QM region    =   1628.8590876 
 surface of the QM region   =    693.3357102 

%%%% ELECTROLYTE %%%%%%%%%%%%%%%%%%%%%%%%%%%%%%%%%%%%%%%%%%%%%%%%%%%%%%%%%%%%%%%%
 number electrol. species   =    2
 solvent temperature        =   300.0
 Debye length / sqrt(eps)   =      0.2301070
 modified Poisson-Boltzmann 
 maximum concentration      =      0.0190986
 electrolyte species    1
 bulk concentration  (a.u.) =      0.7139E-03
 bulk concentration (mol/L) =      8.0000000
 ionic charge               =    1.00
 electrolyte species    2
 bulk concentration  (a.u.) =      0.7139E-03
 bulk concentration (mol/L) =      8.0000000
 ionic charge               =   -1.00
 electrolyte flags
 linearized                 =  T
 total electrolyte charge   =      0.0000313

%%%% COMPUTE ELECTROSTATIC POTENTIAL %%%%%%%%%%%%%%%%%%%%%%%%%%%%%%%%%%%%%%%%%%%
 Warning: bad guess with residual norm =   0.149548E+03, reset to no guess
 Iteration #          1
  pAp =    123.584333896690       rzold =    122.592471285655       alpha = 
  0.991974204336735     
 delta_qm =   0.924919E-02 delta_en =   0.147826E+03 tol =   0.100000E-04
 Iteration #          2
  pAp =    1731.19372994822       rzold =    37.1581617814649       alpha = 
  2.146389577241380E-002
 delta_qm =   0.323448E-02 delta_en =   0.180780E+02 tol =   0.100000E-04
 Iteration #          3
  pAp =    12.8940652073725       rzold =    1.09302170065906       alpha = 
  8.476936350795701E-002
 delta_qm =   0.169138E-02 delta_en =   0.494343E+01 tol =   0.100000E-04
 Iteration #          4
  pAp =    2.25930997397636       rzold =   0.253945459763478       alpha = 
  0.112399565658774     
 delta_qm =   0.841581E-03 delta_en =   0.122387E+01 tol =   0.100000E-04
 Iteration #          5
  pAp =   0.306980500154045       rzold =   4.688925601722178E-002  alpha = 
  0.152743434823034     
 delta_qm =   0.345057E-03 delta_en =   0.205744E+00 tol =   0.100000E-04
 Iteration #          6
  pAp =   2.272507421570441E-002  rzold =   4.513678228282698E-003  alpha = 
  0.198621055554726     
 delta_qm =   0.163906E-03 delta_en =   0.464232E-01 tol =   0.100000E-04
 Iteration #          7
  pAp =   3.687866201951131E-003  rzold =   6.787392469731740E-004  alpha = 
  0.184046603050315     
 delta_qm =   0.114304E-03 delta_en =   0.225769E-01 tol =   0.100000E-04
 Iteration #          8
  pAp =   4.468534778241196E-004  rzold =   1.449125875410364E-004  alpha = 
  0.324295534739183     
 delta_qm =   0.579188E-04 delta_en =   0.579673E-02 tol =   0.100000E-04
 Iteration #          9
  pAp =   9.152706497597247E-004  rzold =   8.199584496795076E-005  alpha = 
  8.958644635821783E-002
 delta_qm =   0.436980E-04 delta_en =   0.329964E-02 tol =   0.100000E-04
 Iteration #         10
  pAp =   1.158137136617949E-004  rzold =   2.880967550976803E-005  alpha = 
  0.248758757480997     
 delta_qm =   0.210915E-04 delta_en =   0.768703E-03 tol =   0.100000E-04
 Iteration #         11
  pAp =   6.529315929010906E-005  rzold =   1.007835686802086E-005  alpha = 
  0.154355478852554     
 delta_qm =   0.141360E-04 delta_en =   0.345301E-03 tol =   0.100000E-04
 Iteration #         12
  pAp =   6.862853408248819E-006  rzold =   2.089536313768597E-006  alpha = 
  0.304470486176650     
 delta_qm =   0.761920E-05 delta_en =   0.100314E-03 tol =   0.100000E-04
 Iteration #         13
  pAp =   1.171969423204428E-006  rzold =   3.611014323664533E-007  alpha = 
  0.308115062745512     
 delta_qm =   0.533960E-05 delta_en =   0.492676E-04 tol =   0.100000E-04
 Iteration #         14
  pAp =   3.964732608383722E-006  rzold =   3.869041926075812E-007  alpha = 
  9.758645306607651E-002
 delta_qm =   0.429866E-05 delta_en =   0.319307E-04 tol =   0.100000E-04
 Iteration #         15
  pAp =   4.594572214995864E-007  rzold =   1.410449877656149E-007  alpha = 
  0.306981762753166     
 delta_qm =   0.254108E-05 delta_en =   0.111578E-04 tol =   0.100000E-04
 Iteration #         16
  pAp =   9.329503147260728E-006  rzold =   2.497772333767135E-007  alpha = 
  2.677283339038817E-002
 delta_qm =   0.201743E-05 delta_en =   0.703298E-05 tol =   0.100000E-04
 Charges are converged, EXIT

%%%% ELECTRONS %%%%%%%%%%%%%%%%%%%%%%%%%%%%%%%%%%%%%%%%%%%%%%%%%%%%%%%%%%%%%%%%%
 number of electrons        =         30
 total electronic charge    =     30.0000000
 number of spin components  =  1

%%%% BOUNDARY %%%%%%%%%%%%%%%%%%%%%%%%%%%%%%%%%%%%%%%%%%%%%%%%%%%%%%%%%%%%%%%%%%
 boundary mode              = electronic           
 boundary is built as a function of a smooth density
 function type              =  2 
 using the modified SCCS function with parameters 
 rhomax                     =      0.0050000 
 rhomin                     =      0.0001000 
 volume of the QM region    =    968.2642104 
 surface of the QM region   =    502.9745530 

%%%% DIELECTRIC %%%%%%%%%%%%%%%%%%%%%%%%%%%%%%%%%%%%%%%%%%%%%%%%%%%%%%%%%%%%%%%%%
 dielectric build on homogeneous background
 environment bulk permitt.  =     20.0000000 
 dielectric flags
 need gradient              =  F 
 need factor depend. sqrt   =  T 
 total dielectric charge    =     -0.0004155

%%%% BOUNDARY %%%%%%%%%%%%%%%%%%%%%%%%%%%%%%%%%%%%%%%%%%%%%%%%%%%%%%%%%%%%%%%%%%
 boundary mode              = electronic           
 boundary is built as a function of a smooth density
 function type              =  2 
 using the modified SCCS function with parameters 
 rhomax                     =      0.0007071 
 rhomin                     =      0.0000141 
 volume of the QM region    =   1580.8460070 
 surface of the QM region   =    681.5919172 

%%%% ELECTROLYTE %%%%%%%%%%%%%%%%%%%%%%%%%%%%%%%%%%%%%%%%%%%%%%%%%%%%%%%%%%%%%%%%
 number electrol. species   =    2
 solvent temperature        =   300.0
 Debye length / sqrt(eps)   =      0.2301070
 modified Poisson-Boltzmann 
 maximum concentration      =      0.0190986
 electrolyte species    1
 bulk concentration  (a.u.) =      0.7139E-03
 bulk concentration (mol/L) =      8.0000000
 ionic charge               =    1.00
 electrolyte species    2
 bulk concentration  (a.u.) =      0.7139E-03
 bulk concentration (mol/L) =      8.0000000
 ionic charge               =   -1.00
 electrolyte flags
 linearized                 =  T
 total electrolyte charge   =      0.0003846

%%%% COMPUTE ELECTROSTATIC POTENTIAL %%%%%%%%%%%%%%%%%%%%%%%%%%%%%%%%%%%%%%%%%%%
 Warning: bad guess with residual norm =   0.141557E+03, reset to no guess
 Iteration #          1
  pAp =    123.634446577782       rzold =    122.715879489969       alpha = 
  0.992570298058190     
 delta_qm =   0.900216E-02 delta_en =   0.140035E+03 tol =   0.100000E-04
 Iteration #          2
  pAp =    1602.39622328414       rzold =    34.1667977520832       alpha = 
  2.132231545207822E-002
 delta_qm =   0.326210E-02 delta_en =   0.183881E+02 tol =   0.100000E-04
 Iteration #          3
  pAp =    13.6447393288424       rzold =    1.11848748353198       alpha = 
  8.197206678530761E-002
 delta_qm =   0.170437E-02 delta_en =   0.501965E+01 tol =   0.100000E-04
 Iteration #          4
  pAp =    2.20517259078036       rzold =   0.252652322783992       alpha = 
  0.114572584404645     
 delta_qm =   0.837748E-03 delta_en =   0.121275E+01 tol =   0.100000E-04
 Iteration #          5
  pAp =   0.305990427543617       rzold =   4.630353639347218E-002  alpha = 
  0.151323480166293     
 delta_qm =   0.346341E-03 delta_en =   0.207277E+00 tol =   0.100000E-04
 Iteration #          6
  pAp =   2.199440510902237E-002  rzold =   4.429310787730529E-003  alpha = 
  0.201383523026662     
 delta_qm =   0.162686E-03 delta_en =   0.457345E-01 tol =   0.100000E-04
 Iteration #          7
  pAp =   3.516514633306624E-003  rzold =   6.482249218542995E-004  alpha = 
  0.184337330979557     
 delta_qm =   0.115108E-03 delta_en =   0.228958E-01 tol =   0.100000E-04
 Iteration #          8
  pAp =   4.792323004180178E-004  rzold =   1.487228426907476E-004  alpha = 
  0.310335598333046     
 delta_qm =   0.593350E-04 delta_en =   0.608366E-02 tol =   0.100000E-04
 Iteration #          9
  pAp =   1.050531769453933E-003  rzold =   9.066667962767544E-005  alpha = 
  8.630550951810248E-002
 delta_qm =   0.444547E-04 delta_en =   0.341491E-02 tol =   0.100000E-04
 Iteration #         10
  pAp =   1.043695827466509E-004  rzold =   2.781788034417648E-005  alpha = 
  0.266532447597326     
 delta_qm =   0.209796E-04 delta_en =   0.760567E-03 tol =   0.100000E-04
 Iteration #         11
  pAp =   6.045247426739219E-005  rzold =   9.361477561876203E-006  alpha = 
  0.154856813973713     
 delta_qm =   0.143742E-04 delta_en =   0.357036E-03 tol =   0.100000E-04
 Iteration #         12
  pAp =   7.225444953705990E-006  rzold =   2.140586510419696E-006  alpha = 
  0.296256704484583     
 delta_qm =   0.780871E-05 delta_en =   0.105367E-03 tol =   0.100000E-04
 Iteration #         13
  pAp =   1.331001054111939E-006  rzold =   3.699403210116683E-007  alpha = 
  0.277941418505109     
 delta_qm =   0.570052E-05 delta_en =   0.561530E-04 tol =   0.100000E-04
 Iteration #         14
  pAp =   4.668760245341223E-006  rzold =   4.545517373129286E-007  alpha = 
  9.736026555797299E-002
 delta_qm =   0.442383E-05 delta_en =   0.338174E-04 tol =   0.100000E-04
 Iteration #         15
  pAp =   1.850215912394749E-006  rzold =   1.635978410030387E-007  alpha = 
  8.842094585128324E-002
 delta_qm =   0.408887E-05 delta_en =   0.288902E-04 tol =   0.100000E-04
 Iteration #         16
  pAp =   4.575875944670714E-006  rzold =   4.078798916509924E-007  alpha = 
  8.913700821064194E-002
 delta_qm =   0.212775E-05 delta_en =   0.782320E-05 tol =   0.100000E-04
 Charges are converged, EXIT

%%%% ELECTRONS %%%%%%%%%%%%%%%%%%%%%%%%%%%%%%%%%%%%%%%%%%%%%%%%%%%%%%%%%%%%%%%%%
 number of electrons        =         30
 total electronic charge    =     30.0000000
 number of spin components  =  1

%%%% BOUNDARY %%%%%%%%%%%%%%%%%%%%%%%%%%%%%%%%%%%%%%%%%%%%%%%%%%%%%%%%%%%%%%%%%%
 boundary mode              = electronic           
 boundary is built as a function of a smooth density
 function type              =  2 
 using the modified SCCS function with parameters 
 rhomax                     =      0.0050000 
 rhomin                     =      0.0001000 
 volume of the QM region    =    968.2642104 
 surface of the QM region   =    502.9745530 

%%%% DIELECTRIC %%%%%%%%%%%%%%%%%%%%%%%%%%%%%%%%%%%%%%%%%%%%%%%%%%%%%%%%%%%%%%%%%
 dielectric build on homogeneous background
 environment bulk permitt.  =     20.0000000 
 dielectric flags
 need gradient              =  F 
 need factor depend. sqrt   =  T 
 total dielectric charge    =     -0.0000225

%%%% BOUNDARY %%%%%%%%%%%%%%%%%%%%%%%%%%%%%%%%%%%%%%%%%%%%%%%%%%%%%%%%%%%%%%%%%%
 boundary mode              = electronic           
 boundary is built as a function of a smooth density
 function type              =  2 
 using the modified SCCS function with parameters 
 rhomax                     =      0.0007071 
 rhomin                     =      0.0000141 
 volume of the QM region    =   1580.8460070 
 surface of the QM region   =    681.5919172 

%%%% ELECTROLYTE %%%%%%%%%%%%%%%%%%%%%%%%%%%%%%%%%%%%%%%%%%%%%%%%%%%%%%%%%%%%%%%%
 number electrol. species   =    2
 solvent temperature        =   300.0
 Debye length / sqrt(eps)   =      0.2301070
 modified Poisson-Boltzmann 
 maximum concentration      =      0.0190986
 electrolyte species    1
 bulk concentration  (a.u.) =      0.7139E-03
 bulk concentration (mol/L) =      8.0000000
 ionic charge               =    1.00
 electrolyte species    2
 bulk concentration  (a.u.) =      0.7139E-03
 bulk concentration (mol/L) =      8.0000000
 ionic charge               =   -1.00
 electrolyte flags
 linearized                 =  T
 total electrolyte charge   =     -0.0000530
