
     Program PWSCF v.6.1 (svn rev. 13369) starts on 15Dec2017 at 11:11:57 

     This program is part of the open-source Quantum ESPRESSO suite
     for quantum simulation of materials; please cite
         "P. Giannozzi et al., J. Phys.:Condens. Matter 21 395502 (2009);
          URL http://www.quantum-espresso.org", 
     in publications or presentations arising from this work. More details at
     http://www.quantum-espresso.org/quote

     Parallel version (MPI), running on     1 processors
     Reading input from pw.in

     Current dimensions of program PWSCF are:
     Max number of different atomic species (ntypx) = 10
     Max number of k-points (npk) =  40000
     Max angular momentum in pseudopotentials (lmaxx) =  3
               file N.pbe-rrkjus.UPF: wavefunction(s)  2S renormalized
               file C.pbe-rrkjus.UPF: wavefunction(s)  2S 2P renormalized
               file H.pbe-rrkjus.UPF: wavefunction(s)  1S renormalized

     gamma-point specific algorithms are used

     Subspace diagonalization in iterative solution of the eigenvalue problem:
     a serial algorithm will be used

 
     G-vector sticks info
     --------------------
     sticks:   dense  smooth     PW     G-vecs:    dense   smooth      PW
     Sum        9549    3809    949               701475   177509   22119
 


     bravais-lattice index     =            1
     lattice parameter (alat)  =      20.0000  a.u.
     unit-cell volume          =    8000.0000 (a.u.)^3
     number of atoms/cell      =           11
     number of atomic types    =            3
     number of electrons       =        30.00
     number of Kohn-Sham states=           15
     kinetic-energy cutoff     =      30.0000  Ry
     charge density cutoff     =     300.0000  Ry
     convergence threshold     =      5.0E-04
     mixing beta               =       0.7000
     number of iterations used =            8  plain     mixing
     Exchange-correlation      =  SLA  PW   PBE  PBE ( 1  4  3  4 0 0)
 

     Environ Module
     ==============

     Plese cite
         O. Andreussi, I. Dabo and N. Marzari, J. Chem. Phys. 136, 064102 (2012)         
     in publications or presentations arising from this work.

     compensation onset threshold      =               0.1000E+03 
     static permittivity               =                    20.00 
     epsilon calculation mode          =               electronic 

     Electrostatic Setup
     -------------------
     electrostatic problem to solve    = linpb                    
     numerical solver adopted          = cg                       
     type of auxiliary density adopted = none                     
     type of core tool for poisson     = fft                      
     type of core tool for s(r) deriv  = analytic                 



     celldm(1)=  20.000000  celldm(2)=   0.000000  celldm(3)=   0.000000
     celldm(4)=   0.000000  celldm(5)=   0.000000  celldm(6)=   0.000000

     crystal axes: (cart. coord. in units of alat)
               a(1) = (   1.000000   0.000000   0.000000 )  
               a(2) = (   0.000000   1.000000   0.000000 )  
               a(3) = (   0.000000   0.000000   1.000000 )  

     reciprocal axes: (cart. coord. in units 2 pi/alat)
               b(1) = (  1.000000  0.000000  0.000000 )  
               b(2) = (  0.000000  1.000000  0.000000 )  
               b(3) = (  0.000000  0.000000  1.000000 )  


     PseudoPot. # 1 for N  read from file:
     /home/fnattino/Programs/qe-6.1/Environ/tests/../..//pseudo/N.pbe-rrkjus.UPF
     MD5 check sum: 0c3fbe5807a93f9ba59d5a7019aa238b
     Pseudo is Ultrasoft, Zval =  5.0
     Generated by new atomic code, or converted to UPF format
     Using radial grid of 1257 points,  4 beta functions with: 
                l(1) =   0
                l(2) =   0
                l(3) =   1
                l(4) =   1
     Q(r) pseudized with 0 coefficients 


     PseudoPot. # 2 for C  read from file:
     /home/fnattino/Programs/qe-6.1/Environ/tests/../..//pseudo/C.pbe-rrkjus.UPF
     MD5 check sum: 00fb224312de0c5b6853bd333518df6f
     Pseudo is Ultrasoft, Zval =  4.0
     Generated by new atomic code, or converted to UPF format
     Using radial grid of  627 points,  4 beta functions with: 
                l(1) =   0
                l(2) =   0
                l(3) =   1
                l(4) =   1
     Q(r) pseudized with 0 coefficients 


     PseudoPot. # 3 for H  read from file:
     /home/fnattino/Programs/qe-6.1/Environ/tests/../..//pseudo/H.pbe-rrkjus.UPF
     MD5 check sum: 7cc9d459525c9a0585f487a71c3c9563
     Pseudo is Ultrasoft, Zval =  1.0
     Generated by new atomic code, or converted to UPF format
     Using radial grid of 1061 points,  2 beta functions with: 
                l(1) =   0
                l(2) =   0
     Q(r) pseudized with 0 coefficients 


     atomic species   valence    mass     pseudopotential
        N              5.00    14.00000     N ( 1.00)
        C              4.00    12.00000     C ( 1.00)
        H              1.00     1.00000     H ( 1.00)

     No symmetry found



   Cartesian axes

     site n.     atom                  positions (alat units)
         1           N   tau(   1) = (  -0.1222704   0.0000000   0.0001514  )
         2           C   tau(   2) = (  -0.0616572   0.1123679   0.0001037  )
         3           C   tau(   3) = (   0.0689061   0.1142596   0.0000731  )
         4           C   tau(   4) = (   0.1346968   0.0000000   0.0000659  )
         5           C   tau(   5) = (   0.0689062  -0.1142596   0.0001326  )
         6           C   tau(   6) = (  -0.0616572  -0.1123679   0.0001773  )
         7           H   tau(   7) = (  -0.1206366   0.1969071   0.0000855  )
         8           H   tau(   8) = (   0.1179548   0.2049361   0.0000402  )
         9           H   tau(   9) = (   0.2379293  -0.0000000   0.0000010  )
        10           H   tau(  10) = (   0.1179548  -0.2049361   0.0001604  )
        11           H   tau(  11) = (  -0.1206365  -0.1969070   0.0002440  )

     number of k points=     1
                       cart. coord. in units 2pi/alat
        k(    1) = (   0.0000000   0.0000000   0.0000000), wk =   2.0000000

     Dense  grid:   350738 G-vectors     FFT dimensions: ( 120, 120, 120)

     Smooth grid:    88755 G-vectors     FFT dimensions: (  72,  72,  72)

     Estimated max dynamical RAM per process >     300.59MB

     Initial potential from superposition of free atoms
     Check: negative starting charge=   -0.000446

     starting charge   29.51871, renormalised to   30.00000

     negative rho (up, down):  4.533E-04 0.000E+00
     Starting wfc are   29 randomized atomic wfcs

     total cpu time spent up to now is       15.3 secs

     per-process dynamical memory:   832.6 Mb

     Self-consistent Calculation

     iteration #  1     ecut=    30.00 Ry     beta=0.70
     Davidson diagonalization with overlap
     ethr =  1.00E-02,  avg # of iterations =  2.0

     negative rho (up, down):  1.360E-04 0.000E+00

     add environment contribution to local potential
     polarization accuracy = 6.9E-06, # of iterations =  18

     total cpu time spent up to now is       21.4 secs

     total energy              =     -82.25356205 Ry
     Harris-Foulkes estimate   =     -83.63778213 Ry
     estimated scf accuracy    <       2.07062237 Ry
     electrostatic embedding   =       0.00000000 Ry
     electrolyte free energy   =       0.00465756 Ry
     correction to one-el term =       0.00000000 Ry

     iteration #  2     ecut=    30.00 Ry     beta=0.70
     Davidson diagonalization with overlap
     ethr =  6.90E-03,  avg # of iterations =  3.0

     negative rho (up, down):  1.550E-04 0.000E+00

     add environment contribution to local potential
     polarization accuracy = 5.4E-06, # of iterations =  19

     total cpu time spent up to now is       27.8 secs

     total energy              =     -82.45796739 Ry
     Harris-Foulkes estimate   =     -82.81689918 Ry
     estimated scf accuracy    <       0.49768500 Ry
     electrostatic embedding   =      -0.01917757 Ry
     electrolyte free energy   =       0.00456929 Ry
     correction to one-el term =       0.05326042 Ry

     iteration #  3     ecut=    30.00 Ry     beta=0.70
     Davidson diagonalization with overlap
     ethr =  1.66E-03,  avg # of iterations =  4.0

     negative rho (up, down):  1.950E-04 0.000E+00

     add environment contribution to local potential
     polarization accuracy = 7.0E-06, # of iterations =  19

     total cpu time spent up to now is       34.1 secs

     total energy              =     -82.59721438 Ry
     Harris-Foulkes estimate   =     -83.25912838 Ry
     estimated scf accuracy    <       0.20585500 Ry
     electrostatic embedding   =      -0.01988893 Ry
     electrolyte free energy   =       0.00455888 Ry
     correction to one-el term =       0.57559305 Ry

     iteration #  4     ecut=    30.00 Ry     beta=0.70
     Davidson diagonalization with overlap
     ethr =  6.86E-04,  avg # of iterations =  4.0

     negative rho (up, down):  5.005E-05 0.000E+00

     add environment contribution to local potential
     polarization accuracy = 2.5E-06, # of iterations =  20

     total cpu time spent up to now is       40.6 secs

     total energy              =     -82.64221432 Ry
     Harris-Foulkes estimate   =     -83.44876146 Ry
     estimated scf accuracy    <       0.00852587 Ry
     electrostatic embedding   =      -0.01734243 Ry
     electrolyte free energy   =       0.00458522 Ry
     correction to one-el term =       0.81509425 Ry

     iteration #  5     ecut=    30.00 Ry     beta=0.70
     Davidson diagonalization with overlap
     ethr =  2.84E-05,  avg # of iterations =  4.0

     negative rho (up, down):  5.256E-05 0.000E+00

     add environment contribution to local potential
     polarization accuracy = 2.6E-06, # of iterations =  20

     total cpu time spent up to now is       47.2 secs

     total energy              =     -82.64597278 Ry
     Harris-Foulkes estimate   =     -83.60490037 Ry
     estimated scf accuracy    <       0.00114791 Ry
     electrostatic embedding   =      -0.01823693 Ry
     electrolyte free energy   =       0.00457289 Ry
     correction to one-el term =       0.97214770 Ry

     iteration #  6     ecut=    30.00 Ry     beta=0.70
     Davidson diagonalization with overlap
     ethr =  3.83E-06,  avg # of iterations =  3.0

     negative rho (up, down):  1.385E-04 0.000E+00

     total cpu time spent up to now is       49.1 secs

     End of self-consistent calculation

          k = 0.0000 0.0000 0.0000 ( 11060 PWs)   bands (ev):

   -23.2627 -19.6458 -18.8662 -15.3944 -15.2857 -12.8118 -11.6569 -11.2061
   -10.4484  -9.7887  -9.4675  -8.6935  -7.0551  -6.6518  -5.5919

     highest occupied level (ev):    -5.5919

!    total energy              =     -82.64611376 Ry
     Harris-Foulkes estimate   =     -83.64746706 Ry
     estimated scf accuracy    <       0.00008885 Ry

     The total energy is the sum of the following terms:

     one-electron contribution =    -292.43890631 Ry
     hartree contribution      =     149.40659981 Ry
     xc contribution           =     -25.97257407 Ry
     ewald contribution        =      85.35745671 Ry
     electrostatic embedding   =      -0.01813070 Ry
     electrolyte free energy   =       0.00457192 Ry
     correction to one-el term =       1.01486888 Ry

     convergence has been achieved in   6 iterations

     Forces acting on atoms (cartesian axes, Ry/au):

     atom    1 type  1   force =    -0.04645357    0.00000193    0.00000330
     atom    2 type  2   force =    -0.00609204   -0.06238717    0.00002593
     atom    3 type  2   force =     0.02085387    0.01693438   -0.00004622
     atom    4 type  2   force =     0.00617041   -0.00000292    0.00000559
     atom    5 type  2   force =     0.02086146   -0.01692408    0.00000627
     atom    6 type  2   force =    -0.00610842    0.06238790    0.00001152
     atom    7 type  3   force =     0.00204413    0.00195369    0.00000919
     atom    8 type  3   force =     0.00532553   -0.00365979   -0.00000813
     atom    9 type  3   force =    -0.00397404    0.00000287    0.00002938
     atom   10 type  3   force =     0.00533329    0.00364743   -0.00002474
     atom   11 type  3   force =     0.00203938   -0.00195424   -0.00001209

     Total force =     0.107765     Total SCF correction =     0.015437
     SCF correction compared to forces is large: reduce conv_thr to get better values

     Writing output data file pwscf.save
 
     init_run     :     14.89s CPU     15.16s WALL (       1 calls)
     electrons    :     32.68s CPU     33.92s WALL (       1 calls)
     forces       :     18.74s CPU     18.83s WALL (       1 calls)

     Called by init_run:
     wfcinit      :      0.13s CPU      0.13s WALL (       1 calls)
     potinit      :      0.94s CPU      0.96s WALL (       1 calls)

     Called by electrons:
     c_bands      :      1.37s CPU      1.38s WALL (       6 calls)
     sum_band     :      2.45s CPU      2.69s WALL (       6 calls)
     v_of_rho     :      3.85s CPU      3.96s WALL (       7 calls)
     newd         :      1.33s CPU      1.54s WALL (       7 calls)
     mix_rho      :      0.35s CPU      0.35s WALL (       6 calls)

     Called by c_bands:
     init_us_2    :      0.05s CPU      0.05s WALL (      13 calls)
     regterg      :      1.26s CPU      1.28s WALL (       6 calls)

     Called by sum_band:
     sum_band:bec :      0.00s CPU      0.00s WALL (       6 calls)
     addusdens    :      1.65s CPU      1.88s WALL (       6 calls)

     Called by *egterg:
     h_psi        :      1.20s CPU      1.20s WALL (      27 calls)
     s_psi        :      0.04s CPU      0.04s WALL (      27 calls)
     g_psi        :      0.01s CPU      0.01s WALL (      20 calls)
     rdiaghg      :      0.01s CPU      0.01s WALL (      26 calls)

     Called by h_psi:
     h_psi:pot    :      1.20s CPU      1.19s WALL (      27 calls)
     h_psi:calbec :      0.04s CPU      0.05s WALL (      27 calls)
     vloc_psi     :      1.11s CPU      1.10s WALL (      27 calls)
     add_vuspsi   :      0.05s CPU      0.04s WALL (      27 calls)

     General routines
     calbec       :      0.05s CPU      0.07s WALL (      37 calls)
     fft          :      8.96s CPU      9.28s WALL (     397 calls)
     ffts         :      0.04s CPU      0.05s WALL (      13 calls)
     fftw         :      0.88s CPU      0.86s WALL (     364 calls)
     interpolate  :      0.41s CPU      0.44s WALL (      13 calls)
     davcio       :      0.00s CPU      0.00s WALL (       1 calls)
 
     Parallel routines
     fft_scatter  :      2.49s CPU      2.68s WALL (     774 calls)
 
     Environ routines
     calc_eelect  :      0.02s CPU      0.03s WALL (      12 calls)
     calc_velect  :     19.24s CPU     19.72s WALL (      10 calls)
     dielectric   :      0.30s CPU      0.33s WALL (       8 calls)
     electrolyte  :      0.01s CPU      0.01s WALL (       2 calls)
     calc_felect  :      0.22s CPU      0.22s WALL (       1 calls)
 
     PWSCF        :  1m 6.48s CPU     1m 8.09s WALL

 
   This run was terminated on:  11:13: 5  15Dec2017            

=------------------------------------------------------------------------------=
   JOB DONE.
=------------------------------------------------------------------------------=

%%%% IONS %%%%%%%%%%%%%%%%%%%%%%%%%%%%%%%%%%%%%%%%%%%%%%%%%%%%%%%%%%%%%%%%%%%%%%
 number of ions             =         11
 ionic center of charge     =      0.0072664     0.0000000     0.0001166
 total ionic charge         =    -30.0000000
 ionic dipole               =      0.0000000     0.0000000     0.0000000
 ionic quadrupole (pc)      =   -131.0719095  -146.7987094    -0.0000314
 ionic quadrupole (gauss)   =   -134.8219095  -150.5487094    -3.7500314
 ion   1 type =  1 coordinates =     -2.4454071     0.0000002     0.0030272
 ion   2 type =  2 coordinates =     -1.2331440     2.2473584     0.0020749
 ion   3 type =  2 coordinates =      1.3781229     2.2851921     0.0014627
 ion   4 type =  2 coordinates =      2.6939354     0.0000002     0.0013189
 ion   5 type =  2 coordinates =      1.3781232    -2.2851919     0.0026521
 ion   6 type =  2 coordinates =     -1.2331437    -2.2473574     0.0035464
 ion   7 type =  3 coordinates =     -2.4127312     3.9381412     0.0017094
 ion   8 type =  3 coordinates =      2.3590962     4.0987221     0.0008035
 ion   9 type =  3 coordinates =      4.7585861    -0.0000002     0.0000199
 ion  10 type =  3 coordinates =      2.3590968    -4.0987217     0.0032074
 ion  11 type =  3 coordinates =     -2.4127303    -3.9381403     0.0048805

%%%% SYSTEM %%%%%%%%%%%%%%%%%%%%%%%%%%%%%%%%%%%%%%%%%%%%%%%%%%%%%%%%%%%%%%%%%%%%
 system is built from all present ionic types
 system defined dimension   =  0 
 system defined axis        =  3 
 system center              =      0.0072664     0.0000000     0.0001166 
 system width               =      0.2348011 

%%%% DIELECTRIC %%%%%%%%%%%%%%%%%%%%%%%%%%%%%%%%%%%%%%%%%%%%%%%%%%%%%%%%%%%%%%%%%
 dielectric build on homogeneous background
 environment bulk permitt.  =     20.0000000 
 dielectric flags
 need gradient              =  F 
 need factor depend. sqrt   =  T 
 total dielectric charge    =      0.0000000

%%%% BOUNDARY %%%%%%%%%%%%%%%%%%%%%%%%%%%%%%%%%%%%%%%%%%%%%%%%%%%%%%%%%%%%%%%%%%
 boundary mode              = ionic                
 boundary is built from soft-spheres centered on ionic positions
 solvent-dependent scaling  =      1.5000000 
 softness parameter         =      0.5000000 
 volume of the QM region    =   1716.7618872 
 surface of the QM region   =    717.2136638 

%%%% ELECTROLYTE %%%%%%%%%%%%%%%%%%%%%%%%%%%%%%%%%%%%%%%%%%%%%%%%%%%%%%%%%%%%%%%%
 number electrol. species   =    2
 solvent temperature        =   300.0
 Debye length / sqrt(eps)   =      0.2301070
 electrolyte species    1
 bulk concentration  (a.u.) =      0.7139E-03
 bulk concentration (mol/L) =      8.0000000
 ionic charge               =    1.00
 electrolyte species    2
 bulk concentration  (a.u.) =      0.7139E-03
 bulk concentration (mol/L) =      8.0000000
 ionic charge               =   -1.00
 electrolyte flags
 linearized                 =  T
 total electrolyte charge   =      0.0000000

%%%% ELECTRONS %%%%%%%%%%%%%%%%%%%%%%%%%%%%%%%%%%%%%%%%%%%%%%%%%%%%%%%%%%%%%%%%%
 number of electrons        =         30
 total electronic charge    =     30.0000000
 number of spin components  =  1

%%%% BOUNDARY %%%%%%%%%%%%%%%%%%%%%%%%%%%%%%%%%%%%%%%%%%%%%%%%%%%%%%%%%%%%%%%%%%
 boundary mode              = electronic           
 boundary is built as a function of a smooth density
 function type              =  2 
 using the modified SCCS function with parameters 
 rhomax                     =      0.0050000 
 rhomin                     =      0.0001000 
 volume of the QM region    =   1074.1872471 
 surface of the QM region   =    527.4241024 

%%%% DIELECTRIC %%%%%%%%%%%%%%%%%%%%%%%%%%%%%%%%%%%%%%%%%%%%%%%%%%%%%%%%%%%%%%%%%
 dielectric build on homogeneous background
 environment bulk permitt.  =     20.0000000 
 dielectric flags
 need gradient              =  F 
 need factor depend. sqrt   =  T 
 total dielectric charge    =      0.0000000

%%%% COMPUTE ELECTROSTATIC POTENTIAL %%%%%%%%%%%%%%%%%%%%%%%%%%%%%%%%%%%%%%%%%%%
 Iteration #          1
  pAp =    126.696321741757       rzold =    120.820643240974       alpha = 
  0.953623921989156     
 delta_qm =   0.283497E-01 delta_en =   0.138880E+04 tol =   0.100000E-04
 Iteration #          2
  pAp =    34121.3215822191       rzold =    419.038528025539       alpha = 
  1.228084108687934E-002
 delta_qm =   0.539328E-02 delta_en =   0.502631E+02 tol =   0.100000E-04
 Iteration #          3
  pAp =    41.1740752965536       rzold =    3.11077250629054       alpha = 
  7.555172724306272E-002
 delta_qm =   0.279446E-02 delta_en =   0.134940E+02 tol =   0.100000E-04
 Iteration #          4
  pAp =    4.74890674276984       rzold =   0.504725248075892       alpha = 
  0.106282408860593     
 delta_qm =   0.180885E-02 delta_en =   0.565390E+01 tol =   0.100000E-04
 Iteration #          5
  pAp =    4.76787432314463       rzold =   0.266265079135888       alpha = 
  5.584565806262158E-002
 delta_qm =   0.118493E-02 delta_en =   0.242621E+01 tol =   0.100000E-04
 Iteration #          6
  pAp =    1.18597348351741       rzold =   9.348858697969989E-002  alpha = 
  7.882856427989254E-002
 delta_qm =   0.696005E-03 delta_en =   0.837084E+00 tol =   0.100000E-04
 Iteration #          7
  pAp =   0.160203730406505       rzold =   2.050999676976684E-002  alpha = 
  0.128024464335033     
 delta_qm =   0.375115E-03 delta_en =   0.243149E+00 tol =   0.100000E-04
 Iteration #          8
  pAp =   0.141353066620601       rzold =   7.229625024015126E-003  alpha = 
  5.114586614112755E-002
 delta_qm =   0.304881E-03 delta_en =   0.160621E+00 tol =   0.100000E-04
 Iteration #          9
  pAp =   2.512245160484522E-002  rzold =   3.251147158974584E-003  alpha = 
  0.129412017987431     
 delta_qm =   0.165455E-03 delta_en =   0.473047E-01 tol =   0.100000E-04
 Iteration #         10
  pAp =   4.428328492152009E-003  rzold =   5.677902836570345E-004  alpha = 
  0.128217742803698     
 delta_qm =   0.114722E-03 delta_en =   0.227425E-01 tol =   0.100000E-04
 Iteration #         11
  pAp =   2.703996941714495E-003  rzold =   3.212304040657253E-004  alpha = 
  0.118798360719316     
 delta_qm =   0.792706E-04 delta_en =   0.108585E-01 tol =   0.100000E-04
 Iteration #         12
  pAp =   1.364051801457807E-003  rzold =   1.358772834262049E-004  alpha = 
  9.961299364216843E-002
 delta_qm =   0.596598E-04 delta_en =   0.615046E-02 tol =   0.100000E-04
 Iteration #         13
  pAp =   2.204845735486310E-003  rzold =   1.482557017673409E-004  alpha = 
  6.724085017886344E-002
 delta_qm =   0.406581E-04 delta_en =   0.285653E-02 tol =   0.100000E-04
 Iteration #         14
  pAp =   5.488399816047131E-005  rzold =   1.892042435804784E-005  alpha = 
  0.344734804172389     
 delta_qm =   0.167586E-04 delta_en =   0.485311E-03 tol =   0.100000E-04
 Iteration #         15
  pAp =   1.226401741646543E-004  rzold =   6.370138764572061E-006  alpha = 
  5.194169698438000E-002
 delta_qm =   0.147329E-04 delta_en =   0.375078E-03 tol =   0.100000E-04
 Iteration #         16
  pAp =   3.745815454386875E-004  rzold =   1.569163973485387E-005  alpha = 
  4.189111803806769E-002
 delta_qm =   0.893166E-05 delta_en =   0.137851E-03 tol =   0.100000E-04
 Iteration #         17
  pAp =   5.532930224571879E-006  rzold =   1.244296613048933E-006  alpha = 
  0.224889265279902     
 delta_qm =   0.418170E-05 delta_en =   0.302168E-04 tol =   0.100000E-04
 Iteration #         18
  pAp =   6.852676697820827E-007  rzold =   1.905581723773452E-007  alpha = 
  0.278078451356013     
 delta_qm =   0.199663E-05 delta_en =   0.688876E-05 tol =   0.100000E-04
 Charges are converged, exit!

%%%% ELECTRONS %%%%%%%%%%%%%%%%%%%%%%%%%%%%%%%%%%%%%%%%%%%%%%%%%%%%%%%%%%%%%%%%%
 number of electrons        =         30
 total electronic charge    =     30.0000000
 number of spin components  =  1

%%%% BOUNDARY %%%%%%%%%%%%%%%%%%%%%%%%%%%%%%%%%%%%%%%%%%%%%%%%%%%%%%%%%%%%%%%%%%
 boundary mode              = electronic           
 boundary is built as a function of a smooth density
 function type              =  2 
 using the modified SCCS function with parameters 
 rhomax                     =      0.0050000 
 rhomin                     =      0.0001000 
 volume of the QM region    =   1023.3487290 
 surface of the QM region   =    515.6853371 

%%%% DIELECTRIC %%%%%%%%%%%%%%%%%%%%%%%%%%%%%%%%%%%%%%%%%%%%%%%%%%%%%%%%%%%%%%%%%
 dielectric build on homogeneous background
 environment bulk permitt.  =     20.0000000 
 dielectric flags
 need gradient              =  F 
 need factor depend. sqrt   =  T 
 total dielectric charge    =     -0.0020730

%%%% COMPUTE ELECTROSTATIC POTENTIAL %%%%%%%%%%%%%%%%%%%%%%%%%%%%%%%%%%%%%%%%%%%
 Warning: bad guess with residual norm =   0.849229E+03, reset to no guess
 Iteration #          1
  pAp =    125.618351890196       rzold =    122.301078954705       alpha = 
  0.973592449784799     
 delta_qm =   0.216781E-01 delta_en =   0.812059E+03 tol =   0.100000E-04
 Iteration #          2
  pAp =    19262.6434117745       rzold =    233.762923236848       alpha = 
  1.213555783802537E-002
 delta_qm =   0.555000E-02 delta_en =   0.532267E+02 tol =   0.100000E-04
 Iteration #          3
  pAp =    93.6560501237430       rzold =    4.11134750704939       alpha = 
  4.389836536579612E-002
 delta_qm =   0.322443E-02 delta_en =   0.179659E+02 tol =   0.100000E-04
 Iteration #          4
  pAp =    13.8261732371823       rzold =    1.02852477978914       alpha = 
  7.438969280546559E-002
 delta_qm =   0.208877E-02 delta_en =   0.753921E+01 tol =   0.100000E-04
 Iteration #          5
  pAp =    2.71132879197785       rzold =   0.280770061781086       alpha = 
  0.103554413102467     
 delta_qm =   0.108814E-02 delta_en =   0.204605E+01 tol =   0.100000E-04
 Iteration #          6
  pAp =   0.523314798414251       rzold =   5.582398553461414E-002  alpha = 
  0.106673814124447     
 delta_qm =   0.600224E-03 delta_en =   0.622544E+00 tol =   0.100000E-04
 Iteration #          7
  pAp =   0.114783049859376       rzold =   1.336857563974807E-002  alpha = 
  0.116468203764636     
 delta_qm =   0.331347E-03 delta_en =   0.189718E+00 tol =   0.100000E-04
 Iteration #          8
  pAp =   9.076919921898143E-002  rzold =   4.724200619200081E-003  alpha = 
  5.204629609877806E-002
 delta_qm =   0.261789E-03 delta_en =   0.118426E+00 tol =   0.100000E-04
 Iteration #          9
  pAp =   1.930254151941924E-002  rzold =   2.209174961053035E-003  alpha = 
  0.114449952553165     
 delta_qm =   0.146291E-03 delta_en =   0.369811E-01 tol =   0.100000E-04
 Iteration #         10
  pAp =   2.541060207348631E-003  rzold =   3.344260672040766E-004  alpha = 
  0.131608871854721     
 delta_qm =   0.108932E-03 delta_en =   0.205046E-01 tol =   0.100000E-04
 Iteration #         11
  pAp =   2.324701969045582E-003  rzold =   2.755349016602363E-004  alpha = 
  0.118524828270076     
 delta_qm =   0.746890E-04 delta_en =   0.963957E-02 tol =   0.100000E-04
 Iteration #         12
  pAp =   3.295169553160989E-003  rzold =   1.848590195433369E-004  alpha = 
  5.610000230974622E-002
 delta_qm =   0.593780E-04 delta_en =   0.609250E-02 tol =   0.100000E-04
 Iteration #         13
  pAp =   5.145267702280247E-004  rzold =   7.271384142222488E-005  alpha = 
  0.141321784656608     
 delta_qm =   0.355399E-04 delta_en =   0.218261E-02 tol =   0.100000E-04
 Iteration #         14
  pAp =   5.332999943399044E-005  rzold =   1.548590849250688E-005  alpha = 
  0.290378935999703     
 delta_qm =   0.161221E-04 delta_en =   0.449144E-03 tol =   0.100000E-04
 Iteration #         15
  pAp =   1.664242564938231E-004  rzold =   5.831214813466704E-006  alpha = 
  3.503825065117915E-002
 delta_qm =   0.141591E-04 delta_en =   0.346429E-03 tol =   0.100000E-04
 Iteration #         16
  pAp =   1.548568488808236E-004  rzold =   9.451873693746601E-006  alpha = 
  6.103620060757324E-002
 delta_qm =   0.885539E-05 delta_en =   0.135506E-03 tol =   0.100000E-04
 Iteration #         17
  pAp =   4.343197517516466E-006  rzold =   9.961532712674296E-007  alpha = 
  0.229359421773903     
 delta_qm =   0.423155E-05 delta_en =   0.309416E-04 tol =   0.100000E-04
 Iteration #         18
  pAp =   4.341653571315899E-007  rzold =   1.401658449748371E-007  alpha = 
  0.322839772157028     
 delta_qm =   0.255714E-05 delta_en =   0.112993E-04 tol =   0.100000E-04
 Iteration #         19
  pAp =   2.446172389799325E-007  rzold =   5.224707968204451E-008  alpha = 
  0.213587071376971     
 delta_qm =   0.177550E-05 delta_en =   0.544737E-05 tol =   0.100000E-04
 Charges are converged, exit!

%%%% ELECTRONS %%%%%%%%%%%%%%%%%%%%%%%%%%%%%%%%%%%%%%%%%%%%%%%%%%%%%%%%%%%%%%%%%
 number of electrons        =         30
 total electronic charge    =     30.0000000
 number of spin components  =  1

%%%% BOUNDARY %%%%%%%%%%%%%%%%%%%%%%%%%%%%%%%%%%%%%%%%%%%%%%%%%%%%%%%%%%%%%%%%%%
 boundary mode              = electronic           
 boundary is built as a function of a smooth density
 function type              =  2 
 using the modified SCCS function with parameters 
 rhomax                     =      0.0050000 
 rhomin                     =      0.0001000 
 volume of the QM region    =    991.1947838 
 surface of the QM region   =    508.2730292 

%%%% DIELECTRIC %%%%%%%%%%%%%%%%%%%%%%%%%%%%%%%%%%%%%%%%%%%%%%%%%%%%%%%%%%%%%%%%%
 dielectric build on homogeneous background
 environment bulk permitt.  =     20.0000000 
 dielectric flags
 need gradient              =  F 
 need factor depend. sqrt   =  T 
 total dielectric charge    =     -0.0011398

%%%% COMPUTE ELECTROSTATIC POTENTIAL %%%%%%%%%%%%%%%%%%%%%%%%%%%%%%%%%%%%%%%%%%%
 Warning: bad guess with residual norm =   0.521370E+03, reset to no guess
 Iteration #          1
  pAp =    124.809994513154       rzold =    122.825585676850       alpha = 
  0.984100561465097     
 delta_qm =   0.171376E-01 delta_en =   0.507510E+03 tol =   0.100000E-04
 Iteration #          2
  pAp =    11978.4285368837       rzold =    142.952023142265       alpha = 
  1.193412163390967E-002
 delta_qm =   0.455063E-02 delta_en =   0.357839E+02 tol =   0.100000E-04
 Iteration #          3
  pAp =    50.6585012288177       rzold =    2.41052502328998       alpha = 
  4.758382038193274E-002
 delta_qm =   0.264867E-02 delta_en =   0.121227E+02 tol =   0.100000E-04
 Iteration #          4
  pAp =    9.82155085046814       rzold =   0.660854042487809       alpha = 
  6.728611932567753E-002
 delta_qm =   0.172133E-02 delta_en =   0.512000E+01 tol =   0.100000E-04
 Iteration #          5
  pAp =    1.85354631706475       rzold =   0.190307622146108       alpha = 
  0.102672169772092     
 delta_qm =   0.900853E-03 delta_en =   0.140234E+01 tol =   0.100000E-04
 Iteration #          6
  pAp =   0.345845007901620       rzold =   3.862621374077186E-002  alpha = 
  0.111686486311115     
 delta_qm =   0.492601E-03 delta_en =   0.419309E+00 tol =   0.100000E-04
 Iteration #          7
  pAp =   8.049203389305562E-002  rzold =   9.246437836596106E-003  alpha = 
  0.114873949500161     
 delta_qm =   0.281629E-03 delta_en =   0.137056E+00 tol =   0.100000E-04
 Iteration #          8
  pAp =   5.902777322424851E-002  rzold =   3.161828754238265E-003  alpha = 
  5.356510302745745E-002
 delta_qm =   0.226339E-03 delta_en =   0.885243E-01 tol =   0.100000E-04
 Iteration #          9
  pAp =   1.426275668052598E-002  rzold =   1.595136960103510E-003  alpha = 
  0.111839316608512     
 delta_qm =   0.130596E-03 delta_en =   0.294714E-01 tol =   0.100000E-04
 Iteration #         10
  pAp =   2.028204166369863E-003  rzold =   2.682614935608843E-004  alpha = 
  0.132265527311792     
 delta_qm =   0.970424E-04 delta_en =   0.162730E-01 tol =   0.100000E-04
 Iteration #         11
  pAp =   1.674053913916460E-003  rzold =   2.129225300058136E-004  alpha = 
  0.127189768642325     
 delta_qm =   0.647326E-04 delta_en =   0.724085E-02 tol =   0.100000E-04
 Iteration #         12
  pAp =   1.902131318153351E-003  rzold =   1.079336008850703E-004  alpha = 
  5.674350653658111E-002
 delta_qm =   0.532120E-04 delta_en =   0.489287E-02 tol =   0.100000E-04
 Iteration #         13
  pAp =   4.183259372787984E-004  rzold =   5.464490270973789E-005  alpha = 
  0.130627574912524     
 delta_qm =   0.326024E-04 delta_en =   0.183672E-02 tol =   0.100000E-04
 Iteration #         14
  pAp =   4.415580109904975E-005  rzold =   1.259344822197458E-005  alpha = 
  0.285204840780153     
 delta_qm =   0.143295E-04 delta_en =   0.354816E-03 tol =   0.100000E-04
 Iteration #         15
  pAp =   2.004955194129396E-004  rzold =   5.161388512067580E-006  alpha = 
  2.574316137926858E-002
 delta_qm =   0.137501E-04 delta_en =   0.326705E-03 tol =   0.100000E-04
 Iteration #         16
  pAp =   6.384456510925316E-005  rzold =   5.420529345615809E-006  alpha = 
  8.490196990675715E-002
 delta_qm =   0.853326E-05 delta_en =   0.125827E-03 tol =   0.100000E-04
 Iteration #         17
  pAp =   3.551449307236455E-006  rzold =   8.028688693119113E-007  alpha = 
  0.226067951378605     
 delta_qm =   0.459493E-05 delta_en =   0.364839E-04 tol =   0.100000E-04
 Iteration #         18
  pAp =   3.497914583138805E-007  rzold =   1.281929827356947E-007  alpha = 
  0.366484028379740     
 delta_qm =   0.286255E-05 delta_en =   0.141596E-04 tol =   0.100000E-04
 Iteration #         19
  pAp =   2.148176419449806E-007  rzold =   5.230961465669212E-008  alpha = 
  0.243507070383399     
 delta_qm =   0.201668E-05 delta_en =   0.702776E-05 tol =   0.100000E-04
 Charges are converged, exit!

%%%% ELECTRONS %%%%%%%%%%%%%%%%%%%%%%%%%%%%%%%%%%%%%%%%%%%%%%%%%%%%%%%%%%%%%%%%%
 number of electrons        =         30
 total electronic charge    =     30.0000000
 number of spin components  =  1

%%%% BOUNDARY %%%%%%%%%%%%%%%%%%%%%%%%%%%%%%%%%%%%%%%%%%%%%%%%%%%%%%%%%%%%%%%%%%
 boundary mode              = electronic           
 boundary is built as a function of a smooth density
 function type              =  2 
 using the modified SCCS function with parameters 
 rhomax                     =      0.0050000 
 rhomin                     =      0.0001000 
 volume of the QM region    =    971.9583037 
 surface of the QM region   =    503.6505525 

%%%% DIELECTRIC %%%%%%%%%%%%%%%%%%%%%%%%%%%%%%%%%%%%%%%%%%%%%%%%%%%%%%%%%%%%%%%%%
 dielectric build on homogeneous background
 environment bulk permitt.  =     20.0000000 
 dielectric flags
 need gradient              =  F 
 need factor depend. sqrt   =  T 
 total dielectric charge    =     -0.0006157

%%%% COMPUTE ELECTROSTATIC POTENTIAL %%%%%%%%%%%%%%%%%%%%%%%%%%%%%%%%%%%%%%%%%%%
 Warning: bad guess with residual norm =   0.401141E+03, reset to no guess
 Iteration #          1
  pAp =    124.119147727489       rzold =    122.600096341447       alpha = 
  0.987761345337486     
 delta_qm =   0.150792E-01 delta_en =   0.392917E+03 tol =   0.100000E-04
 Iteration #          2
  pAp =    8738.58674405960       rzold =    104.752815065089       alpha = 
  1.198738630549142E-002
 delta_qm =   0.471641E-02 delta_en =   0.384385E+02 tol =   0.100000E-04
 Iteration #          3
  pAp =    59.5595081297105       rzold =    2.61794506053256       alpha = 
  4.395511552632574E-002
 delta_qm =   0.272895E-02 delta_en =   0.128687E+02 tol =   0.100000E-04
 Iteration #          4
  pAp =    8.92812874731131       rzold =   0.644005506753572       alpha = 
  7.213219309225496E-002
 delta_qm =   0.174174E-02 delta_en =   0.524214E+01 tol =   0.100000E-04
 Iteration #          5
  pAp =    1.92874242168160       rzold =   0.196720814584490       alpha = 
  0.101994342206138     
 delta_qm =   0.909731E-03 delta_en =   0.143011E+01 tol =   0.100000E-04
 Iteration #          6
  pAp =   0.319825581176828       rzold =   3.769311392222838E-002  alpha = 
  0.117855219033865     
 delta_qm =   0.480029E-03 delta_en =   0.398179E+00 tol =   0.100000E-04
 Iteration #          7
  pAp =   7.754648475933844E-002  rzold =   8.665320806606345E-003  alpha = 
  0.111743566887638     
 delta_qm =   0.280221E-03 delta_en =   0.135689E+00 tol =   0.100000E-04
 Iteration #          8
  pAp =   4.762169930019310E-002  rzold =   2.796868412899712E-003  alpha = 
  5.873096621918259E-002
 delta_qm =   0.223518E-03 delta_en =   0.863316E-01 tol =   0.100000E-04
 Iteration #          9
  pAp =   1.719717274248535E-002  rzold =   1.674493727575944E-003  alpha = 
  9.737029177122428E-002
 delta_qm =   0.132370E-03 delta_en =   0.302776E-01 tol =   0.100000E-04
 Iteration #         10
  pAp =   1.922581385578740E-003  rzold =   2.624178638442928E-004  alpha = 
  0.136492460507881     
 delta_qm =   0.984738E-04 delta_en =   0.167566E-01 tol =   0.100000E-04
 Iteration #         11
  pAp =   1.715511143220756E-003  rzold =   2.218675435702385E-004  alpha = 
  0.129330284123773     
 delta_qm =   0.644489E-04 delta_en =   0.717753E-02 tol =   0.100000E-04
 Iteration #         12
  pAp =   1.746525187557225E-003  rzold =   9.733532006172951E-005  alpha = 
  5.573084244943952E-002
 delta_qm =   0.539045E-04 delta_en =   0.502104E-02 tol =   0.100000E-04
 Iteration #         13
  pAp =   3.675500493308397E-004  rzold =   5.053263733643288E-005  alpha = 
  0.137485051160876     
 delta_qm =   0.329499E-04 delta_en =   0.187608E-02 tol =   0.100000E-04
 Iteration #         14
  pAp =   5.228047366656306E-005  rzold =   1.374977253689866E-005  alpha = 
  0.263000152305288     
 delta_qm =   0.156159E-04 delta_en =   0.421381E-03 tol =   0.100000E-04
 Iteration #         15
  pAp =   3.785625192212023E-005  rzold =   3.212672731027770E-006  alpha = 
  8.486505049778939E-002
 delta_qm =   0.124647E-04 delta_en =   0.268478E-03 tol =   0.100000E-04
 Iteration #         16
  pAp =   4.240388331368410E-004  rzold =   1.166810141221933E-005  alpha = 
  2.751658692649486E-002
 delta_qm =   0.968122E-05 delta_en =   0.161959E-03 tol =   0.100000E-04
 Iteration #         17
  pAp =   4.029343042417663E-006  rzold =   8.911537965224633E-007  alpha = 
  0.221166028094684     
 delta_qm =   0.571341E-05 delta_en =   0.564072E-04 tol =   0.100000E-04
 Iteration #         18
  pAp =   4.247221829250641E-007  rzold =   1.675847433639287E-007  alpha = 
  0.394574971831637     
 delta_qm =   0.359727E-05 delta_en =   0.223609E-04 tol =   0.100000E-04
 Iteration #         19
  pAp =   3.390164196548440E-007  rzold =   8.387165754764705E-008  alpha = 
  0.247397036500585     
 delta_qm =   0.249260E-05 delta_en =   0.107362E-04 tol =   0.100000E-04
 Iteration #         20
  pAp =   1.538364276864293E-007  rzold =   4.779773791385775E-008  alpha = 
  0.310704939218205     
 delta_qm =   0.119274E-05 delta_en =   0.245828E-05 tol =   0.100000E-04
 Charges are converged, exit!

%%%% ELECTRONS %%%%%%%%%%%%%%%%%%%%%%%%%%%%%%%%%%%%%%%%%%%%%%%%%%%%%%%%%%%%%%%%%
 number of electrons        =         30
 total electronic charge    =     30.0000000
 number of spin components  =  1

%%%% BOUNDARY %%%%%%%%%%%%%%%%%%%%%%%%%%%%%%%%%%%%%%%%%%%%%%%%%%%%%%%%%%%%%%%%%%
 boundary mode              = electronic           
 boundary is built as a function of a smooth density
 function type              =  2 
 using the modified SCCS function with parameters 
 rhomax                     =      0.0050000 
 rhomin                     =      0.0001000 
 volume of the QM region    =    969.9370862 
 surface of the QM region   =    503.5483128 

%%%% DIELECTRIC %%%%%%%%%%%%%%%%%%%%%%%%%%%%%%%%%%%%%%%%%%%%%%%%%%%%%%%%%%%%%%%%%
 dielectric build on homogeneous background
 environment bulk permitt.  =     20.0000000 
 dielectric flags
 need gradient              =  F 
 need factor depend. sqrt   =  T 
 total dielectric charge    =      0.0003646

%%%% COMPUTE ELECTROSTATIC POTENTIAL %%%%%%%%%%%%%%%%%%%%%%%%%%%%%%%%%%%%%%%%%%%
 Warning: bad guess with residual norm =   0.367782E+03, reset to no guess
 Iteration #          1
  pAp =    124.111951751100       rzold =    122.722982823110       alpha = 
  0.988808741556373     
 delta_qm =   0.144514E-01 delta_en =   0.360881E+03 tol =   0.100000E-04
 Iteration #          2
  pAp =    7850.59943712818       rzold =    94.3372790037167       alpha = 
  1.201657016884129E-002
 delta_qm =   0.472087E-02 delta_en =   0.385113E+02 tol =   0.100000E-04
 Iteration #          3
  pAp =    62.1026600561089       rzold =    2.65332611522642       alpha = 
  4.272483840191667E-002
 delta_qm =   0.272391E-02 delta_en =   0.128212E+02 tol =   0.100000E-04
 Iteration #          4
  pAp =    8.45035592083129       rzold =   0.625764200995265       alpha = 
  7.405181590667324E-002
 delta_qm =   0.172219E-02 delta_en =   0.512511E+01 tol =   0.100000E-04
 Iteration #          5
  pAp =    1.90097364035459       rzold =   0.192724051185493       alpha = 
  0.101381758849399     
 delta_qm =   0.898709E-03 delta_en =   0.139567E+01 tol =   0.100000E-04
 Iteration #          6
  pAp =   0.301870655680485       rzold =   3.607786592869056E-002  alpha = 
  0.119514319294676     
 delta_qm =   0.470913E-03 delta_en =   0.383200E+00 tol =   0.100000E-04
 Iteration #          7
  pAp =   7.397285757099877E-002  rzold =   8.250224071441563E-003  alpha = 
  0.111530422675953     
 delta_qm =   0.277287E-03 delta_en =   0.132863E+00 tol =   0.100000E-04
 Iteration #          8
  pAp =   4.370986073716219E-002  rzold =   2.650823927326103E-003  alpha = 
  6.064590192282102E-002
 delta_qm =   0.220349E-03 delta_en =   0.839011E-01 tol =   0.100000E-04
 Iteration #          9
  pAp =   1.793795271041265E-002  rzold =   1.669189536582751E-003  alpha = 
  9.305351416239474E-002
 delta_qm =   0.131846E-03 delta_en =   0.300383E-01 tol =   0.100000E-04
 Iteration #         10
  pAp =   1.830497437630610E-003  rzold =   2.545687895076664E-004  alpha = 
  0.139070825380220     
 delta_qm =   0.980125E-04 delta_en =   0.166000E-01 tol =   0.100000E-04
 Iteration #         11
  pAp =   1.732537138568204E-003  rzold =   2.218825490843889E-004  alpha = 
  0.128067990085197     
 delta_qm =   0.639054E-04 delta_en =   0.705698E-02 tol =   0.100000E-04
 Iteration #         12
  pAp =   1.707933098221472E-003  rzold =   9.405734236768014E-005  alpha = 
  5.507085872720963E-002
 delta_qm =   0.536513E-04 delta_en =   0.497398E-02 tol =   0.100000E-04
 Iteration #         13
  pAp =   3.394807831671049E-004  rzold =   4.800725441580765E-005  alpha = 
  0.141413761238369     
 delta_qm =   0.326636E-04 delta_en =   0.184362E-02 tol =   0.100000E-04
 Iteration #         14
  pAp =   5.351784815834764E-005  rzold =   1.371743386973200E-005  alpha = 
  0.256315123678835     
 delta_qm =   0.157062E-04 delta_en =   0.426270E-03 tol =   0.100000E-04
 Iteration #         15
  pAp =   1.764969096664156E-005  rzold =   2.896517015616760E-006  alpha = 
  0.164111486206261     
 delta_qm =   0.116361E-04 delta_en =   0.233969E-03 tol =   0.100000E-04
 Iteration #         16
  pAp =   4.562265546707657E-004  rzold =   7.166031802246996E-006  alpha = 
  1.570717821854613E-002
 delta_qm =   0.986761E-05 delta_en =   0.168255E-03 tol =   0.100000E-04
 Iteration #         17
  pAp =   4.738102993201562E-006  rzold =   9.632474985123201E-007  alpha = 
  0.203298134273238     
 delta_qm =   0.602610E-05 delta_en =   0.627503E-04 tol =   0.100000E-04
 Iteration #         18
  pAp =   4.464577050321345E-007  rzold =   1.782808100238872E-007  alpha = 
  0.399322954928183     
 delta_qm =   0.379705E-05 delta_en =   0.249136E-04 tol =   0.100000E-04
 Iteration #         19
  pAp =   3.798878844040166E-007  rzold =   9.383691586963331E-008  alpha = 
  0.247012131005042     
 delta_qm =   0.261590E-05 delta_en =   0.118246E-04 tol =   0.100000E-04
 Iteration #         20
  pAp =   1.691332746653532E-007  rzold =   5.266192051275901E-008  alpha = 
  0.311363453566164     
 delta_qm =   0.123311E-05 delta_en =   0.262751E-05 tol =   0.100000E-04
 Charges are converged, exit!

%%%% ELECTRONS %%%%%%%%%%%%%%%%%%%%%%%%%%%%%%%%%%%%%%%%%%%%%%%%%%%%%%%%%%%%%%%%%
 number of electrons        =         30
 total electronic charge    =     30.0000000
 number of spin components  =  1

%%%% BOUNDARY %%%%%%%%%%%%%%%%%%%%%%%%%%%%%%%%%%%%%%%%%%%%%%%%%%%%%%%%%%%%%%%%%%
 boundary mode              = electronic           
 boundary is built as a function of a smooth density
 function type              =  2 
 using the modified SCCS function with parameters 
 rhomax                     =      0.0050000 
 rhomin                     =      0.0001000 
 volume of the QM region    =    969.9370862 
 surface of the QM region   =    503.5483128 

%%%% DIELECTRIC %%%%%%%%%%%%%%%%%%%%%%%%%%%%%%%%%%%%%%%%%%%%%%%%%%%%%%%%%%%%%%%%%
 dielectric build on homogeneous background
 environment bulk permitt.  =     20.0000000 
 dielectric flags
 need gradient              =  F 
 need factor depend. sqrt   =  T 
 total dielectric charge    =      0.0004001
