
     Program PWSCF v.6.7MaX starts on 22Jan2021 at 10:32:32 

     This program is part of the open-source Quantum ESPRESSO suite
     for quantum simulation of materials; please cite
         "P. Giannozzi et al., J. Phys.:Condens. Matter 21 395502 (2009);
         "P. Giannozzi et al., J. Phys.:Condens. Matter 29 465901 (2017);
          URL http://www.quantum-espresso.org", 
     in publications or presentations arising from this work. More details at
     http://www.quantum-espresso.org/quote

     Parallel version (MPI), running on     1 processors

     MPI processes distributed on     1 nodes
     Reading input from pw.in

     Current dimensions of program PWSCF are:
     Max number of different atomic species (ntypx) = 10
     Max number of k-points (npk) =  40000
     Max angular momentum in pseudopotentials (lmaxx) =  3
     file N.pbe-rrkjus.UPF: wavefunction(s)  2S renormalized
     file C.pbe-rrkjus.UPF: wavefunction(s)  2S 2P renormalized
     file H.pbe-rrkjus.UPF: wavefunction(s)  1S renormalized

     gamma-point specific algorithms are used

     Subspace diagonalization in iterative solution of the eigenvalue problem:
     a serial algorithm will be used


     G-vector sticks info
     --------------------
     sticks:   dense  smooth     PW     G-vecs:    dense   smooth      PW
     Sum        9549    3809    949               701475   177509   22119



     bravais-lattice index     =            1
     lattice parameter (alat)  =      20.0000  a.u.
     unit-cell volume          =    8000.0000 (a.u.)^3
     number of atoms/cell      =           11
     number of atomic types    =            3
     number of electrons       =        30.00
     number of Kohn-Sham states=           15
     kinetic-energy cutoff     =      30.0000  Ry
     charge density cutoff     =     300.0000  Ry
     scf convergence threshold =      5.0E-04
     mixing beta               =       0.7000
     number of iterations used =            8  plain     mixing
     Exchange-correlation= SLA  PW   PBE  PBE
                           (   1   4   3   4   0   0   0)


     Environ Module
     ==============

     Plese cite
         O. Andreussi, I. Dabo and N. Marzari, J. Chem. Phys. 136, 064102 (2012)         
     in publications or presentations arising from this work.

     compensation onset threshold      =               0.1000E+03 
     static permittivity               =                    20.00 
     epsilon calculation mode          =               electronic 

     Electrostatic Setup
     -------------------
     electrostatic problem to solve    = linpb                    
     numerical solver adopted          = cg                       
     type of auxiliary density adopted = none                     
     type of core tool for poisson     = fft                      



     celldm(1)=  20.000000  celldm(2)=   0.000000  celldm(3)=   0.000000
     celldm(4)=   0.000000  celldm(5)=   0.000000  celldm(6)=   0.000000

     crystal axes: (cart. coord. in units of alat)
               a(1) = (   1.000000   0.000000   0.000000 )  
               a(2) = (   0.000000   1.000000   0.000000 )  
               a(3) = (   0.000000   0.000000   1.000000 )  

     reciprocal axes: (cart. coord. in units 2 pi/alat)
               b(1) = (  1.000000  0.000000  0.000000 )  
               b(2) = (  0.000000  1.000000  0.000000 )  
               b(3) = (  0.000000  0.000000  1.000000 )  


     PseudoPot. # 1 for N  read from file:
     /Users/gabrielmedrano/Desktop/q-e/Environ/tests/../..//pseudo/N.pbe-rrkjus.UPF
     MD5 check sum: 28c76d763763edb36c62a6ca2be9aebd
     Pseudo is Ultrasoft, Zval =  5.0
     Generated by new atomic code, or converted to UPF format
     Using radial grid of 1257 points,  4 beta functions with: 
                l(1) =   0
                l(2) =   0
                l(3) =   1
                l(4) =   1
     Q(r) pseudized with 0 coefficients 


     PseudoPot. # 2 for C  read from file:
     /Users/gabrielmedrano/Desktop/q-e/Environ/tests/../..//pseudo/C.pbe-rrkjus.UPF
     MD5 check sum: c9ac5a99bc85b198593446162950cd17
     Pseudo is Ultrasoft, Zval =  4.0
     Generated by new atomic code, or converted to UPF format
     Using radial grid of  627 points,  4 beta functions with: 
                l(1) =   0
                l(2) =   0
                l(3) =   1
                l(4) =   1
     Q(r) pseudized with 0 coefficients 


     PseudoPot. # 3 for H  read from file:
     /Users/gabrielmedrano/Desktop/q-e/Environ/tests/../..//pseudo/H.pbe-rrkjus.UPF
     MD5 check sum: 2d52a7f45632fd764c17cc6affed14c8
     Pseudo is Ultrasoft, Zval =  1.0
     Generated by new atomic code, or converted to UPF format
     Using radial grid of 1061 points,  2 beta functions with: 
                l(1) =   0
                l(2) =   0
     Q(r) pseudized with 0 coefficients 


     atomic species   valence    mass     pseudopotential
        N              5.00    14.00000     N ( 1.00)
        C              4.00    12.00000     C ( 1.00)
        H              1.00     1.00000     H ( 1.00)

     No symmetry found



   Cartesian axes

     site n.     atom                  positions (alat units)
         1           N   tau(   1) = (  -0.1222704   0.0000000   0.0001514  )
         2           C   tau(   2) = (  -0.0616572   0.1123679   0.0001037  )
         3           C   tau(   3) = (   0.0689061   0.1142596   0.0000731  )
         4           C   tau(   4) = (   0.1346968   0.0000000   0.0000659  )
         5           C   tau(   5) = (   0.0689062  -0.1142596   0.0001326  )
         6           C   tau(   6) = (  -0.0616572  -0.1123679   0.0001773  )
         7           H   tau(   7) = (  -0.1206366   0.1969071   0.0000855  )
         8           H   tau(   8) = (   0.1179548   0.2049361   0.0000402  )
         9           H   tau(   9) = (   0.2379293  -0.0000000   0.0000010  )
        10           H   tau(  10) = (   0.1179548  -0.2049361   0.0001604  )
        11           H   tau(  11) = (  -0.1206365  -0.1969070   0.0002440  )

     number of k points=     1
                       cart. coord. in units 2pi/alat
        k(    1) = (   0.0000000   0.0000000   0.0000000), wk =   2.0000000

     Dense  grid:   350738 G-vectors     FFT dimensions: ( 120, 120, 120)

     Smooth grid:    88755 G-vectors     FFT dimensions: (  72,  72,  72)

     Estimated max dynamical RAM per process >     599.84 MB

     Initial potential from superposition of free atoms

     starting charge   29.51871, renormalised to   30.00000

     negative rho (up, down):  4.533E-04 0.000E+00
     Starting wfcs are   29 randomized atomic wfcs

     total cpu time spent up to now is        6.4 secs

     Self-consistent Calculation

     iteration #  1     ecut=    30.00 Ry     beta= 0.70
     Davidson diagonalization with overlap
     ethr =  1.00E-02,  avg # of iterations =  2.0

     negative rho (up, down):  1.343E-04 0.000E+00

     add environment contribution to local potential
     polarization accuracy = 8.2E-06, # of iterations =  13

     total cpu time spent up to now is       13.9 secs

     total energy              =     -82.28198430 Ry
     estimated scf accuracy    <       2.00743679 Ry
     electrostatic embedding   =       0.00000000 Ry
     electrolyte free energy   =       0.01609534 Ry
     correction to one-el term =      -0.00000000 Ry

     iteration #  2     ecut=    30.00 Ry     beta= 0.70
     Davidson diagonalization with overlap
     ethr =  6.69E-03,  avg # of iterations =  3.0

     negative rho (up, down):  8.682E-05 0.000E+00

     add environment contribution to local potential
     polarization accuracy = 2.9E-06, # of iterations =  16

     total cpu time spent up to now is       22.2 secs

     total energy              =     -82.54583133 Ry
     estimated scf accuracy    <       0.29803280 Ry
     electrostatic embedding   =      -0.02767036 Ry
     electrolyte free energy   =       0.01048382 Ry
     correction to one-el term =       0.08066454 Ry

     iteration #  3     ecut=    30.00 Ry     beta= 0.70
     Davidson diagonalization with overlap
     ethr =  9.93E-04,  avg # of iterations =  4.0

     negative rho (up, down):  6.722E-05 0.000E+00

     add environment contribution to local potential
     polarization accuracy = 5.9E-06, # of iterations =  16

     total cpu time spent up to now is       30.4 secs

     total energy              =     -82.63274049 Ry
     estimated scf accuracy    <       0.05361161 Ry
     electrostatic embedding   =      -0.01947510 Ry
     electrolyte free energy   =       0.00647562 Ry
     correction to one-el term =       0.62577688 Ry

     iteration #  4     ecut=    30.00 Ry     beta= 0.70
     Davidson diagonalization with overlap
     ethr =  1.79E-04,  avg # of iterations =  3.0

     negative rho (up, down):  4.808E-05 0.000E+00

     add environment contribution to local potential
     polarization accuracy = 7.2E-06, # of iterations =  16

     total cpu time spent up to now is       38.5 secs

     total energy              =     -82.64576406 Ry
     estimated scf accuracy    <       0.00342852 Ry
     electrostatic embedding   =      -0.01713262 Ry
     electrolyte free energy   =       0.00461112 Ry
     correction to one-el term =       0.87179810 Ry

     iteration #  5     ecut=    30.00 Ry     beta= 0.70
     Davidson diagonalization with overlap
     ethr =  1.14E-05,  avg # of iterations =  2.0

     negative rho (up, down):  1.393E-04 0.000E+00

     the potential shift due to the Gaussian-smeared nuclei is    -0.0801 ev

     total cpu time spent up to now is       41.5 secs

     End of self-consistent calculation

          k = 0.0000 0.0000 0.0000 ( 11060 PWs)   bands (ev):

   -23.3026 -19.6188 -18.8635 -15.3984 -15.2721 -12.8006 -11.6540 -11.1925
   -10.4394  -9.8010  -9.4460  -8.6783  -7.0489  -6.6420  -5.6398

     highest occupied level (ev):    -5.6398

!    total energy              =     -82.64631300 Ry
     estimated scf accuracy    <       0.00046812 Ry

     The total energy is the sum of the following terms:
     one-electron contribution =    -292.44295800 Ry
     hartree contribution      =     149.45095078 Ry
     xc contribution           =     -25.97764752 Ry
     ewald contribution        =      85.35745758 Ry
     electrostatic embedding   =      -0.01753599 Ry
     electrolyte free energy   =       0.00424366 Ry
     correction to one-el term =       0.97917650 Ry

     WARNING: you are using the parabolic pbc correction;
              the potential shift above must be added to 
              band and Fermi energies.

     convergence has been achieved in   5 iterations
 forces lc
       1    0.0751    0.0000   -0.0000
       2    0.0315    0.0441   -0.0000
       3    0.0279    0.0297   -0.0000
       4    0.0358   -0.0000   -0.0000
       5    0.0280   -0.0297    0.0000
       6    0.0315   -0.0440    0.0000
       7    0.0022    0.0206   -0.0000
       8    0.0070    0.0128   -0.0000
       9    0.0127   -0.0000   -0.0000
      10    0.0070   -0.0128    0.0000
      11    0.0021   -0.0206    0.0000

     Forces acting on atoms (cartesian axes, Ry/au):

     atom    1 type  1   force =    -0.04642670    0.00023369   -0.00001127
     atom    2 type  2   force =    -0.00575792   -0.06083169    0.00007787
     atom    3 type  2   force =     0.01766464    0.01606856   -0.00004476
     atom    4 type  2   force =     0.00780791    0.00004423    0.00000731
     atom    5 type  2   force =     0.01739875   -0.01626912    0.00000616
     atom    6 type  2   force =    -0.00556161    0.06055800   -0.00001897
     atom    7 type  3   force =     0.00305408   -0.00092311    0.00002459
     atom    8 type  3   force =     0.00579875   -0.00127998   -0.00003883
     atom    9 type  3   force =    -0.00277721   -0.00005680    0.00002911
     atom   10 type  3   force =     0.00570640    0.00147600   -0.00002936
     atom   11 type  3   force =     0.00309290    0.00098022   -0.00000186

     Total force =     0.104328     Total SCF correction =     0.036954
     SCF correction compared to forces is large: reduce conv_thr to get better values

     Writing output data file /Users/gabrielmedrano/Desktop/q-e/Environ/tests/../..//tempdir/pwscf.save/

     init_run     :      5.93s CPU      6.40s WALL (       1 calls)
     electrons    :     35.22s CPU     35.09s WALL (       1 calls)
     forces       :      1.24s CPU      1.38s WALL (       1 calls)

     Called by init_run:
     wfcinit      :      0.15s CPU      0.14s WALL (       1 calls)
     potinit      :      2.26s CPU      2.41s WALL (       1 calls)
     hinit0       :      2.80s CPU      2.88s WALL (       1 calls)

     Called by electrons:
     c_bands      :      1.34s CPU      1.10s WALL (       5 calls)
     sum_band     :      4.80s CPU      2.77s WALL (       5 calls)
     v_of_rho     :      3.36s CPU      3.84s WALL (       6 calls)
     newd         :      1.72s CPU      2.32s WALL (       6 calls)
     mix_rho      :      0.33s CPU      0.38s WALL (       5 calls)

     Called by c_bands:
     init_us_2    :      0.04s CPU      0.04s WALL (      11 calls)
     regterg      :      1.28s CPU      1.04s WALL (       5 calls)

     Called by *egterg:
     rdiaghg      :      0.00s CPU      0.00s WALL (      19 calls)
     h_psi        :      1.18s CPU      1.06s WALL (      20 calls)
     s_psi        :      0.09s CPU      0.01s WALL (      20 calls)
     g_psi        :      0.01s CPU      0.01s WALL (      14 calls)

     Called by h_psi:
     h_psi:calbec :      0.04s CPU      0.03s WALL (      20 calls)
     vloc_psi     :      0.98s CPU      0.98s WALL (      20 calls)
     add_vuspsi   :      0.16s CPU      0.04s WALL (      20 calls)

     General routines
     calbec       :      0.06s CPU      0.05s WALL (      29 calls)
     fft          :     12.13s CPU     12.66s WALL (     313 calls)
     ffts         :      0.05s CPU      0.06s WALL (      11 calls)
     fftw         :      0.90s CPU      0.90s WALL (     304 calls)
     interpolate  :      0.26s CPU      0.30s WALL (       6 calls)

     Parallel routines
     fft_scatt_xy :      1.06s CPU      1.07s WALL (     244 calls)
     fft_scatt_yz :      1.42s CPU      1.42s WALL (     244 calls)

     Environ routines
     calc_eelect  :      0.03s CPU      0.03s WALL (      10 calls)
     calc_velect  :     15.94s CPU     16.62s WALL (       8 calls)
     dielectric   :      0.29s CPU      0.33s WALL (       7 calls)
     electrolyte  :      0.02s CPU      0.02s WALL (       7 calls)
     calc_felect  :      0.39s CPU      0.41s WALL (       1 calls)

     PWSCF        :     42.46s CPU     43.04s WALL


   This run was terminated on:  10:33:15  22Jan2021            

=------------------------------------------------------------------------------=
   JOB DONE.
=------------------------------------------------------------------------------=
 Calling electrostatic_initbase now
 electrolyte_distance:    0.0000000000000000     
 sc_distance:    0.0000000000000000     
 velectrostatic started
 vreference created

%%%% IONS %%%%%%%%%%%%%%%%%%%%%%%%%%%%%%%%%%%%%%%%%%%%%%%%%%%%%%%%%%%%%%%%%%%%%%
 number of ions             =         11
 ionic center of charge     =      0.0072664     0.0000000     0.0001166
 total ionic charge         =    -30.0000000
 ionic dipole               =      0.0000000     0.0000000     0.0000000
 ionic quadrupole (pc)      =   -131.0719083  -146.7987081    -0.0000314
 ionic quadrupole (gauss)   =   -134.8219083  -150.5487081    -3.7500314
 ion   1 type =  1 coordinates =     -2.4454071     0.0000002     0.0030272
 ion   2 type =  2 coordinates =     -1.2331440     2.2473584     0.0020749
 ion   3 type =  2 coordinates =      1.3781229     2.2851921     0.0014627
 ion   4 type =  2 coordinates =      2.6939354     0.0000002     0.0013189
 ion   5 type =  2 coordinates =      1.3781232    -2.2851919     0.0026521
 ion   6 type =  2 coordinates =     -1.2331437    -2.2473574     0.0035464
 ion   7 type =  3 coordinates =     -2.4127312     3.9381412     0.0017094
 ion   8 type =  3 coordinates =      2.3590962     4.0987221     0.0008035
 ion   9 type =  3 coordinates =      4.7585861    -0.0000002     0.0000199
 ion  10 type =  3 coordinates =      2.3590968    -4.0987217     0.0032074
 ion  11 type =  3 coordinates =     -2.4127303    -3.9381403     0.0048805

%%%% SYSTEM %%%%%%%%%%%%%%%%%%%%%%%%%%%%%%%%%%%%%%%%%%%%%%%%%%%%%%%%%%%%%%%%%%%%
 system is built from all present ionic types
 system defined dimension   =  0 
 system defined axis        =  3 
 system center              =      0.0072664     0.0000000     0.0001166 
 system width               =      0.2348011 

%%%% IONS %%%%%%%%%%%%%%%%%%%%%%%%%%%%%%%%%%%%%%%%%%%%%%%%%%%%%%%%%%%%%%%%%%%%%%
 number of ions             =         11
 ionic center of charge     =      0.0072664     0.0000000     0.0001166
 total ionic charge         =    -30.0000000
 ionic dipole               =      0.0000000     0.0000000     0.0000000
 ionic quadrupole (pc)      =   -131.0719083  -146.7987081    -0.0000314
 ionic quadrupole (gauss)   =   -134.8219083  -150.5487081    -3.7500314
 ion   1 type =  1 coordinates =     -2.4454071     0.0000002     0.0030272
 ion   2 type =  2 coordinates =     -1.2331440     2.2473584     0.0020749
 ion   3 type =  2 coordinates =      1.3781229     2.2851921     0.0014627
 ion   4 type =  2 coordinates =      2.6939354     0.0000002     0.0013189
 ion   5 type =  2 coordinates =      1.3781232    -2.2851919     0.0026521
 ion   6 type =  2 coordinates =     -1.2331437    -2.2473574     0.0035464
 ion   7 type =  3 coordinates =     -2.4127312     3.9381412     0.0017094
 ion   8 type =  3 coordinates =      2.3590962     4.0987221     0.0008035
 ion   9 type =  3 coordinates =      4.7585861    -0.0000002     0.0000199
 ion  10 type =  3 coordinates =      2.3590968    -4.0987217     0.0032074
 ion  11 type =  3 coordinates =     -2.4127303    -3.9381403     0.0048805

%%%% SYSTEM %%%%%%%%%%%%%%%%%%%%%%%%%%%%%%%%%%%%%%%%%%%%%%%%%%%%%%%%%%%%%%%%%%%%
 system is built from all present ionic types
 system defined dimension   =  0 
 system defined axis        =  3 
 system center              =      0.0072664     0.0000000     0.0001166 
 system width               =      0.2348011 

%%%% ELECTRONS %%%%%%%%%%%%%%%%%%%%%%%%%%%%%%%%%%%%%%%%%%%%%%%%%%%%%%%%%%%%%%%%%
 number of electrons        =         30
 total electronic charge    =     30.0000000

%%%% ELECTRONS %%%%%%%%%%%%%%%%%%%%%%%%%%%%%%%%%%%%%%%%%%%%%%%%%%%%%%%%%%%%%%%%%
 number of electrons        =         30
 total electronic charge    =     30.0000000

%%%% BOUNDARY %%%%%%%%%%%%%%%%%%%%%%%%%%%%%%%%%%%%%%%%%%%%%%%%%%%%%%%%%%%%%%%%%%
 boundary label             = solvent              
 boundary mode              = electronic           
 boundary is built as a function of a smooth density
 function type              =  2 
 using the modified SCCS function with parameters 
 rhomax                     =      0.0050000 
 rhomin                     =      0.0001000 
 volume of the QM region    =   2407.1059940 
 surface of the QM region   =    815.5587045 

%%%% DIELECTRIC %%%%%%%%%%%%%%%%%%%%%%%%%%%%%%%%%%%%%%%%%%%%%%%%%%%%%%%%%%%%%%%%%
 dielectric build on homogeneous background
 environment bulk permitt.  =     20.0000000 
 dielectric flags
 need gradient              =  F 
 need factor depend. sqrt   =  T 
 total dielectric charge    =      0.0000000

%%%% BOUNDARY %%%%%%%%%%%%%%%%%%%%%%%%%%%%%%%%%%%%%%%%%%%%%%%%%%%%%%%%%%%%%%%%%%
 boundary label             = electrolyte          
 boundary mode              = electronic           
 boundary is built as a function of a smooth density
 function type              =  2 
 using the modified SCCS function with parameters 
 rhomax                     =      0.0007000 
 rhomin                     =      0.0000150 
 volume of the QM region    =   5932.6915978 
 surface of the QM region   =   1117.5224438 

%%%% ELECTROLYTE %%%%%%%%%%%%%%%%%%%%%%%%%%%%%%%%%%%%%%%%%%%%%%%%%%%%%%%%%%%%%%%%
 number electrol. species   =    2
 solvent temperature        =   300.0
 Debye length / sqrt(eps)   =      0.2301070
 electrolyte species    1
 bulk concentration  (a.u.) =      0.7139E-03
 bulk concentration (mol/L) =      8.0000000
 ionic charge               =   -1.00
 electrolyte species    2
 bulk concentration  (a.u.) =      0.7139E-03
 bulk concentration (mol/L) =      8.0000000
 ionic charge               =    1.00
 electrolyte flags
 linearized                 =  T
 total electrolyte charge   =      0.0000000

%%%% DENSITY %%%%%%%%%%%%%%%%%%%%%%%%%%%%%%%%%%%%%%%%%%%%%%%%%%%%%%%%%%%%%%%%%%%
 density label              = dvtot                                                                           
 integral of density        =      0.000000000    

%%%% DENSITY %%%%%%%%%%%%%%%%%%%%%%%%%%%%%%%%%%%%%%%%%%%%%%%%%%%%%%%%%%%%%%%%%%%
 density label              = vreference                                                                      
 integral of density        =      0.000000000    

%%%% DENSITY %%%%%%%%%%%%%%%%%%%%%%%%%%%%%%%%%%%%%%%%%%%%%%%%%%%%%%%%%%%%%%%%%%%
 density label              = velectrostatic                                                                  
 integral of density        =      0.000000000    

%%%% CHARGES %%%%%%%%%%%%%%%%%%%%%%%%%%%%%%%%%%%%%%%%%%%%%%%%%%%%%%%%%%%%%%%%%%%
 total number of charges    =         41
 total charge               =     -0.0000000

%%%% DENSITY %%%%%%%%%%%%%%%%%%%%%%%%%%%%%%%%%%%%%%%%%%%%%%%%%%%%%%%%%%%%%%%%%%%
 density label              = vsoftcavity                                                                     
 integral of density        =      0.000000000    

%%%% ELECTRONS %%%%%%%%%%%%%%%%%%%%%%%%%%%%%%%%%%%%%%%%%%%%%%%%%%%%%%%%%%%%%%%%%
 number of electrons        =         30
 total electronic charge    =     30.0000000

%%%% ELECTRONS %%%%%%%%%%%%%%%%%%%%%%%%%%%%%%%%%%%%%%%%%%%%%%%%%%%%%%%%%%%%%%%%%
 number of electrons        =         30
 total electronic charge    =     30.0000000

%%%% BOUNDARY %%%%%%%%%%%%%%%%%%%%%%%%%%%%%%%%%%%%%%%%%%%%%%%%%%%%%%%%%%%%%%%%%%
 boundary label             = solvent              
 boundary mode              = electronic           
 boundary is built as a function of a smooth density
 function type              =  2 
 using the modified SCCS function with parameters 
 rhomax                     =      0.0050000 
 rhomin                     =      0.0001000 
 volume of the QM region    =   1079.4809383 
 surface of the QM region   =    528.9398834 

%%%% DIELECTRIC %%%%%%%%%%%%%%%%%%%%%%%%%%%%%%%%%%%%%%%%%%%%%%%%%%%%%%%%%%%%%%%%%
 dielectric build on homogeneous background
 environment bulk permitt.  =     20.0000000 
 dielectric flags
 need gradient              =  F 
 need factor depend. sqrt   =  T 
 total dielectric charge    =      0.0000000

%%%% BOUNDARY %%%%%%%%%%%%%%%%%%%%%%%%%%%%%%%%%%%%%%%%%%%%%%%%%%%%%%%%%%%%%%%%%%
 boundary label             = electrolyte          
 boundary mode              = electronic           
 boundary is built as a function of a smooth density
 function type              =  2 
 using the modified SCCS function with parameters 
 rhomax                     =      0.0007000 
 rhomin                     =      0.0000150 
 volume of the QM region    =   3894.0294819 
 surface of the QM region   =   1002.6083315 

%%%% ELECTROLYTE %%%%%%%%%%%%%%%%%%%%%%%%%%%%%%%%%%%%%%%%%%%%%%%%%%%%%%%%%%%%%%%%
 number electrol. species   =    2
 solvent temperature        =   300.0
 Debye length / sqrt(eps)   =      0.2301070
 electrolyte species    1
 bulk concentration  (a.u.) =      0.7139E-03
 bulk concentration (mol/L) =      8.0000000
 ionic charge               =   -1.00
 electrolyte species    2
 bulk concentration  (a.u.) =      0.7139E-03
 bulk concentration (mol/L) =      8.0000000
 ionic charge               =    1.00
 electrolyte flags
 linearized                 =  T
 total electrolyte charge   =      0.0000000

%%%% DENSITY %%%%%%%%%%%%%%%%%%%%%%%%%%%%%%%%%%%%%%%%%%%%%%%%%%%%%%%%%%%%%%%%%%%
 density label              = vreference                                                                      
 integral of density        =    -0.2151175071E-11

%%%% COMPUTE ELECTROSTATIC POTENTIAL %%%%%%%%%%%%%%%%%%%%%%%%%%%%%%%%%%%%%%%%%%%
 Iteration #          1
  pAp =    123.60716613190334       rzold =    121.18010664674728       alpha =   0.98036473481993669     
 delta_qm =   0.113703E-01 delta_en =   0.223404E+03 tol =   0.100000E-04
 Iteration #          2
  pAp =    1831.5173857626062       rzold =    61.158001144756206       alpha =    3.3391985039383766E-002
 delta_qm =   0.340348E-02 delta_en =   0.200166E+02 tol =   0.100000E-04
 Iteration #          3
  pAp =    7.9651938952288859       rzold =    1.1885953949905685       alpha =   0.14922366117195612     
 delta_qm =   0.103174E-02 delta_en =   0.183945E+01 tol =   0.100000E-04
 Iteration #          4
  pAp =   0.30790187009331105       rzold =    6.4450858230098509E-002  alpha =   0.20932272418665851     
 delta_qm =   0.542213E-03 delta_en =   0.508024E+00 tol =   0.100000E-04
 Iteration #          5
  pAp =   0.26759848023077348       rzold =    2.9367425022392771E-002  alpha =   0.10974436400784743     
 delta_qm =   0.267872E-03 delta_en =   0.123994E+00 tol =   0.100000E-04
 Iteration #          6
  pAp =    8.0448178503027008E-003  rzold =    2.1874325404789715E-003  alpha =   0.27190578844450347     
 delta_qm =   0.127393E-03 delta_en =   0.280437E-01 tol =   0.100000E-04
 Iteration #          7
  pAp =    4.1028276332803516E-003  rzold =    4.6878154634457547E-004  alpha =   0.11425816247848768     
 delta_qm =   0.992574E-04 delta_en =   0.170243E-01 tol =   0.100000E-04
 Iteration #          8
  pAp =    5.0443583547155155E-004  rzold =    1.6002832032390487E-004  alpha =   0.31724217248425429     
 delta_qm =   0.459324E-04 delta_en =   0.364571E-02 tol =   0.100000E-04
 Iteration #          9
  pAp =    1.2167625065628500E-004  rzold =    3.3163143791321678E-005  alpha =   0.27255231495423043     
 delta_qm =   0.258089E-04 delta_en =   0.115102E-02 tol =   0.100000E-04
 Iteration #         10
  pAp =    7.7753913472013552E-005  rzold =    1.6636838537558998E-005  alpha =   0.21396786084017749     
 delta_qm =   0.122708E-04 delta_en =   0.260189E-03 tol =   0.100000E-04
 Iteration #         11
  pAp =    5.1526895856987600E-005  rzold =    6.2097530642386425E-006  alpha =   0.12051479059545431     
 delta_qm =   0.813949E-05 delta_en =   0.114482E-03 tol =   0.100000E-04
 Iteration #         12
  pAp =    2.9499663674673074E-006  rzold =    1.0992628802386977E-006  alpha =   0.37263573319395821     
 delta_qm =   0.430811E-05 delta_en =   0.320713E-04 tol =   0.100000E-04
 Iteration #         13
  pAp =    3.0582702720453246E-007  rzold =    1.8911813927775654E-007  alpha =   0.61838268843151400     
 delta_qm =   0.217576E-05 delta_en =   0.818024E-05 tol =   0.100000E-04
 Charges are converged, EXIT

%%%% DENSITY %%%%%%%%%%%%%%%%%%%%%%%%%%%%%%%%%%%%%%%%%%%%%%%%%%%%%%%%%%%%%%%%%%%
 density label              = velectrostatic                                                                  
 integral of density        =     -280.6989972    

%%%% CHARGES %%%%%%%%%%%%%%%%%%%%%%%%%%%%%%%%%%%%%%%%%%%%%%%%%%%%%%%%%%%%%%%%%%%
 total number of charges    =         41
 total charge               =     -0.0000000

%%%% DENSITY %%%%%%%%%%%%%%%%%%%%%%%%%%%%%%%%%%%%%%%%%%%%%%%%%%%%%%%%%%%%%%%%%%%
 density label              = vsoftcavity                                                                     
 integral of density        =      121.7574084    

%%%% DENSITY %%%%%%%%%%%%%%%%%%%%%%%%%%%%%%%%%%%%%%%%%%%%%%%%%%%%%%%%%%%%%%%%%%%
 density label              = dvtot                                                                           
 integral of density        =     -158.9415888    

%%%% ELECTRONS %%%%%%%%%%%%%%%%%%%%%%%%%%%%%%%%%%%%%%%%%%%%%%%%%%%%%%%%%%%%%%%%%
 number of electrons        =         30
 total electronic charge    =     30.0000000

%%%% ELECTRONS %%%%%%%%%%%%%%%%%%%%%%%%%%%%%%%%%%%%%%%%%%%%%%%%%%%%%%%%%%%%%%%%%
 number of electrons        =         30
 total electronic charge    =     30.0000000

%%%% BOUNDARY %%%%%%%%%%%%%%%%%%%%%%%%%%%%%%%%%%%%%%%%%%%%%%%%%%%%%%%%%%%%%%%%%%
 boundary label             = solvent              
 boundary mode              = electronic           
 boundary is built as a function of a smooth density
 function type              =  2 
 using the modified SCCS function with parameters 
 rhomax                     =      0.0050000 
 rhomin                     =      0.0001000 
 volume of the QM region    =   1003.7991294 
 surface of the QM region   =    509.9024050 

%%%% DIELECTRIC %%%%%%%%%%%%%%%%%%%%%%%%%%%%%%%%%%%%%%%%%%%%%%%%%%%%%%%%%%%%%%%%%
 dielectric build on homogeneous background
 environment bulk permitt.  =     20.0000000 
 dielectric flags
 need gradient              =  F 
 need factor depend. sqrt   =  T 
 total dielectric charge    =      0.0041604

%%%% BOUNDARY %%%%%%%%%%%%%%%%%%%%%%%%%%%%%%%%%%%%%%%%%%%%%%%%%%%%%%%%%%%%%%%%%%
 boundary label             = electrolyte          
 boundary mode              = electronic           
 boundary is built as a function of a smooth density
 function type              =  2 
 using the modified SCCS function with parameters 
 rhomax                     =      0.0007000 
 rhomin                     =      0.0000150 
 volume of the QM region    =   2420.5177828 
 surface of the QM region   =    837.0342107 

%%%% ELECTROLYTE %%%%%%%%%%%%%%%%%%%%%%%%%%%%%%%%%%%%%%%%%%%%%%%%%%%%%%%%%%%%%%%%
 number electrol. species   =    2
 solvent temperature        =   300.0
 Debye length / sqrt(eps)   =      0.2301070
 electrolyte species    1
 bulk concentration  (a.u.) =      0.7139E-03
 bulk concentration (mol/L) =      8.0000000
 ionic charge               =   -1.00
 electrolyte species    2
 bulk concentration  (a.u.) =      0.7139E-03
 bulk concentration (mol/L) =      8.0000000
 ionic charge               =    1.00
 electrolyte flags
 linearized                 =  T
 total electrolyte charge   =     -0.0047039

%%%% DENSITY %%%%%%%%%%%%%%%%%%%%%%%%%%%%%%%%%%%%%%%%%%%%%%%%%%%%%%%%%%%%%%%%%%%
 density label              = vreference                                                                      
 integral of density        =    -0.2575361478E-11

%%%% COMPUTE ELECTROSTATIC POTENTIAL %%%%%%%%%%%%%%%%%%%%%%%%%%%%%%%%%%%%%%%%%%%
 Warning: bad guess with residual norm =   0.190428E+03, reset to no guess
 Iteration #          1
  pAp =    123.85809668000667       rzold =    122.27807985970665       alpha =   0.98724333037038292     
 delta_qm =   0.104105E-01 delta_en =   0.187280E+03 tol =   0.100000E-04
 Iteration #          2
  pAp =    2159.2620040932934       rzold =    53.440484018235523       alpha =    2.4749420828472358E-002
 delta_qm =   0.322356E-02 delta_en =   0.179563E+02 tol =   0.100000E-04
 Iteration #          3
  pAp =    11.479214776149789       rzold =    1.1642780240246284       alpha =   0.10142488373365340     
 delta_qm =   0.165782E-02 delta_en =   0.474918E+01 tol =   0.100000E-04
 Iteration #          4
  pAp =    2.5769693656777188       rzold =   0.27630069305813998       alpha =   0.10721923851255231     
 delta_qm =   0.766393E-03 delta_en =   0.101495E+01 tol =   0.100000E-04
 Iteration #          5
  pAp =   0.22881866242179791       rzold =    3.8628277207717436E-002  alpha =   0.16881611315650100     
 delta_qm =   0.302542E-03 delta_en =   0.158167E+00 tol =   0.100000E-04
 Iteration #          6
  pAp =    1.6391812528554931E-002  rzold =    3.4455351805920860E-003  alpha =   0.21019854726802670     
 delta_qm =   0.157279E-03 delta_en =   0.427449E-01 tol =   0.100000E-04
 Iteration #          7
  pAp =    3.8961705411408162E-003  rzold =    7.1342291165144185E-004  alpha =   0.18310874847961570     
 delta_qm =   0.102779E-03 delta_en =   0.182537E-01 tol =   0.100000E-04
 Iteration #          8
  pAp =    6.4760133288445376E-004  rzold =    1.3722768440875229E-004  alpha =   0.21190148543631351     
 delta_qm =   0.723675E-04 delta_en =   0.904963E-02 tol =   0.100000E-04
 Iteration #          9
  pAp =    1.1997357007495879E-003  rzold =    1.5642054203629491E-004  alpha =   0.13037916762714011     
 delta_qm =   0.404774E-04 delta_en =   0.283118E-02 tol =   0.100000E-04
 Iteration #         10
  pAp =    8.1554109867006659E-005  rzold =    2.3253521480707329E-005  alpha =   0.28512997712350385     
 delta_qm =   0.189494E-04 delta_en =   0.620492E-03 tol =   0.100000E-04
 Iteration #         11
  pAp =    7.8501829548395483E-005  rzold =    1.0442503165140137E-005  alpha =   0.13302241776037146     
 delta_qm =   0.126859E-04 delta_en =   0.278090E-03 tol =   0.100000E-04
 Iteration #         12
  pAp =    3.1627525873611056E-005  rzold =    3.9557847208432932E-006  alpha =   0.12507411223537618     
 delta_qm =   0.946862E-05 delta_en =   0.154923E-03 tol =   0.100000E-04
 Iteration #         13
  pAp =    5.9809639187031201E-006  rzold =    1.4004964805695216E-006  alpha =   0.23415899169530480     
 delta_qm =   0.567455E-05 delta_en =   0.556425E-04 tol =   0.100000E-04
 Iteration #         14
  pAp =    8.5083923267319096E-007  rzold =    2.3014918066999628E-007  alpha =   0.27049667179416143     
 delta_qm =   0.379647E-05 delta_en =   0.249059E-04 tol =   0.100000E-04
 Iteration #         15
  pAp =    2.3538727244749255E-005  rzold =    1.0476280949659714E-006  alpha =    4.4506573531908532E-002
 delta_qm =   0.303840E-05 delta_en =   0.159527E-04 tol =   0.100000E-04
 Iteration #         16
  pAp =    1.8003110019163260E-007  rzold =    8.4501095811367736E-008  alpha =   0.46936943517770680     
 delta_qm =   0.128871E-05 delta_en =   0.286981E-05 tol =   0.100000E-04
 Charges are converged, EXIT

%%%% DENSITY %%%%%%%%%%%%%%%%%%%%%%%%%%%%%%%%%%%%%%%%%%%%%%%%%%%%%%%%%%%%%%%%%%%
 density label              = velectrostatic                                                                  
 integral of density        =     -282.2319087    

%%%% CHARGES %%%%%%%%%%%%%%%%%%%%%%%%%%%%%%%%%%%%%%%%%%%%%%%%%%%%%%%%%%%%%%%%%%%
 total number of charges    =         41
 total charge               =     -0.0000000

%%%% DENSITY %%%%%%%%%%%%%%%%%%%%%%%%%%%%%%%%%%%%%%%%%%%%%%%%%%%%%%%%%%%%%%%%%%%
 density label              = vsoftcavity                                                                     
 integral of density        =      107.6398266    

%%%% DENSITY %%%%%%%%%%%%%%%%%%%%%%%%%%%%%%%%%%%%%%%%%%%%%%%%%%%%%%%%%%%%%%%%%%%
 density label              = dvtot                                                                           
 integral of density        =     -174.5920821    

%%%% ELECTRONS %%%%%%%%%%%%%%%%%%%%%%%%%%%%%%%%%%%%%%%%%%%%%%%%%%%%%%%%%%%%%%%%%
 number of electrons        =         30
 total electronic charge    =     30.0000000

%%%% ELECTRONS %%%%%%%%%%%%%%%%%%%%%%%%%%%%%%%%%%%%%%%%%%%%%%%%%%%%%%%%%%%%%%%%%
 number of electrons        =         30
 total electronic charge    =     30.0000000

%%%% BOUNDARY %%%%%%%%%%%%%%%%%%%%%%%%%%%%%%%%%%%%%%%%%%%%%%%%%%%%%%%%%%%%%%%%%%
 boundary label             = solvent              
 boundary mode              = electronic           
 boundary is built as a function of a smooth density
 function type              =  2 
 using the modified SCCS function with parameters 
 rhomax                     =      0.0050000 
 rhomin                     =      0.0001000 
 volume of the QM region    =    975.7929723 
 surface of the QM region   =    503.7707980 

%%%% DIELECTRIC %%%%%%%%%%%%%%%%%%%%%%%%%%%%%%%%%%%%%%%%%%%%%%%%%%%%%%%%%%%%%%%%%
 dielectric build on homogeneous background
 environment bulk permitt.  =     20.0000000 
 dielectric flags
 need gradient              =  F 
 need factor depend. sqrt   =  T 
 total dielectric charge    =      0.0008349

%%%% BOUNDARY %%%%%%%%%%%%%%%%%%%%%%%%%%%%%%%%%%%%%%%%%%%%%%%%%%%%%%%%%%%%%%%%%%
 boundary label             = electrolyte          
 boundary mode              = electronic           
 boundary is built as a function of a smooth density
 function type              =  2 
 using the modified SCCS function with parameters 
 rhomax                     =      0.0007000 
 rhomin                     =      0.0000150 
 volume of the QM region    =   1732.3748859 
 surface of the QM region   =    718.8046494 

%%%% ELECTROLYTE %%%%%%%%%%%%%%%%%%%%%%%%%%%%%%%%%%%%%%%%%%%%%%%%%%%%%%%%%%%%%%%%
 number electrol. species   =    2
 solvent temperature        =   300.0
 Debye length / sqrt(eps)   =      0.2301070
 electrolyte species    1
 bulk concentration  (a.u.) =      0.7139E-03
 bulk concentration (mol/L) =      8.0000000
 ionic charge               =   -1.00
 electrolyte species    2
 bulk concentration  (a.u.) =      0.7139E-03
 bulk concentration (mol/L) =      8.0000000
 ionic charge               =    1.00
 electrolyte flags
 linearized                 =  T
 total electrolyte charge   =     -0.0009471

%%%% DENSITY %%%%%%%%%%%%%%%%%%%%%%%%%%%%%%%%%%%%%%%%%%%%%%%%%%%%%%%%%%%%%%%%%%%
 density label              = vreference                                                                      
 integral of density        =     0.5335170577E-11

%%%% COMPUTE ELECTROSTATIC POTENTIAL %%%%%%%%%%%%%%%%%%%%%%%%%%%%%%%%%%%%%%%%%%%
 Warning: bad guess with residual norm =   0.162596E+03, reset to no guess
 Iteration #          1
  pAp =    123.71824013282804       rzold =    122.58785647073289       alpha =   0.99086324166200923     
 delta_qm =   0.963768E-02 delta_en =   0.160505E+03 tol =   0.100000E-04
 Iteration #          2
  pAp =    1978.4238136263521       rzold =    43.034194262685197       alpha =    2.1751757114066309E-002
 delta_qm =   0.309725E-02 delta_en =   0.165766E+02 tol =   0.100000E-04
 Iteration #          3
  pAp =    10.586515129937840       rzold =   0.97934207262775475       alpha =    9.2508446888084225E-002
 delta_qm =   0.160957E-02 delta_en =   0.447673E+01 tol =   0.100000E-04
 Iteration #          4
  pAp =    2.2625644748114104       rzold =   0.24081006964374990       alpha =   0.10643235687850262     
 delta_qm =   0.822880E-03 delta_en =   0.117008E+01 tol =   0.100000E-04
 Iteration #          5
  pAp =   0.28789599375503072       rzold =    4.4772626439811079E-002  alpha =   0.15551667064150912     
 delta_qm =   0.335255E-03 delta_en =   0.194221E+00 tol =   0.100000E-04
 Iteration #          6
  pAp =    2.2829575877290353E-002  rzold =    4.4361148230819747E-003  alpha =   0.19431437740789506     
 delta_qm =   0.164112E-03 delta_en =   0.465396E-01 tol =   0.100000E-04
 Iteration #          7
  pAp =    3.8669106391808240E-003  rzold =    7.1255313636991698E-004  alpha =   0.18426935682197870     
 delta_qm =   0.110849E-03 delta_en =   0.212327E-01 tol =   0.100000E-04
 Iteration #          8
  pAp =    3.8875920201851533E-004  rzold =    1.3429184046097895E-004  alpha =   0.34543707200680762     
 delta_qm =   0.550905E-04 delta_en =   0.524442E-02 tol =   0.100000E-04
 Iteration #          9
  pAp =    6.9147338406800316E-004  rzold =    6.7937941203714938E-005  alpha =    9.8250985170289018E-002
 delta_qm =   0.413296E-04 delta_en =   0.295166E-02 tol =   0.100000E-04
 Iteration #         10
  pAp =    1.3700908843165230E-004  rzold =    2.9205027092728376E-005  alpha =   0.21316123935309195     
 delta_qm =   0.212307E-04 delta_en =   0.778882E-03 tol =   0.100000E-04
 Iteration #         11
  pAp =    7.3996960669562469E-005  rzold =    1.1574526317087106E-005  alpha =   0.15641894224242256     
 delta_qm =   0.132168E-04 delta_en =   0.301854E-03 tol =   0.100000E-04
 Iteration #         12
  pAp =    6.1340148846485243E-006  rzold =    1.8783023104989623E-006  alpha =   0.30621091500768149     
 delta_qm =   0.732565E-05 delta_en =   0.927333E-04 tol =   0.100000E-04
 Iteration #         13
  pAp =    7.5160862136334830E-006  rzold =    7.1182549275036716E-007  alpha =    9.4706935566968589E-002
 delta_qm =   0.614983E-05 delta_en =   0.653536E-04 tol =   0.100000E-04
 Iteration #         14
  pAp =    2.2795963871562186E-006  rzold =    3.5621251932931219E-007  alpha =   0.15626122296749423     
 delta_qm =   0.526020E-05 delta_en =   0.478132E-04 tol =   0.100000E-04
 Iteration #         15
  pAp =    2.5094129240617900E-005  rzold =    1.0290780005605004E-006  alpha =    4.1008715253399289E-002
 delta_qm =   0.379605E-05 delta_en =   0.249005E-04 tol =   0.100000E-04
 Iteration #         16
  pAp =    2.5504510215388399E-007  rzold =    1.0376035278490662E-007  alpha =   0.40683138750220649     
 delta_qm =   0.184114E-05 delta_en =   0.585757E-05 tol =   0.100000E-04
 Charges are converged, EXIT

%%%% DENSITY %%%%%%%%%%%%%%%%%%%%%%%%%%%%%%%%%%%%%%%%%%%%%%%%%%%%%%%%%%%%%%%%%%%
 density label              = velectrostatic                                                                  
 integral of density        =     -275.7006322    

%%%% CHARGES %%%%%%%%%%%%%%%%%%%%%%%%%%%%%%%%%%%%%%%%%%%%%%%%%%%%%%%%%%%%%%%%%%%
 total number of charges    =         41
 total charge               =     -0.0000000

%%%% DENSITY %%%%%%%%%%%%%%%%%%%%%%%%%%%%%%%%%%%%%%%%%%%%%%%%%%%%%%%%%%%%%%%%%%%
 density label              = vsoftcavity                                                                     
 integral of density        =      49.17511317    

%%%% DENSITY %%%%%%%%%%%%%%%%%%%%%%%%%%%%%%%%%%%%%%%%%%%%%%%%%%%%%%%%%%%%%%%%%%%
 density label              = dvtot                                                                           
 integral of density        =     -226.5255190    

%%%% ELECTRONS %%%%%%%%%%%%%%%%%%%%%%%%%%%%%%%%%%%%%%%%%%%%%%%%%%%%%%%%%%%%%%%%%
 number of electrons        =         30
 total electronic charge    =     30.0000000

%%%% ELECTRONS %%%%%%%%%%%%%%%%%%%%%%%%%%%%%%%%%%%%%%%%%%%%%%%%%%%%%%%%%%%%%%%%%
 number of electrons        =         30
 total electronic charge    =     30.0000000

%%%% BOUNDARY %%%%%%%%%%%%%%%%%%%%%%%%%%%%%%%%%%%%%%%%%%%%%%%%%%%%%%%%%%%%%%%%%%
 boundary label             = solvent              
 boundary mode              = electronic           
 boundary is built as a function of a smooth density
 function type              =  2 
 using the modified SCCS function with parameters 
 rhomax                     =      0.0050000 
 rhomin                     =      0.0001000 
 volume of the QM region    =    969.2013207 
 surface of the QM region   =    502.8817750 

%%%% DIELECTRIC %%%%%%%%%%%%%%%%%%%%%%%%%%%%%%%%%%%%%%%%%%%%%%%%%%%%%%%%%%%%%%%%%
 dielectric build on homogeneous background
 environment bulk permitt.  =     20.0000000 
 dielectric flags
 need gradient              =  F 
 need factor depend. sqrt   =  T 
 total dielectric charge    =     -0.0000853

%%%% BOUNDARY %%%%%%%%%%%%%%%%%%%%%%%%%%%%%%%%%%%%%%%%%%%%%%%%%%%%%%%%%%%%%%%%%%
 boundary label             = electrolyte          
 boundary mode              = electronic           
 boundary is built as a function of a smooth density
 function type              =  2 
 using the modified SCCS function with parameters 
 rhomax                     =      0.0007000 
 rhomin                     =      0.0000150 
 volume of the QM region    =   1599.7084712 
 surface of the QM region   =    685.8544124 

%%%% ELECTROLYTE %%%%%%%%%%%%%%%%%%%%%%%%%%%%%%%%%%%%%%%%%%%%%%%%%%%%%%%%%%%%%%%%
 number electrol. species   =    2
 solvent temperature        =   300.0
 Debye length / sqrt(eps)   =      0.2301070
 electrolyte species    1
 bulk concentration  (a.u.) =      0.7139E-03
 bulk concentration (mol/L) =      8.0000000
 ionic charge               =   -1.00
 electrolyte species    2
 bulk concentration  (a.u.) =      0.7139E-03
 bulk concentration (mol/L) =      8.0000000
 ionic charge               =    1.00
 electrolyte flags
 linearized                 =  T
 total electrolyte charge   =     -0.0000096

%%%% DENSITY %%%%%%%%%%%%%%%%%%%%%%%%%%%%%%%%%%%%%%%%%%%%%%%%%%%%%%%%%%%%%%%%%%%
 density label              = vreference                                                                      
 integral of density        =    -0.3474665000E-11

%%%% COMPUTE ELECTROSTATIC POTENTIAL %%%%%%%%%%%%%%%%%%%%%%%%%%%%%%%%%%%%%%%%%%%
 Warning: bad guess with residual norm =   0.146515E+03, reset to no guess
 Iteration #          1
  pAp =    123.66777113894420       rzold =    122.70039548766206       alpha =   0.99217762524243069     
 delta_qm =   0.915618E-02 delta_en =   0.144868E+03 tol =   0.100000E-04
 Iteration #          2
  pAp =    1713.7846893894337       rzold =    36.540971702399197       alpha =    2.1321798431644043E-002
 delta_qm =   0.319411E-02 delta_en =   0.176296E+02 tol =   0.100000E-04
 Iteration #          3
  pAp =    12.496770667717536       rzold =    1.0596903570157847       alpha =    8.4797135611462029E-002
 delta_qm =   0.166871E-02 delta_en =   0.481179E+01 tol =   0.100000E-04
 Iteration #          4
  pAp =    2.2081046613337905       rzold =   0.24692273919370208       alpha =   0.11182565007790442     
 delta_qm =   0.834533E-03 delta_en =   0.120346E+01 tol =   0.100000E-04
 Iteration #          5
  pAp =   0.30130867222017060       rzold =    4.5928190006679921E-002  alpha =   0.15242903454540974     
 delta_qm =   0.342870E-03 delta_en =   0.203143E+00 tol =   0.100000E-04
 Iteration #          6
  pAp =    2.2226129536584479E-002  rzold =    4.4163648484852906E-003  alpha =   0.19870148067012300     
 delta_qm =   0.163158E-03 delta_en =   0.460002E-01 tol =   0.100000E-04
 Iteration #          7
  pAp =    3.5980050995258000E-003  rzold =    6.6281766012793398E-004  alpha =   0.18421809913923975     
 delta_qm =   0.113905E-03 delta_en =   0.224196E-01 tol =   0.100000E-04
 Iteration #          8
  pAp =    4.3592565654438850E-004  rzold =    1.4322022388182299E-004  alpha =   0.32854277267628423     
 delta_qm =   0.564051E-04 delta_en =   0.549769E-02 tol =   0.100000E-04
 Iteration #          9
  pAp =    7.4936724281711214E-004  rzold =    7.0239203775120641E-005  alpha =    9.3731350613977887E-002
 delta_qm =   0.430151E-04 delta_en =   0.319731E-02 tol =   0.100000E-04
 Iteration #         10
  pAp =    1.2513879107146450E-004  rzold =    2.9472864569024301E-005  alpha =   0.23552141040097535     
 delta_qm =   0.207967E-04 delta_en =   0.747364E-03 tol =   0.100000E-04
 Iteration #         11
  pAp =    6.3099941580167446E-005  rzold =    9.6664560712746743E-006  alpha =   0.15319278955264323     
 delta_qm =   0.140206E-04 delta_en =   0.339686E-03 tol =   0.100000E-04
 Iteration #         12
  pAp =    6.8140491828289219E-006  rzold =    2.0555715695302091E-006  alpha =   0.30166667635891903     
 delta_qm =   0.749156E-05 delta_en =   0.969813E-04 tol =   0.100000E-04
 Iteration #         13
  pAp =    1.2515785767931866E-006  rzold =    3.5080870244855927E-007  alpha =   0.28029299075045416     
 delta_qm =   0.558436E-05 delta_en =   0.538879E-04 tol =   0.100000E-04
 Iteration #         14
  pAp =    8.8193184844468668E-006  rzold =    5.1660034456445538E-007  alpha =    5.8575993765901030E-002
 delta_qm =   0.444874E-05 delta_en =   0.341993E-04 tol =   0.100000E-04
 Iteration #         15
  pAp =    9.1829375385247109E-006  rzold =    4.2012692544380424E-007  alpha =    4.5750820331867351E-002
 delta_qm =   0.409344E-05 delta_en =   0.289548E-04 tol =   0.100000E-04
 Iteration #         16
  pAp =    4.9703424372486865E-007  rzold =    1.4293570350224478E-007  alpha =   0.28757717462494653     
 delta_qm =   0.204610E-05 delta_en =   0.723434E-05 tol =   0.100000E-04
 Charges are converged, EXIT

%%%% DENSITY %%%%%%%%%%%%%%%%%%%%%%%%%%%%%%%%%%%%%%%%%%%%%%%%%%%%%%%%%%%%%%%%%%%
 density label              = velectrostatic                                                                  
 integral of density        =     -273.7431320    

%%%% CHARGES %%%%%%%%%%%%%%%%%%%%%%%%%%%%%%%%%%%%%%%%%%%%%%%%%%%%%%%%%%%%%%%%%%%
 total number of charges    =         41
 total charge               =     -0.0000000

%%%% DENSITY %%%%%%%%%%%%%%%%%%%%%%%%%%%%%%%%%%%%%%%%%%%%%%%%%%%%%%%%%%%%%%%%%%%
 density label              = vsoftcavity                                                                     
 integral of density        =      32.44224269    

%%%% DENSITY %%%%%%%%%%%%%%%%%%%%%%%%%%%%%%%%%%%%%%%%%%%%%%%%%%%%%%%%%%%%%%%%%%%
 density label              = dvtot                                                                           
 integral of density        =     -241.3008893    

%%%% ELECTRONS %%%%%%%%%%%%%%%%%%%%%%%%%%%%%%%%%%%%%%%%%%%%%%%%%%%%%%%%%%%%%%%%%
 number of electrons        =         30
 total electronic charge    =     30.0000000

%%%% ELECTRONS %%%%%%%%%%%%%%%%%%%%%%%%%%%%%%%%%%%%%%%%%%%%%%%%%%%%%%%%%%%%%%%%%
 number of electrons        =         30
 total electronic charge    =     30.0000000

%%%% BOUNDARY %%%%%%%%%%%%%%%%%%%%%%%%%%%%%%%%%%%%%%%%%%%%%%%%%%%%%%%%%%%%%%%%%%
 boundary label             = solvent              
 boundary mode              = electronic           
 boundary is built as a function of a smooth density
 function type              =  2 
 using the modified SCCS function with parameters 
 rhomax                     =      0.0050000 
 rhomin                     =      0.0001000 
 volume of the QM region    =    969.2013207 
 surface of the QM region   =    502.8817750 

%%%% DIELECTRIC %%%%%%%%%%%%%%%%%%%%%%%%%%%%%%%%%%%%%%%%%%%%%%%%%%%%%%%%%%%%%%%%%
 dielectric build on homogeneous background
 environment bulk permitt.  =     20.0000000 
 dielectric flags
 need gradient              =  F 
 need factor depend. sqrt   =  T 
 total dielectric charge    =      0.0000872

%%%% BOUNDARY %%%%%%%%%%%%%%%%%%%%%%%%%%%%%%%%%%%%%%%%%%%%%%%%%%%%%%%%%%%%%%%%%%
 boundary label             = electrolyte          
 boundary mode              = electronic           
 boundary is built as a function of a smooth density
 function type              =  2 
 using the modified SCCS function with parameters 
 rhomax                     =      0.0007000 
 rhomin                     =      0.0000150 
 volume of the QM region    =   1599.7084712 
 surface of the QM region   =    685.8544124 

%%%% ELECTROLYTE %%%%%%%%%%%%%%%%%%%%%%%%%%%%%%%%%%%%%%%%%%%%%%%%%%%%%%%%%%%%%%%%
 number electrol. species   =    2
 solvent temperature        =   300.0
 Debye length / sqrt(eps)   =      0.2301070
 electrolyte species    1
 bulk concentration  (a.u.) =      0.7139E-03
 bulk concentration (mol/L) =      8.0000000
 ionic charge               =   -1.00
 electrolyte species    2
 bulk concentration  (a.u.) =      0.7139E-03
 bulk concentration (mol/L) =      8.0000000
 ionic charge               =    1.00
 electrolyte flags
 linearized                 =  T
 total electrolyte charge   =     -0.0001632

%%%% DENSITY %%%%%%%%%%%%%%%%%%%%%%%%%%%%%%%%%%%%%%%%%%%%%%%%%%%%%%%%%%%%%%%%%%%
 density label              = dvtot                                                                           
 integral of density        =     -241.3008893    

%%%% DENSITY %%%%%%%%%%%%%%%%%%%%%%%%%%%%%%%%%%%%%%%%%%%%%%%%%%%%%%%%%%%%%%%%%%%
 density label              = vreference                                                                      
 integral of density        =    -0.3474665000E-11

%%%% DENSITY %%%%%%%%%%%%%%%%%%%%%%%%%%%%%%%%%%%%%%%%%%%%%%%%%%%%%%%%%%%%%%%%%%%
 density label              = velectrostatic                                                                  
 integral of density        =     -273.7431320    

%%%% CHARGES %%%%%%%%%%%%%%%%%%%%%%%%%%%%%%%%%%%%%%%%%%%%%%%%%%%%%%%%%%%%%%%%%%%
 total number of charges    =         41
 total charge               =     -0.0000000

%%%% DENSITY %%%%%%%%%%%%%%%%%%%%%%%%%%%%%%%%%%%%%%%%%%%%%%%%%%%%%%%%%%%%%%%%%%%
 density label              = vsoftcavity                                                                     
 integral of density        =      32.44224269    
