
     Program PWSCF v.6.7MaX starts on 22Jan2021 at 10:31:26 

     This program is part of the open-source Quantum ESPRESSO suite
     for quantum simulation of materials; please cite
         "P. Giannozzi et al., J. Phys.:Condens. Matter 21 395502 (2009);
         "P. Giannozzi et al., J. Phys.:Condens. Matter 29 465901 (2017);
          URL http://www.quantum-espresso.org", 
     in publications or presentations arising from this work. More details at
     http://www.quantum-espresso.org/quote

     Parallel version (MPI), running on     1 processors

     MPI processes distributed on     1 nodes
     Reading input from pw.in

     Current dimensions of program PWSCF are:
     Max number of different atomic species (ntypx) = 10
     Max number of k-points (npk) =  40000
     Max angular momentum in pseudopotentials (lmaxx) =  3
     file N.pbe-rrkjus.UPF: wavefunction(s)  2S renormalized
     file C.pbe-rrkjus.UPF: wavefunction(s)  2S 2P renormalized
     file H.pbe-rrkjus.UPF: wavefunction(s)  1S renormalized

     gamma-point specific algorithms are used

     Subspace diagonalization in iterative solution of the eigenvalue problem:
     a serial algorithm will be used


     G-vector sticks info
     --------------------
     sticks:   dense  smooth     PW     G-vecs:    dense   smooth      PW
     Sum        9549    3809    949               701475   177509   22119



     bravais-lattice index     =            1
     lattice parameter (alat)  =      20.0000  a.u.
     unit-cell volume          =    8000.0000 (a.u.)^3
     number of atoms/cell      =           11
     number of atomic types    =            3
     number of electrons       =        30.00
     number of Kohn-Sham states=           15
     kinetic-energy cutoff     =      30.0000  Ry
     charge density cutoff     =     300.0000  Ry
     scf convergence threshold =      5.0E-04
     mixing beta               =       0.7000
     number of iterations used =            8  plain     mixing
     Exchange-correlation= SLA  PW   PBE  PBE
                           (   1   4   3   4   0   0   0)


     Environ Module
     ==============

     Plese cite
         O. Andreussi, I. Dabo and N. Marzari, J. Chem. Phys. 136, 064102 (2012)         
     in publications or presentations arising from this work.

     compensation onset threshold      =               0.1000E+03 
     static permittivity               =                    20.00 
     epsilon calculation mode          =               electronic 

     Electrostatic Setup
     -------------------
     electrostatic problem to solve    = linmodpb                 
     numerical solver adopted          = cg                       
     type of auxiliary density adopted = none                     
     type of core tool for poisson     = fft                      



     celldm(1)=  20.000000  celldm(2)=   0.000000  celldm(3)=   0.000000
     celldm(4)=   0.000000  celldm(5)=   0.000000  celldm(6)=   0.000000

     crystal axes: (cart. coord. in units of alat)
               a(1) = (   1.000000   0.000000   0.000000 )  
               a(2) = (   0.000000   1.000000   0.000000 )  
               a(3) = (   0.000000   0.000000   1.000000 )  

     reciprocal axes: (cart. coord. in units 2 pi/alat)
               b(1) = (  1.000000  0.000000  0.000000 )  
               b(2) = (  0.000000  1.000000  0.000000 )  
               b(3) = (  0.000000  0.000000  1.000000 )  


     PseudoPot. # 1 for N  read from file:
     /Users/gabrielmedrano/Desktop/q-e/Environ/tests/../..//pseudo/N.pbe-rrkjus.UPF
     MD5 check sum: 28c76d763763edb36c62a6ca2be9aebd
     Pseudo is Ultrasoft, Zval =  5.0
     Generated by new atomic code, or converted to UPF format
     Using radial grid of 1257 points,  4 beta functions with: 
                l(1) =   0
                l(2) =   0
                l(3) =   1
                l(4) =   1
     Q(r) pseudized with 0 coefficients 


     PseudoPot. # 2 for C  read from file:
     /Users/gabrielmedrano/Desktop/q-e/Environ/tests/../..//pseudo/C.pbe-rrkjus.UPF
     MD5 check sum: c9ac5a99bc85b198593446162950cd17
     Pseudo is Ultrasoft, Zval =  4.0
     Generated by new atomic code, or converted to UPF format
     Using radial grid of  627 points,  4 beta functions with: 
                l(1) =   0
                l(2) =   0
                l(3) =   1
                l(4) =   1
     Q(r) pseudized with 0 coefficients 


     PseudoPot. # 3 for H  read from file:
     /Users/gabrielmedrano/Desktop/q-e/Environ/tests/../..//pseudo/H.pbe-rrkjus.UPF
     MD5 check sum: 2d52a7f45632fd764c17cc6affed14c8
     Pseudo is Ultrasoft, Zval =  1.0
     Generated by new atomic code, or converted to UPF format
     Using radial grid of 1061 points,  2 beta functions with: 
                l(1) =   0
                l(2) =   0
     Q(r) pseudized with 0 coefficients 


     atomic species   valence    mass     pseudopotential
        N              5.00    14.00000     N ( 1.00)
        C              4.00    12.00000     C ( 1.00)
        H              1.00     1.00000     H ( 1.00)

     No symmetry found



   Cartesian axes

     site n.     atom                  positions (alat units)
         1           N   tau(   1) = (  -0.1222704   0.0000000   0.0001514  )
         2           C   tau(   2) = (  -0.0616572   0.1123679   0.0001037  )
         3           C   tau(   3) = (   0.0689061   0.1142596   0.0000731  )
         4           C   tau(   4) = (   0.1346968   0.0000000   0.0000659  )
         5           C   tau(   5) = (   0.0689062  -0.1142596   0.0001326  )
         6           C   tau(   6) = (  -0.0616572  -0.1123679   0.0001773  )
         7           H   tau(   7) = (  -0.1206366   0.1969071   0.0000855  )
         8           H   tau(   8) = (   0.1179548   0.2049361   0.0000402  )
         9           H   tau(   9) = (   0.2379293  -0.0000000   0.0000010  )
        10           H   tau(  10) = (   0.1179548  -0.2049361   0.0001604  )
        11           H   tau(  11) = (  -0.1206365  -0.1969070   0.0002440  )

     number of k points=     1
                       cart. coord. in units 2pi/alat
        k(    1) = (   0.0000000   0.0000000   0.0000000), wk =   2.0000000

     Dense  grid:   350738 G-vectors     FFT dimensions: ( 120, 120, 120)

     Smooth grid:    88755 G-vectors     FFT dimensions: (  72,  72,  72)

     Estimated max dynamical RAM per process >     599.84 MB

     Initial potential from superposition of free atoms

     starting charge   29.51871, renormalised to   30.00000

     negative rho (up, down):  4.533E-04 0.000E+00
     Starting wfcs are   29 randomized atomic wfcs

     total cpu time spent up to now is       14.2 secs

     Self-consistent Calculation

     iteration #  1     ecut=    30.00 Ry     beta= 0.70
     Davidson diagonalization with overlap
     ethr =  1.00E-02,  avg # of iterations =  2.0

     negative rho (up, down):  1.343E-04 0.000E+00

     add environment contribution to local potential
     polarization accuracy = 6.4E-06, # of iterations =  15

     total cpu time spent up to now is       21.6 secs

     total energy              =     -82.29325249 Ry
     estimated scf accuracy    <       2.00743679 Ry
     electrostatic embedding   =       0.00000000 Ry
     electrolyte free energy   =       0.00482715 Ry
     correction to one-el term =      -0.00000000 Ry

     iteration #  2     ecut=    30.00 Ry     beta= 0.70
     Davidson diagonalization with overlap
     ethr =  6.69E-03,  avg # of iterations =  3.0

     negative rho (up, down):  8.677E-05 0.000E+00

     add environment contribution to local potential
     polarization accuracy = 4.5E-06, # of iterations =  16

     total cpu time spent up to now is       29.3 secs

     total energy              =     -82.54629666 Ry
     estimated scf accuracy    <       0.29774574 Ry
     electrostatic embedding   =      -0.02779313 Ry
     electrolyte free energy   =       0.00473538 Ry
     correction to one-el term =       0.08448906 Ry

     iteration #  3     ecut=    30.00 Ry     beta= 0.70
     Davidson diagonalization with overlap
     ethr =  9.92E-04,  avg # of iterations =  4.0

     negative rho (up, down):  6.708E-05 0.000E+00

     add environment contribution to local potential
     polarization accuracy = 6.2E-06, # of iterations =  16

     total cpu time spent up to now is       37.0 secs

     total energy              =     -82.63110787 Ry
     estimated scf accuracy    <       0.05336279 Ry
     electrostatic embedding   =      -0.01954412 Ry
     electrolyte free energy   =       0.00474385 Ry
     correction to one-el term =       0.62934517 Ry

     iteration #  4     ecut=    30.00 Ry     beta= 0.70
     Davidson diagonalization with overlap
     ethr =  1.78E-04,  avg # of iterations =  3.0

     negative rho (up, down):  4.801E-05 0.000E+00

     add environment contribution to local potential
     polarization accuracy = 7.3E-06, # of iterations =  16

     total cpu time spent up to now is       44.7 secs

     total energy              =     -82.64493754 Ry
     estimated scf accuracy    <       0.00339623 Ry
     electrostatic embedding   =      -0.01715841 Ry
     electrolyte free energy   =       0.00474420 Ry
     correction to one-el term =       0.87178627 Ry

     iteration #  5     ecut=    30.00 Ry     beta= 0.70
     Davidson diagonalization with overlap
     ethr =  1.13E-05,  avg # of iterations =  2.0

     negative rho (up, down):  1.375E-04 0.000E+00

     the potential shift due to the Gaussian-smeared nuclei is    -0.0801 ev

     total cpu time spent up to now is       47.2 secs

     End of self-consistent calculation

          k = 0.0000 0.0000 0.0000 ( 11060 PWs)   bands (ev):

   -23.3127 -19.6280 -18.8725 -15.4074 -15.2808 -12.8091 -11.6634 -11.2006
   -10.4483  -9.8097  -9.4551  -8.6872  -7.0579  -6.6506  -5.6509

     highest occupied level (ev):    -5.6509

!    total energy              =     -82.64567271 Ry
     estimated scf accuracy    <       0.00046982 Ry

     The total energy is the sum of the following terms:
     one-electron contribution =    -292.42118523 Ry
     hartree contribution      =     149.42900288 Ry
     xc contribution           =     -25.97522249 Ry
     ewald contribution        =      85.35745758 Ry
     electrostatic embedding   =      -0.01753432 Ry
     electrolyte free energy   =       0.00473678 Ry
     correction to one-el term =       0.97707209 Ry

     WARNING: you are using the parabolic pbc correction;
              the potential shift above must be added to 
              band and Fermi energies.

     convergence has been achieved in   5 iterations
 forces lc
       1    0.0753    0.0001   -0.0000
       2    0.0315    0.0439   -0.0000
       3    0.0278    0.0295   -0.0000
       4    0.0356   -0.0000   -0.0000
       5    0.0279   -0.0295    0.0000
       6    0.0316   -0.0439    0.0000
       7    0.0022    0.0206   -0.0000
       8    0.0070    0.0128   -0.0000
       9    0.0126   -0.0000   -0.0000
      10    0.0070   -0.0128    0.0000
      11    0.0022   -0.0206    0.0000

     Forces acting on atoms (cartesian axes, Ry/au):

     atom    1 type  1   force =    -0.04642588    0.00022796   -0.00001178
     atom    2 type  2   force =    -0.00576665   -0.06089634    0.00007903
     atom    3 type  2   force =     0.01765144    0.01598425   -0.00004622
     atom    4 type  2   force =     0.00773864    0.00004372    0.00000630
     atom    5 type  2   force =     0.01739470   -0.01618220    0.00000493
     atom    6 type  2   force =    -0.00558323    0.06062209   -0.00001655
     atom    7 type  3   force =     0.00301139   -0.00083908    0.00002528
     atom    8 type  3   force =     0.00584015   -0.00118488   -0.00003927
     atom    9 type  3   force =    -0.00265540   -0.00005510    0.00002932
     atom   10 type  3   force =     0.00574880    0.00138716   -0.00002978
     atom   11 type  3   force =     0.00304604    0.00089242   -0.00000126

     Total force =     0.104365     Total SCF correction =     0.037047
     SCF correction compared to forces is large: reduce conv_thr to get better values

     Writing output data file /Users/gabrielmedrano/Desktop/q-e/Environ/tests/../..//tempdir/pwscf.save/

     init_run     :     13.40s CPU     14.13s WALL (       1 calls)
     electrons    :     33.19s CPU     33.05s WALL (       1 calls)
     forces       :     18.21s CPU     18.53s WALL (       1 calls)

     Called by init_run:
     wfcinit      :      0.15s CPU      0.15s WALL (       1 calls)
     potinit      :      1.61s CPU      1.70s WALL (       1 calls)
     hinit0       :     10.93s CPU     11.34s WALL (       1 calls)

     Called by electrons:
     c_bands      :      1.34s CPU      1.10s WALL (       5 calls)
     sum_band     :      4.76s CPU      2.75s WALL (       5 calls)
     v_of_rho     :      3.34s CPU      3.80s WALL (       6 calls)
     newd         :      1.72s CPU      2.34s WALL (       6 calls)
     mix_rho      :      0.33s CPU      0.38s WALL (       5 calls)

     Called by c_bands:
     init_us_2    :      0.04s CPU      0.04s WALL (      11 calls)
     regterg      :      1.28s CPU      1.04s WALL (       5 calls)

     Called by *egterg:
     rdiaghg      :      0.00s CPU      0.00s WALL (      19 calls)
     h_psi        :      1.17s CPU      1.07s WALL (      20 calls)
     s_psi        :      0.09s CPU      0.01s WALL (      20 calls)
     g_psi        :      0.01s CPU      0.01s WALL (      14 calls)

     Called by h_psi:
     h_psi:calbec :      0.04s CPU      0.03s WALL (      20 calls)
     vloc_psi     :      0.99s CPU      0.99s WALL (      20 calls)
     add_vuspsi   :      0.15s CPU      0.04s WALL (      20 calls)

     General routines
     calbec       :      0.06s CPU      0.05s WALL (      29 calls)
     fft          :     10.93s CPU     11.40s WALL (     281 calls)
     ffts         :      0.05s CPU      0.05s WALL (      11 calls)
     fftw         :      0.90s CPU      0.90s WALL (     304 calls)
     interpolate  :      0.26s CPU      0.30s WALL (       6 calls)

     Parallel routines
     fft_scatt_xy :      0.93s CPU      0.93s WALL (     212 calls)
     fft_scatt_yz :      1.23s CPU      1.24s WALL (     212 calls)

     Environ routines
     calc_eelect  :      0.03s CPU      0.03s WALL (      10 calls)
     calc_velect  :     16.56s CPU     17.27s WALL (       8 calls)
     dielectric   :      0.27s CPU      0.31s WALL (       8 calls)
     electrolyte  :      0.01s CPU      0.01s WALL (       2 calls)
     calc_felect  :      0.40s CPU      0.42s WALL (       1 calls)

     PWSCF        :   1m 4.87s CPU   1m 5.89s WALL


   This run was terminated on:  10:32:32  22Jan2021            

=------------------------------------------------------------------------------=
   JOB DONE.
=------------------------------------------------------------------------------=
 Calling electrostatic_initbase now
 electrolyte_distance:    0.0000000000000000     
 sc_distance:    0.0000000000000000     
 velectrostatic started
 vreference created

%%%% IONS %%%%%%%%%%%%%%%%%%%%%%%%%%%%%%%%%%%%%%%%%%%%%%%%%%%%%%%%%%%%%%%%%%%%%%
 number of ions             =         11
 ionic center of charge     =      0.0072664     0.0000000     0.0001166
 total ionic charge         =    -30.0000000
 ionic dipole               =      0.0000000     0.0000000     0.0000000
 ionic quadrupole (pc)      =   -131.0719083  -146.7987081    -0.0000314
 ionic quadrupole (gauss)   =   -134.8219083  -150.5487081    -3.7500314
 ion   1 type =  1 coordinates =     -2.4454071     0.0000002     0.0030272
 ion   2 type =  2 coordinates =     -1.2331440     2.2473584     0.0020749
 ion   3 type =  2 coordinates =      1.3781229     2.2851921     0.0014627
 ion   4 type =  2 coordinates =      2.6939354     0.0000002     0.0013189
 ion   5 type =  2 coordinates =      1.3781232    -2.2851919     0.0026521
 ion   6 type =  2 coordinates =     -1.2331437    -2.2473574     0.0035464
 ion   7 type =  3 coordinates =     -2.4127312     3.9381412     0.0017094
 ion   8 type =  3 coordinates =      2.3590962     4.0987221     0.0008035
 ion   9 type =  3 coordinates =      4.7585861    -0.0000002     0.0000199
 ion  10 type =  3 coordinates =      2.3590968    -4.0987217     0.0032074
 ion  11 type =  3 coordinates =     -2.4127303    -3.9381403     0.0048805

%%%% SYSTEM %%%%%%%%%%%%%%%%%%%%%%%%%%%%%%%%%%%%%%%%%%%%%%%%%%%%%%%%%%%%%%%%%%%%
 system is built from all present ionic types
 system defined dimension   =  0 
 system defined axis        =  3 
 system center              =      0.0072664     0.0000000     0.0001166 
 system width               =      0.2348011 

%%%% IONS %%%%%%%%%%%%%%%%%%%%%%%%%%%%%%%%%%%%%%%%%%%%%%%%%%%%%%%%%%%%%%%%%%%%%%
 number of ions             =         11
 ionic center of charge     =      0.0072664     0.0000000     0.0001166
 total ionic charge         =    -30.0000000
 ionic dipole               =      0.0000000     0.0000000     0.0000000
 ionic quadrupole (pc)      =   -131.0719083  -146.7987081    -0.0000314
 ionic quadrupole (gauss)   =   -134.8219083  -150.5487081    -3.7500314
 ion   1 type =  1 coordinates =     -2.4454071     0.0000002     0.0030272
 ion   2 type =  2 coordinates =     -1.2331440     2.2473584     0.0020749
 ion   3 type =  2 coordinates =      1.3781229     2.2851921     0.0014627
 ion   4 type =  2 coordinates =      2.6939354     0.0000002     0.0013189
 ion   5 type =  2 coordinates =      1.3781232    -2.2851919     0.0026521
 ion   6 type =  2 coordinates =     -1.2331437    -2.2473574     0.0035464
 ion   7 type =  3 coordinates =     -2.4127312     3.9381412     0.0017094
 ion   8 type =  3 coordinates =      2.3590962     4.0987221     0.0008035
 ion   9 type =  3 coordinates =      4.7585861    -0.0000002     0.0000199
 ion  10 type =  3 coordinates =      2.3590968    -4.0987217     0.0032074
 ion  11 type =  3 coordinates =     -2.4127303    -3.9381403     0.0048805

%%%% SYSTEM %%%%%%%%%%%%%%%%%%%%%%%%%%%%%%%%%%%%%%%%%%%%%%%%%%%%%%%%%%%%%%%%%%%%
 system is built from all present ionic types
 system defined dimension   =  0 
 system defined axis        =  3 
 system center              =      0.0072664     0.0000000     0.0001166 
 system width               =      0.2348011 

%%%% DIELECTRIC %%%%%%%%%%%%%%%%%%%%%%%%%%%%%%%%%%%%%%%%%%%%%%%%%%%%%%%%%%%%%%%%%
 dielectric build on homogeneous background
 environment bulk permitt.  =     20.0000000 
 dielectric flags
 need gradient              =  F 
 need factor depend. sqrt   =  T 
 total dielectric charge    =      0.0000000

%%%% BOUNDARY %%%%%%%%%%%%%%%%%%%%%%%%%%%%%%%%%%%%%%%%%%%%%%%%%%%%%%%%%%%%%%%%%%
 boundary label             = electrolyte          
 boundary mode              = ionic                
 boundary is built from soft-spheres centered on ionic positions
 solvent-dependent scaling  =      1.5000000 
 softness parameter         =      0.5000000 
 volume of the QM region    =   1716.7618812 
 surface of the QM region   =    717.2136617 

%%%% ELECTROLYTE %%%%%%%%%%%%%%%%%%%%%%%%%%%%%%%%%%%%%%%%%%%%%%%%%%%%%%%%%%%%%%%%
 number electrol. species   =    2
 solvent temperature        =   300.0
 Debye length / sqrt(eps)   =      0.2301070
 modified Poisson-Boltzmann 
 maximum concentration      =      0.0190986
 electrolyte species    1
 bulk concentration  (a.u.) =      0.7139E-03
 bulk concentration (mol/L) =      8.0000000
 ionic charge               =   -1.00
 electrolyte species    2
 bulk concentration  (a.u.) =      0.7139E-03
 bulk concentration (mol/L) =      8.0000000
 ionic charge               =    1.00
 electrolyte flags
 linearized                 =  T
 total electrolyte charge   =      0.0000000

%%%% ELECTRONS %%%%%%%%%%%%%%%%%%%%%%%%%%%%%%%%%%%%%%%%%%%%%%%%%%%%%%%%%%%%%%%%%
 number of electrons        =         30
 total electronic charge    =     30.0000000

%%%% ELECTRONS %%%%%%%%%%%%%%%%%%%%%%%%%%%%%%%%%%%%%%%%%%%%%%%%%%%%%%%%%%%%%%%%%
 number of electrons        =         30
 total electronic charge    =     30.0000000

%%%% BOUNDARY %%%%%%%%%%%%%%%%%%%%%%%%%%%%%%%%%%%%%%%%%%%%%%%%%%%%%%%%%%%%%%%%%%
 boundary label             = solvent              
 boundary mode              = electronic           
 boundary is built as a function of a smooth density
 function type              =  2 
 using the modified SCCS function with parameters 
 rhomax                     =      0.0050000 
 rhomin                     =      0.0001000 
 volume of the QM region    =   2407.1059940 
 surface of the QM region   =    815.5587045 

%%%% DIELECTRIC %%%%%%%%%%%%%%%%%%%%%%%%%%%%%%%%%%%%%%%%%%%%%%%%%%%%%%%%%%%%%%%%%
 dielectric build on homogeneous background
 environment bulk permitt.  =     20.0000000 
 dielectric flags
 need gradient              =  F 
 need factor depend. sqrt   =  T 
 total dielectric charge    =      0.0000000

%%%% DENSITY %%%%%%%%%%%%%%%%%%%%%%%%%%%%%%%%%%%%%%%%%%%%%%%%%%%%%%%%%%%%%%%%%%%
 density label              = dvtot                                                                           
 integral of density        =      0.000000000    

%%%% DENSITY %%%%%%%%%%%%%%%%%%%%%%%%%%%%%%%%%%%%%%%%%%%%%%%%%%%%%%%%%%%%%%%%%%%
 density label              = vreference                                                                      
 integral of density        =      0.000000000    

%%%% DENSITY %%%%%%%%%%%%%%%%%%%%%%%%%%%%%%%%%%%%%%%%%%%%%%%%%%%%%%%%%%%%%%%%%%%
 density label              = velectrostatic                                                                  
 integral of density        =      0.000000000    

%%%% CHARGES %%%%%%%%%%%%%%%%%%%%%%%%%%%%%%%%%%%%%%%%%%%%%%%%%%%%%%%%%%%%%%%%%%%
 total number of charges    =         41
 total charge               =     -0.0000000

%%%% DENSITY %%%%%%%%%%%%%%%%%%%%%%%%%%%%%%%%%%%%%%%%%%%%%%%%%%%%%%%%%%%%%%%%%%%
 density label              = vsoftcavity                                                                     
 integral of density        =      0.000000000    

%%%% ELECTRONS %%%%%%%%%%%%%%%%%%%%%%%%%%%%%%%%%%%%%%%%%%%%%%%%%%%%%%%%%%%%%%%%%
 number of electrons        =         30
 total electronic charge    =     30.0000000

%%%% ELECTRONS %%%%%%%%%%%%%%%%%%%%%%%%%%%%%%%%%%%%%%%%%%%%%%%%%%%%%%%%%%%%%%%%%
 number of electrons        =         30
 total electronic charge    =     30.0000000

%%%% BOUNDARY %%%%%%%%%%%%%%%%%%%%%%%%%%%%%%%%%%%%%%%%%%%%%%%%%%%%%%%%%%%%%%%%%%
 boundary label             = solvent              
 boundary mode              = electronic           
 boundary is built as a function of a smooth density
 function type              =  2 
 using the modified SCCS function with parameters 
 rhomax                     =      0.0050000 
 rhomin                     =      0.0001000 
 volume of the QM region    =   1079.4809383 
 surface of the QM region   =    528.9398834 

%%%% DIELECTRIC %%%%%%%%%%%%%%%%%%%%%%%%%%%%%%%%%%%%%%%%%%%%%%%%%%%%%%%%%%%%%%%%%
 dielectric build on homogeneous background
 environment bulk permitt.  =     20.0000000 
 dielectric flags
 need gradient              =  F 
 need factor depend. sqrt   =  T 
 total dielectric charge    =      0.0000000

%%%% DENSITY %%%%%%%%%%%%%%%%%%%%%%%%%%%%%%%%%%%%%%%%%%%%%%%%%%%%%%%%%%%%%%%%%%%
 density label              = vreference                                                                      
 integral of density        =    -0.2151175071E-11

%%%% COMPUTE ELECTROSTATIC POTENTIAL %%%%%%%%%%%%%%%%%%%%%%%%%%%%%%%%%%%%%%%%%%%
 Iteration #          1
  pAp =    124.77441152326269       rzold =    121.18010664674728       alpha =   0.97119357380543292     
 delta_qm =   0.157651E-01 delta_en =   0.429475E+03 tol =   0.100000E-04
 Iteration #          2
  pAp =    6287.8042828059070       rzold =    140.54472008012542       alpha =    2.2351955270689169E-002
 delta_qm =   0.351379E-02 delta_en =   0.213352E+02 tol =   0.100000E-04
 Iteration #          3
  pAp =    10.143679067969257       rzold =    1.3371466624540169       alpha =   0.13182067901540095     
 delta_qm =   0.150540E-02 delta_en =   0.391604E+01 tol =   0.100000E-04
 Iteration #          4
  pAp =   0.75359676029132527       rzold =   0.13465212298415993       alpha =   0.17867927528258765     
 delta_qm =   0.696630E-03 delta_en =   0.838587E+00 tol =   0.100000E-04
 Iteration #          5
  pAp =   0.45723273698316907       rzold =    4.3841787480699446E-002  alpha =    9.5885057946568861E-002
 delta_qm =   0.419365E-03 delta_en =   0.303898E+00 tol =   0.100000E-04
 Iteration #          6
  pAp =    8.6075871936524051E-002  rzold =    1.1849829381410807E-002  alpha =   0.13766725930060131     
 delta_qm =   0.231294E-03 delta_en =   0.924430E-01 tol =   0.100000E-04
 Iteration #          7
  pAp =    1.0268037810090298E-002  rzold =    1.9429131793362309E-003  alpha =   0.18921951937369666     
 delta_qm =   0.124135E-03 delta_en =   0.266275E-01 tol =   0.100000E-04
 Iteration #          8
  pAp =    1.4112500727098791E-003  rzold =    2.5277314528412883E-004  alpha =   0.17911293694302841     
 delta_qm =   0.915614E-04 delta_en =   0.144867E-01 tol =   0.100000E-04
 Iteration #          9
  pAp =    2.1459456014744070E-003  rzold =    2.9362487909243365E-004  alpha =   0.13682773640240176     
 delta_qm =   0.472671E-04 delta_en =   0.386066E-02 tol =   0.100000E-04
 Iteration #         10
  pAp =    1.1316723048070266E-004  rzold =    3.4140600777576364E-005  alpha =   0.30168274537210699     
 delta_qm =   0.239424E-04 delta_en =   0.990554E-03 tol =   0.100000E-04
 Iteration #         11
  pAp =    8.9041932797982929E-005  rzold =    1.5764984780577844E-005  alpha =   0.17705124187213250     
 delta_qm =   0.127466E-04 delta_en =   0.280757E-03 tol =   0.100000E-04
 Iteration #         12
  pAp =    1.8396580254630713E-005  rzold =    4.0212589230573400E-006  alpha =   0.21858730630357917     
 delta_qm =   0.640193E-05 delta_en =   0.708216E-04 tol =   0.100000E-04
 Iteration #         13
  pAp =    2.0146430214429351E-005  rzold =    1.7151206854428050E-006  alpha =    8.5132734047066796E-002
 delta_qm =   0.456806E-05 delta_en =   0.360584E-04 tol =   0.100000E-04
 Iteration #         14
  pAp =    1.8007714787093851E-006  rzold =    4.0568259367397739E-007  alpha =   0.22528266272005293     
 delta_qm =   0.272661E-05 delta_en =   0.128467E-04 tol =   0.100000E-04
 Iteration #         15
  pAp =    2.6613110036945112E-005  rzold =    7.3879965610715575E-007  alpha =    2.7760741043851397E-002
 delta_qm =   0.192238E-05 delta_en =   0.638592E-05 tol =   0.100000E-04
 Charges are converged, EXIT

%%%% DENSITY %%%%%%%%%%%%%%%%%%%%%%%%%%%%%%%%%%%%%%%%%%%%%%%%%%%%%%%%%%%%%%%%%%%
 density label              = velectrostatic                                                                  
 integral of density        =     -280.0293958    

%%%% CHARGES %%%%%%%%%%%%%%%%%%%%%%%%%%%%%%%%%%%%%%%%%%%%%%%%%%%%%%%%%%%%%%%%%%%
 total number of charges    =         41
 total charge               =     -0.0000000

%%%% DENSITY %%%%%%%%%%%%%%%%%%%%%%%%%%%%%%%%%%%%%%%%%%%%%%%%%%%%%%%%%%%%%%%%%%%
 density label              = vsoftcavity                                                                     
 integral of density        =      16.21787250    

%%%% DENSITY %%%%%%%%%%%%%%%%%%%%%%%%%%%%%%%%%%%%%%%%%%%%%%%%%%%%%%%%%%%%%%%%%%%
 density label              = dvtot                                                                           
 integral of density        =     -263.8115233    

%%%% ELECTRONS %%%%%%%%%%%%%%%%%%%%%%%%%%%%%%%%%%%%%%%%%%%%%%%%%%%%%%%%%%%%%%%%%
 number of electrons        =         30
 total electronic charge    =     30.0000000

%%%% ELECTRONS %%%%%%%%%%%%%%%%%%%%%%%%%%%%%%%%%%%%%%%%%%%%%%%%%%%%%%%%%%%%%%%%%
 number of electrons        =         30
 total electronic charge    =     30.0000000

%%%% BOUNDARY %%%%%%%%%%%%%%%%%%%%%%%%%%%%%%%%%%%%%%%%%%%%%%%%%%%%%%%%%%%%%%%%%%
 boundary label             = solvent              
 boundary mode              = electronic           
 boundary is built as a function of a smooth density
 function type              =  2 
 using the modified SCCS function with parameters 
 rhomax                     =      0.0050000 
 rhomin                     =      0.0001000 
 volume of the QM region    =   1004.0992978 
 surface of the QM region   =    509.9885674 

%%%% DIELECTRIC %%%%%%%%%%%%%%%%%%%%%%%%%%%%%%%%%%%%%%%%%%%%%%%%%%%%%%%%%%%%%%%%%
 dielectric build on homogeneous background
 environment bulk permitt.  =     20.0000000 
 dielectric flags
 need gradient              =  F 
 need factor depend. sqrt   =  T 
 total dielectric charge    =     -0.0027455

%%%% DENSITY %%%%%%%%%%%%%%%%%%%%%%%%%%%%%%%%%%%%%%%%%%%%%%%%%%%%%%%%%%%%%%%%%%%
 density label              = vreference                                                                      
 integral of density        =     0.1123414890E-10

%%%% COMPUTE ELECTROSTATIC POTENTIAL %%%%%%%%%%%%%%%%%%%%%%%%%%%%%%%%%%%%%%%%%%%
 Warning: bad guess with residual norm =   0.243757E+03, reset to no guess
 Iteration #          1
  pAp =    124.08448113227028       rzold =    122.27928292515810       alpha =   0.98545186158140197     
 delta_qm =   0.117579E-01 delta_en =   0.238894E+03 tol =   0.100000E-04
 Iteration #          2
  pAp =    3212.8284262852903       rzold =    70.315171611980929       alpha =    2.1885753698114577E-002
 delta_qm =   0.330852E-02 delta_en =   0.189152E+02 tol =   0.100000E-04
 Iteration #          3
  pAp =    13.501251171400142       rzold =    1.2525267881935973       alpha =    9.2771164116022029E-002
 delta_qm =   0.175461E-02 delta_en =   0.531994E+01 tol =   0.100000E-04
 Iteration #          4
  pAp =    2.9032103167252625       rzold =   0.30591353400566035       alpha =   0.10537077945862426     
 delta_qm =   0.891637E-03 delta_en =   0.137379E+01 tol =   0.100000E-04
 Iteration #          5
  pAp =   0.32320896737017102       rzold =    5.1164642767900025E-002  alpha =   0.15830205202599218     
 delta_qm =   0.354611E-03 delta_en =   0.217294E+00 tol =   0.100000E-04
 Iteration #          6
  pAp =    2.8149615228946514E-002  rzold =    5.2601107941988821E-003  alpha =   0.18686261788721931     
 delta_qm =   0.179761E-03 delta_en =   0.558387E-01 tol =   0.100000E-04
 Iteration #          7
  pAp =    4.9922274638712965E-003  rzold =    9.2710202205681770E-004  alpha =   0.18570909053448514     
 delta_qm =   0.112441E-03 delta_en =   0.218472E-01 tol =   0.100000E-04
 Iteration #          8
  pAp =    5.8235106051393603E-004  rzold =    1.5124864841208326E-004  alpha =   0.25972074006116419     
 delta_qm =   0.712391E-04 delta_en =   0.876960E-02 tol =   0.100000E-04
 Iteration #          9
  pAp =    1.9587807562496816E-003  rzold =    1.9094213437125830E-004  alpha =    9.7480095085699991E-002
 delta_qm =   0.436642E-04 delta_en =   0.329454E-02 tol =   0.100000E-04
 Iteration #         10
  pAp =    9.0167484018007754E-005  rzold =    2.6709061363393199E-005  alpha =   0.29621610998992731     
 delta_qm =   0.204946E-04 delta_en =   0.725811E-03 tol =   0.100000E-04
 Iteration #         11
  pAp =    7.4856300266783310E-005  rzold =    1.1500659936026787E-005  alpha =   0.15363649946683355     
 delta_qm =   0.123612E-04 delta_en =   0.264036E-03 tol =   0.100000E-04
 Iteration #         12
  pAp =    1.2126565109397405E-005  rzold =    2.3837253416827188E-006  alpha =   0.19657053091113708     
 delta_qm =   0.819976E-05 delta_en =   0.116184E-03 tol =   0.100000E-04
 Iteration #         13
  pAp =    2.1476864163111325E-005  rzold =    2.1947820812764659E-006  alpha =   0.10219285574503120     
 delta_qm =   0.533575E-05 delta_en =   0.491966E-04 tol =   0.100000E-04
 Iteration #         14
  pAp =    1.0736641646328766E-006  rzold =    2.5613794773368488E-007  alpha =   0.23856430732347991     
 delta_qm =   0.431485E-05 delta_en =   0.321717E-04 tol =   0.100000E-04
 Iteration #         15
  pAp =    2.5669337811060552E-005  rzold =    8.4972427277803507E-007  alpha =    3.3102695481762721E-002
 delta_qm =   0.328190E-05 delta_en =   0.186121E-04 tol =   0.100000E-04
 Iteration #         16
  pAp =    1.5928615123802402E-007  rzold =    7.2833545969984987E-008  alpha =   0.45724970691989775     
 delta_qm =   0.161586E-05 delta_en =   0.451180E-05 tol =   0.100000E-04
 Charges are converged, EXIT

%%%% DENSITY %%%%%%%%%%%%%%%%%%%%%%%%%%%%%%%%%%%%%%%%%%%%%%%%%%%%%%%%%%%%%%%%%%%
 density label              = velectrostatic                                                                  
 integral of density        =     -282.1376664    

%%%% CHARGES %%%%%%%%%%%%%%%%%%%%%%%%%%%%%%%%%%%%%%%%%%%%%%%%%%%%%%%%%%%%%%%%%%%
 total number of charges    =         41
 total charge               =      0.0000000

%%%% DENSITY %%%%%%%%%%%%%%%%%%%%%%%%%%%%%%%%%%%%%%%%%%%%%%%%%%%%%%%%%%%%%%%%%%%
 density label              = vsoftcavity                                                                     
 integral of density        =      9.376078890    

%%%% DENSITY %%%%%%%%%%%%%%%%%%%%%%%%%%%%%%%%%%%%%%%%%%%%%%%%%%%%%%%%%%%%%%%%%%%
 density label              = dvtot                                                                           
 integral of density        =     -272.7615875    

%%%% ELECTRONS %%%%%%%%%%%%%%%%%%%%%%%%%%%%%%%%%%%%%%%%%%%%%%%%%%%%%%%%%%%%%%%%%
 number of electrons        =         30
 total electronic charge    =     30.0000000

%%%% ELECTRONS %%%%%%%%%%%%%%%%%%%%%%%%%%%%%%%%%%%%%%%%%%%%%%%%%%%%%%%%%%%%%%%%%
 number of electrons        =         30
 total electronic charge    =     30.0000000

%%%% BOUNDARY %%%%%%%%%%%%%%%%%%%%%%%%%%%%%%%%%%%%%%%%%%%%%%%%%%%%%%%%%%%%%%%%%%
 boundary label             = solvent              
 boundary mode              = electronic           
 boundary is built as a function of a smooth density
 function type              =  2 
 using the modified SCCS function with parameters 
 rhomax                     =      0.0050000 
 rhomin                     =      0.0001000 
 volume of the QM region    =    976.6891828 
 surface of the QM region   =    504.0763506 

%%%% DIELECTRIC %%%%%%%%%%%%%%%%%%%%%%%%%%%%%%%%%%%%%%%%%%%%%%%%%%%%%%%%%%%%%%%%%
 dielectric build on homogeneous background
 environment bulk permitt.  =     20.0000000 
 dielectric flags
 need gradient              =  F 
 need factor depend. sqrt   =  T 
 total dielectric charge    =     -0.0007250

%%%% DENSITY %%%%%%%%%%%%%%%%%%%%%%%%%%%%%%%%%%%%%%%%%%%%%%%%%%%%%%%%%%%%%%%%%%%
 density label              = vreference                                                                      
 integral of density        =     0.3136252575E-11

%%%% COMPUTE ELECTROSTATIC POTENTIAL %%%%%%%%%%%%%%%%%%%%%%%%%%%%%%%%%%%%%%%%%%%
 Warning: bad guess with residual norm =   0.167689E+03, reset to no guess
 Iteration #          1
  pAp =    123.73164607183683       rzold =    122.59427296310230       alpha =   0.99080774284636774     
 delta_qm =   0.978641E-02 delta_en =   0.165497E+03 tol =   0.100000E-04
 Iteration #          2
  pAp =    2006.5677734076889       rzold =    43.478846947033041       alpha =    2.1668267338508247E-002
 delta_qm =   0.312529E-02 delta_en =   0.168781E+02 tol =   0.100000E-04
 Iteration #          3
  pAp =    10.679784535649487       rzold =   0.98511064507711066       alpha =    9.2240685361092964E-002
 delta_qm =   0.162183E-02 delta_en =   0.454523E+01 tol =   0.100000E-04
 Iteration #          4
  pAp =    2.2786067618618939       rzold =   0.24300367172524015       alpha =   0.10664572570945814     
 delta_qm =   0.827815E-03 delta_en =   0.118416E+01 tol =   0.100000E-04
 Iteration #          5
  pAp =   0.29092343303039381       rzold =    4.5109851324953765E-002  alpha =   0.15505746943471885     
 delta_qm =   0.338542E-03 delta_en =   0.198048E+00 tol =   0.100000E-04
 Iteration #          6
  pAp =    2.3193596709014139E-002  rzold =    4.5060448086385900E-003  alpha =   0.19427969129459449     
 delta_qm =   0.164137E-03 delta_en =   0.465542E-01 tol =   0.100000E-04
 Iteration #          7
  pAp =    3.9005789525196934E-003  rzold =    7.1556047545023426E-004  alpha =   0.18344981197932092     
 delta_qm =   0.110546E-03 delta_en =   0.211167E-01 tol =   0.100000E-04
 Iteration #          8
  pAp =    4.6057455229161012E-004  rzold =    1.3933679876307534E-004  alpha =   0.30252821843890121     
 delta_qm =   0.616614E-04 delta_en =   0.657008E-02 tol =   0.100000E-04
 Iteration #          9
  pAp =    1.5127082375623933E-003  rzold =    1.2862802765866604E-004  alpha =    8.5031617112060989E-002
 delta_qm =   0.429052E-04 delta_en =   0.318100E-02 tol =   0.100000E-04
 Iteration #         10
  pAp =    8.3666330818018278E-005  rzold =    2.4365652049349452E-005  alpha =   0.29122410187135989     
 delta_qm =   0.208442E-04 delta_en =   0.750783E-03 tol =   0.100000E-04
 Iteration #         11
  pAp =    6.6160192752270474E-005  rzold =    1.0213324398490719E-005  alpha =   0.15437265179582205     
 delta_qm =   0.137083E-04 delta_en =   0.324720E-03 tol =   0.100000E-04
 Iteration #         12
  pAp =    8.0653215267938961E-006  rzold =    2.0765862904945243E-006  alpha =   0.25747098656834366     
 delta_qm =   0.829117E-05 delta_en =   0.118789E-03 tol =   0.100000E-04
 Iteration #         13
  pAp =    1.9129263945929375E-005  rzold =    1.6073278440131426E-006  alpha =    8.4024552568065486E-002
 delta_qm =   0.655330E-05 delta_en =   0.742103E-04 tol =   0.100000E-04
 Iteration #         14
  pAp =    2.6740018689397502E-006  rzold =    3.2261799196049262E-007  alpha =   0.12064987527043564     
 delta_qm =   0.525702E-05 delta_en =   0.477555E-04 tol =   0.100000E-04
 Iteration #         15
  pAp =    1.4866776391109521E-005  rzold =    1.0567983836468563E-006  alpha =    7.1084568425932082E-002
 delta_qm =   0.396794E-05 delta_en =   0.272066E-04 tol =   0.100000E-04
 Iteration #         16
  pAp =    2.6538196190707380E-007  rzold =    1.1210934240688441E-007  alpha =   0.42244522423924441     
 delta_qm =   0.189018E-05 delta_en =   0.617377E-05 tol =   0.100000E-04
 Charges are converged, EXIT

%%%% DENSITY %%%%%%%%%%%%%%%%%%%%%%%%%%%%%%%%%%%%%%%%%%%%%%%%%%%%%%%%%%%%%%%%%%%
 density label              = velectrostatic                                                                  
 integral of density        =     -275.9566981    

%%%% CHARGES %%%%%%%%%%%%%%%%%%%%%%%%%%%%%%%%%%%%%%%%%%%%%%%%%%%%%%%%%%%%%%%%%%%
 total number of charges    =         41
 total charge               =     -0.0000000

%%%% DENSITY %%%%%%%%%%%%%%%%%%%%%%%%%%%%%%%%%%%%%%%%%%%%%%%%%%%%%%%%%%%%%%%%%%%
 density label              = vsoftcavity                                                                     
 integral of density        =      7.850418637    

%%%% DENSITY %%%%%%%%%%%%%%%%%%%%%%%%%%%%%%%%%%%%%%%%%%%%%%%%%%%%%%%%%%%%%%%%%%%
 density label              = dvtot                                                                           
 integral of density        =     -268.1062795    

%%%% ELECTRONS %%%%%%%%%%%%%%%%%%%%%%%%%%%%%%%%%%%%%%%%%%%%%%%%%%%%%%%%%%%%%%%%%
 number of electrons        =         30
 total electronic charge    =     30.0000000

%%%% ELECTRONS %%%%%%%%%%%%%%%%%%%%%%%%%%%%%%%%%%%%%%%%%%%%%%%%%%%%%%%%%%%%%%%%%
 number of electrons        =         30
 total electronic charge    =     30.0000000

%%%% BOUNDARY %%%%%%%%%%%%%%%%%%%%%%%%%%%%%%%%%%%%%%%%%%%%%%%%%%%%%%%%%%%%%%%%%%
 boundary label             = solvent              
 boundary mode              = electronic           
 boundary is built as a function of a smooth density
 function type              =  2 
 using the modified SCCS function with parameters 
 rhomax                     =      0.0050000 
 rhomin                     =      0.0001000 
 volume of the QM region    =    970.6045927 
 surface of the QM region   =    503.3750612 

%%%% DIELECTRIC %%%%%%%%%%%%%%%%%%%%%%%%%%%%%%%%%%%%%%%%%%%%%%%%%%%%%%%%%%%%%%%%%
 dielectric build on homogeneous background
 environment bulk permitt.  =     20.0000000 
 dielectric flags
 need gradient              =  F 
 need factor depend. sqrt   =  T 
 total dielectric charge    =      0.0001589

%%%% DENSITY %%%%%%%%%%%%%%%%%%%%%%%%%%%%%%%%%%%%%%%%%%%%%%%%%%%%%%%%%%%%%%%%%%%
 density label              = vreference                                                                      
 integral of density        =     0.3488160892E-11

%%%% COMPUTE ELECTROSTATIC POTENTIAL %%%%%%%%%%%%%%%%%%%%%%%%%%%%%%%%%%%%%%%%%%%
 Warning: bad guess with residual norm =   0.145321E+03, reset to no guess
 Iteration #          1
  pAp =    123.65905150999538       rzold =    122.70910752551974       alpha =   0.99231803921446982     
 delta_qm =   0.911953E-02 delta_en =   0.143711E+03 tol =   0.100000E-04
 Iteration #          2
  pAp =    1610.3178156828531       rzold =    35.030645358838107       alpha =    2.1753870582362906E-002
 delta_qm =   0.319837E-02 delta_en =   0.176768E+02 tol =   0.100000E-04
 Iteration #          3
  pAp =    12.130659512396029       rzold =    1.0429519167081596       alpha =    8.5976522186810372E-002
 delta_qm =   0.167091E-02 delta_en =   0.482449E+01 tol =   0.100000E-04
 Iteration #          4
  pAp =    2.1880922601420267       rzold =   0.24651560860655261       alpha =   0.11266234660075601     
 delta_qm =   0.817313E-03 delta_en =   0.115430E+01 tol =   0.100000E-04
 Iteration #          5
  pAp =   0.28641768664200346       rzold =    4.3913595989828615E-002  alpha =   0.15332012664677616     
 delta_qm =   0.338233E-03 delta_en =   0.197686E+00 tol =   0.100000E-04
 Iteration #          6
  pAp =    2.1358414739512905E-002  rzold =    4.2838456866147578E-003  alpha =   0.20056945886951413     
 delta_qm =   0.158994E-03 delta_en =   0.436820E-01 tol =   0.100000E-04
 Iteration #          7
  pAp =    3.4817025322879040E-003  rzold =    6.3908650210537494E-004  alpha =   0.18355574497785054     
 delta_qm =   0.111346E-03 delta_en =   0.214234E-01 tol =   0.100000E-04
 Iteration #          8
  pAp =    4.5106049866478994E-004  rzold =    1.4027805059846536E-004  alpha =   0.31099608813831064     
 delta_qm =   0.594070E-04 delta_en =   0.609844E-02 tol =   0.100000E-04
 Iteration #          9
  pAp =    1.1989028187805626E-003  rzold =    1.0207229576001059E-004  alpha =    8.5138089727598745E-002
 delta_qm =   0.436095E-04 delta_en =   0.328628E-02 tol =   0.100000E-04
 Iteration #         10
  pAp =    9.1220868851874545E-005  rzold =    2.5575768268708699E-005  alpha =   0.28037189944155122     
 delta_qm =   0.214598E-04 delta_en =   0.795786E-03 tol =   0.100000E-04
 Iteration #         11
  pAp =    6.2688938042123016E-005  rzold =    9.6575890895675716E-006  alpha =   0.15405571367436915     
 delta_qm =   0.148088E-04 delta_en =   0.378952E-03 tol =   0.100000E-04
 Iteration #         12
  pAp =    7.5616503954037405E-006  rzold =    2.1138977860352730E-006  alpha =   0.27955508063691764     
 delta_qm =   0.889790E-05 delta_en =   0.136810E-03 tol =   0.100000E-04
 Iteration #         13
  pAp =    1.6469907802117984E-005  rzold =    1.3691412795506892E-006  alpha =    8.3129869092201075E-002
 delta_qm =   0.722305E-05 delta_en =   0.901541E-04 tol =   0.100000E-04
 Iteration #         14
  pAp =    2.8199093517482528E-006  rzold =    3.7442153587627024E-007  alpha =   0.13277786239622949     
 delta_qm =   0.668307E-05 delta_en =   0.771783E-04 tol =   0.100000E-04
 Iteration #         15
  pAp =    2.0058571423751351E-005  rzold =    1.3413141299859445E-006  alpha =    6.6869873314990655E-002
 delta_qm =   0.430787E-05 delta_en =   0.320678E-04 tol =   0.100000E-04
 Iteration #         16
  pAp =    3.5835063820531312E-007  rzold =    1.4189085128295609E-007  alpha =   0.39595534695730406     
 delta_qm =   0.205127E-05 delta_en =   0.727089E-05 tol =   0.100000E-04
 Charges are converged, EXIT

%%%% DENSITY %%%%%%%%%%%%%%%%%%%%%%%%%%%%%%%%%%%%%%%%%%%%%%%%%%%%%%%%%%%%%%%%%%%
 density label              = velectrostatic                                                                  
 integral of density        =     -274.1063338    

%%%% CHARGES %%%%%%%%%%%%%%%%%%%%%%%%%%%%%%%%%%%%%%%%%%%%%%%%%%%%%%%%%%%%%%%%%%%
 total number of charges    =         41
 total charge               =     -0.0000000

%%%% DENSITY %%%%%%%%%%%%%%%%%%%%%%%%%%%%%%%%%%%%%%%%%%%%%%%%%%%%%%%%%%%%%%%%%%%
 density label              = vsoftcavity                                                                     
 integral of density        =      7.603347013    

%%%% DENSITY %%%%%%%%%%%%%%%%%%%%%%%%%%%%%%%%%%%%%%%%%%%%%%%%%%%%%%%%%%%%%%%%%%%
 density label              = dvtot                                                                           
 integral of density        =     -266.5029868    

%%%% ELECTRONS %%%%%%%%%%%%%%%%%%%%%%%%%%%%%%%%%%%%%%%%%%%%%%%%%%%%%%%%%%%%%%%%%
 number of electrons        =         30
 total electronic charge    =     30.0000000

%%%% ELECTRONS %%%%%%%%%%%%%%%%%%%%%%%%%%%%%%%%%%%%%%%%%%%%%%%%%%%%%%%%%%%%%%%%%
 number of electrons        =         30
 total electronic charge    =     30.0000000

%%%% BOUNDARY %%%%%%%%%%%%%%%%%%%%%%%%%%%%%%%%%%%%%%%%%%%%%%%%%%%%%%%%%%%%%%%%%%
 boundary label             = solvent              
 boundary mode              = electronic           
 boundary is built as a function of a smooth density
 function type              =  2 
 using the modified SCCS function with parameters 
 rhomax                     =      0.0050000 
 rhomin                     =      0.0001000 
 volume of the QM region    =    970.6045927 
 surface of the QM region   =    503.3750612 

%%%% DIELECTRIC %%%%%%%%%%%%%%%%%%%%%%%%%%%%%%%%%%%%%%%%%%%%%%%%%%%%%%%%%%%%%%%%%
 dielectric build on homogeneous background
 environment bulk permitt.  =     20.0000000 
 dielectric flags
 need gradient              =  F 
 need factor depend. sqrt   =  T 
 total dielectric charge    =      0.0006491

%%%% DENSITY %%%%%%%%%%%%%%%%%%%%%%%%%%%%%%%%%%%%%%%%%%%%%%%%%%%%%%%%%%%%%%%%%%%
 density label              = dvtot                                                                           
 integral of density        =     -266.5029868    

%%%% DENSITY %%%%%%%%%%%%%%%%%%%%%%%%%%%%%%%%%%%%%%%%%%%%%%%%%%%%%%%%%%%%%%%%%%%
 density label              = vreference                                                                      
 integral of density        =     0.3488160892E-11

%%%% DENSITY %%%%%%%%%%%%%%%%%%%%%%%%%%%%%%%%%%%%%%%%%%%%%%%%%%%%%%%%%%%%%%%%%%%
 density label              = velectrostatic                                                                  
 integral of density        =     -274.1063338    

%%%% CHARGES %%%%%%%%%%%%%%%%%%%%%%%%%%%%%%%%%%%%%%%%%%%%%%%%%%%%%%%%%%%%%%%%%%%
 total number of charges    =         41
 total charge               =     -0.0000000

%%%% DENSITY %%%%%%%%%%%%%%%%%%%%%%%%%%%%%%%%%%%%%%%%%%%%%%%%%%%%%%%%%%%%%%%%%%%
 density label              = vsoftcavity                                                                     
 integral of density        =      7.603347013    
