
     Program PWSCF v.6.1 (svn rev. 13369) starts on  1Jan2018 at 14:49:17 

     This program is part of the open-source Quantum ESPRESSO suite
     for quantum simulation of materials; please cite
         "P. Giannozzi et al., J. Phys.:Condens. Matter 21 395502 (2009);
          URL http://www.quantum-espresso.org", 
     in publications or presentations arising from this work. More details at
     http://www.quantum-espresso.org/quote

     Serial version
     Reading input from pw.in

     Current dimensions of program PWSCF are:
     Max number of different atomic species (ntypx) = 10
     Max number of k-points (npk) =  40000
     Max angular momentum in pseudopotentials (lmaxx) =  3
               file N.pbe-rrkjus.UPF: wavefunction(s)  2S renormalized
               file C.pbe-rrkjus.UPF: wavefunction(s)  2S 2P renormalized
               file H.pbe-rrkjus.UPF: wavefunction(s)  1S renormalized

     gamma-point specific algorithms are used

     G-vector sticks info
     --------------------
     sticks:   dense  smooth     PW     G-vecs:    dense   smooth      PW
     Sum        9549    3809    949               701475   177509   22119



     bravais-lattice index     =            1
     lattice parameter (alat)  =      20.0000  a.u.
     unit-cell volume          =    8000.0000 (a.u.)^3
     number of atoms/cell      =           11
     number of atomic types    =            3
     number of electrons       =        30.00
     number of Kohn-Sham states=           15
     kinetic-energy cutoff     =      30.0000  Ry
     charge density cutoff     =     300.0000  Ry
     convergence threshold     =      5.0E-04
     mixing beta               =       0.7000
     number of iterations used =            8  plain     mixing
     Exchange-correlation      =  SLA  PW   PBE  PBE ( 1  4  3  4 0 0)


     Environ Module
     ==============

     Plese cite
         O. Andreussi, I. Dabo and N. Marzari, J. Chem. Phys. 136, 064102 (2012)         
     in publications or presentations arising from this work.

     compensation onset threshold      =               0.1000E+03 
     static permittivity               =                    20.00 
     epsilon calculation mode          =               electronic 

     Electrostatic Setup
     -------------------
     electrostatic problem to solve    = linmodpb                 
     numerical solver adopted          = cg                       
     type of auxiliary density adopted = none                     
     type of core tool for poisson     = fft                      
     type of core tool for s(r) deriv  = analytic                 



     celldm(1)=  20.000000  celldm(2)=   0.000000  celldm(3)=   0.000000
     celldm(4)=   0.000000  celldm(5)=   0.000000  celldm(6)=   0.000000

     crystal axes: (cart. coord. in units of alat)
               a(1) = (   1.000000   0.000000   0.000000 )  
               a(2) = (   0.000000   1.000000   0.000000 )  
               a(3) = (   0.000000   0.000000   1.000000 )  

     reciprocal axes: (cart. coord. in units 2 pi/alat)
               b(1) = (  1.000000  0.000000  0.000000 )  
               b(2) = (  0.000000  1.000000  0.000000 )  
               b(3) = (  0.000000  0.000000  1.000000 )  


     PseudoPot. # 1 for N  read from file:
     /Users/francesco/Programs/qe-6.1/Environ/tests/../..//pseudo/N.pbe-rrkjus.UPF
     MD5 check sum: 0c3fbe5807a93f9ba59d5a7019aa238b
     Pseudo is Ultrasoft, Zval =  5.0
     Generated by new atomic code, or converted to UPF format
     Using radial grid of 1257 points,  4 beta functions with: 
                l(1) =   0
                l(2) =   0
                l(3) =   1
                l(4) =   1
     Q(r) pseudized with 0 coefficients 


     PseudoPot. # 2 for C  read from file:
     /Users/francesco/Programs/qe-6.1/Environ/tests/../..//pseudo/C.pbe-rrkjus.UPF
     MD5 check sum: 00fb224312de0c5b6853bd333518df6f
     Pseudo is Ultrasoft, Zval =  4.0
     Generated by new atomic code, or converted to UPF format
     Using radial grid of  627 points,  4 beta functions with: 
                l(1) =   0
                l(2) =   0
                l(3) =   1
                l(4) =   1
     Q(r) pseudized with 0 coefficients 


     PseudoPot. # 3 for H  read from file:
     /Users/francesco/Programs/qe-6.1/Environ/tests/../..//pseudo/H.pbe-rrkjus.UPF
     MD5 check sum: 7cc9d459525c9a0585f487a71c3c9563
     Pseudo is Ultrasoft, Zval =  1.0
     Generated by new atomic code, or converted to UPF format
     Using radial grid of 1061 points,  2 beta functions with: 
                l(1) =   0
                l(2) =   0
     Q(r) pseudized with 0 coefficients 


     atomic species   valence    mass     pseudopotential
        N              5.00    14.00000     N ( 1.00)
        C              4.00    12.00000     C ( 1.00)
        H              1.00     1.00000     H ( 1.00)

     No symmetry found



   Cartesian axes

     site n.     atom                  positions (alat units)
         1           N   tau(   1) = (  -0.1222704   0.0000000   0.0001514  )
         2           C   tau(   2) = (  -0.0616572   0.1123679   0.0001037  )
         3           C   tau(   3) = (   0.0689061   0.1142596   0.0000731  )
         4           C   tau(   4) = (   0.1346968   0.0000000   0.0000659  )
         5           C   tau(   5) = (   0.0689062  -0.1142596   0.0001326  )
         6           C   tau(   6) = (  -0.0616572  -0.1123679   0.0001773  )
         7           H   tau(   7) = (  -0.1206366   0.1969071   0.0000855  )
         8           H   tau(   8) = (   0.1179548   0.2049361   0.0000402  )
         9           H   tau(   9) = (   0.2379293  -0.0000000   0.0000010  )
        10           H   tau(  10) = (   0.1179548  -0.2049361   0.0001604  )
        11           H   tau(  11) = (  -0.1206365  -0.1969070   0.0002440  )

     number of k points=     1
                       cart. coord. in units 2pi/alat
        k(    1) = (   0.0000000   0.0000000   0.0000000), wk =   2.0000000

     Dense  grid:   350738 G-vectors     FFT dimensions: ( 120, 120, 120)

     Smooth grid:    88755 G-vectors     FFT dimensions: (  72,  72,  72)

     Estimated max dynamical RAM per process >     300.59MB

     Initial potential from superposition of free atoms
     Check: negative starting charge=   -0.000446

     starting charge   29.51871, renormalised to   30.00000

     negative rho (up, down):  4.533E-04 0.000E+00
     Starting wfc are   29 randomized atomic wfcs

     total cpu time spent up to now is       13.4 secs

     Self-consistent Calculation

     iteration #  1     ecut=    30.00 Ry     beta=0.70
     Davidson diagonalization with overlap
     ethr =  1.00E-02,  avg # of iterations =  2.0

     negative rho (up, down):  1.360E-04 0.000E+00

     add environment contribution to local potential
     polarization accuracy = 6.6E-06, # of iterations =  15

     total cpu time spent up to now is       19.9 secs

     total energy              =     -82.25339246 Ry
     Harris-Foulkes estimate   =     -83.63778213 Ry
     estimated scf accuracy    <       2.07062237 Ry
     electrostatic embedding   =       0.00000000 Ry
     electrolyte free energy   =       0.00482715 Ry
     correction to one-el term =       0.00000000 Ry

     iteration #  2     ecut=    30.00 Ry     beta=0.70
     Davidson diagonalization with overlap
     ethr =  6.90E-03,  avg # of iterations =  3.0

     negative rho (up, down):  1.551E-04 0.000E+00

     add environment contribution to local potential
     polarization accuracy = 4.6E-06, # of iterations =  16

     total cpu time spent up to now is       26.7 secs

     total energy              =     -82.44713050 Ry
     Harris-Foulkes estimate   =     -82.81763527 Ry
     estimated scf accuracy    <       0.49786730 Ry
     electrostatic embedding   =      -0.02775189 Ry
     electrolyte free energy   =       0.00473637 Ry
     correction to one-el term =       0.07313373 Ry

     iteration #  3     ecut=    30.00 Ry     beta=0.70
     Davidson diagonalization with overlap
     ethr =  1.66E-03,  avg # of iterations =  4.0

     negative rho (up, down):  1.952E-04 0.000E+00

     add environment contribution to local potential
     polarization accuracy = 5.2E-06, # of iterations =  16

     total cpu time spent up to now is       33.4 secs

     total energy              =     -82.59188161 Ry
     Harris-Foulkes estimate   =     -83.25883448 Ry
     estimated scf accuracy    <       0.20620138 Ry
     electrostatic embedding   =      -0.02444743 Ry
     electrolyte free energy   =       0.00471858 Ry
     correction to one-el term =       0.58487753 Ry

     iteration #  4     ecut=    30.00 Ry     beta=0.70
     Davidson diagonalization with overlap
     ethr =  6.87E-04,  avg # of iterations =  4.0

     negative rho (up, down):  5.007E-05 0.000E+00

     add environment contribution to local potential
     polarization accuracy = 7.2E-06, # of iterations =  16

     total cpu time spent up to now is       40.0 secs

     total energy              =     -82.64261097 Ry
     Harris-Foulkes estimate   =     -83.44770399 Ry
     estimated scf accuracy    <       0.00852715 Ry
     electrostatic embedding   =      -0.01663946 Ry
     electrolyte free energy   =       0.00474785 Ry
     correction to one-el term =       0.81277396 Ry

     iteration #  5     ecut=    30.00 Ry     beta=0.70
     Davidson diagonalization with overlap
     ethr =  2.84E-05,  avg # of iterations =  4.0

     negative rho (up, down):  5.255E-05 0.000E+00

     add environment contribution to local potential
     polarization accuracy = 7.7E-06, # of iterations =  16

     total cpu time spent up to now is       46.7 secs

     total energy              =     -82.64561299 Ry
     Harris-Foulkes estimate   =     -83.60334547 Ry
     estimated scf accuracy    <       0.00114817 Ry
     electrostatic embedding   =      -0.01814266 Ry
     electrolyte free energy   =       0.00473335 Ry
     correction to one-el term =       0.97069787 Ry

     iteration #  6     ecut=    30.00 Ry     beta=0.70
     Davidson diagonalization with overlap
     ethr =  3.83E-06,  avg # of iterations =  3.0

     negative rho (up, down):  1.385E-04 0.000E+00

     total cpu time spent up to now is       49.2 secs

     End of self-consistent calculation

          k = 0.0000 0.0000 0.0000 ( 11060 PWs)   bands (ev):

   -23.2619 -19.6456 -18.8659 -15.3941 -15.2857 -12.8118 -11.6567 -11.2064
   -10.4484  -9.7879  -9.4676  -8.6937  -7.0545  -6.6514  -5.5906

     highest occupied level (ev):    -5.5906

!    total energy              =     -82.64588372 Ry
     Harris-Foulkes estimate   =     -83.64584335 Ry
     estimated scf accuracy    <       0.00008909 Ry

     The total energy is the sum of the following terms:

     one-electron contribution =    -292.43631072 Ry
     hartree contribution      =     149.40559377 Ry
     xc contribution           =     -25.97253975 Ry
     ewald contribution        =      85.35745671 Ry
     electrostatic embedding   =      -0.01803280 Ry
     electrolyte free energy   =       0.00473209 Ry
     correction to one-el term =       1.01321699 Ry

     convergence has been achieved in   6 iterations

     Forces acting on atoms (cartesian axes, Ry/au):

     atom    1 type  1   force =    -0.04642560    0.00000173    0.00000356
     atom    2 type  2   force =    -0.00609672   -0.06242456    0.00002608
     atom    3 type  2   force =     0.02085301    0.01692401   -0.00004607
     atom    4 type  2   force =     0.00615221   -0.00000311    0.00000578
     atom    5 type  2   force =     0.02086077   -0.01691336    0.00000644
     atom    6 type  2   force =    -0.00611325    0.06242562    0.00001167
     atom    7 type  3   force =     0.00204044    0.00194992    0.00000898
     atom    8 type  3   force =     0.00533210   -0.00365853   -0.00000835
     atom    9 type  3   force =    -0.00397850    0.00000265    0.00002917
     atom   10 type  3   force =     0.00533999    0.00364614   -0.00002496
     atom   11 type  3   force =     0.00203556   -0.00195051   -0.00001230

     Total force =     0.107793     Total SCF correction =     0.015457
     SCF correction compared to forces is large: reduce conv_thr to get better values

     Writing output data file pwscf.save

     init_run     :     12.60s CPU     13.36s WALL (       1 calls)
     electrons    :     32.75s CPU     35.79s WALL (       1 calls)
     forces       :     16.91s CPU     17.31s WALL (       1 calls)

     Called by init_run:
     wfcinit      :      0.15s CPU      0.15s WALL (       1 calls)
     potinit      :      1.66s CPU      1.75s WALL (       1 calls)

     Called by electrons:
     c_bands      :      1.49s CPU      1.43s WALL (       6 calls)
     sum_band     :      3.55s CPU      3.74s WALL (       6 calls)
     v_of_rho     :      4.55s CPU      4.87s WALL (       7 calls)
     newd         :      1.87s CPU      2.80s WALL (       7 calls)
     mix_rho      :      0.41s CPU      0.47s WALL (       6 calls)

     Called by c_bands:
     init_us_2    :      0.04s CPU      0.07s WALL (      13 calls)
     regterg      :      1.41s CPU      1.33s WALL (       6 calls)

     Called by sum_band:
     sum_band:bec :      0.00s CPU      0.00s WALL (       6 calls)
     addusdens    :      2.68s CPU      2.85s WALL (       6 calls)

     Called by *egterg:
     h_psi        :      1.32s CPU      1.28s WALL (      27 calls)
     s_psi        :      0.07s CPU      0.02s WALL (      27 calls)
     g_psi        :      0.01s CPU      0.01s WALL (      20 calls)
     rdiaghg      :      0.01s CPU      0.01s WALL (      26 calls)

     Called by h_psi:
     h_psi:pot    :      1.31s CPU      1.27s WALL (      27 calls)
     h_psi:calbec :      0.04s CPU      0.04s WALL (      27 calls)
     vloc_psi     :      1.20s CPU      1.21s WALL (      27 calls)
     add_vuspsi   :      0.07s CPU      0.02s WALL (      27 calls)

     General routines
     calbec       :      0.06s CPU      0.06s WALL (      37 calls)
     fft          :     10.83s CPU     10.84s WALL (     369 calls)
     ffts         :      0.06s CPU      0.06s WALL (      13 calls)
     fftw         :      1.11s CPU      1.11s WALL (     364 calls)
     interpolate  :      0.52s CPU      0.56s WALL (      13 calls)
     davcio       :      0.00s CPU      0.00s WALL (       1 calls)


     Environ routines
     calc_eelect  :      0.04s CPU      0.04s WALL (      12 calls)
     calc_velect  :     16.42s CPU     17.81s WALL (      10 calls)
     dielectric   :      0.34s CPU      0.42s WALL (       9 calls)
     electrolyte  :      0.01s CPU      0.01s WALL (       2 calls)
     calc_felect  :      0.24s CPU      0.24s WALL (       1 calls)

     PWSCF        :  1m 2.38s CPU     1m 6.67s WALL


   This run was terminated on:  14:50:23   1Jan2018            

=------------------------------------------------------------------------------=
   JOB DONE.
=------------------------------------------------------------------------------=

%%%% IONS %%%%%%%%%%%%%%%%%%%%%%%%%%%%%%%%%%%%%%%%%%%%%%%%%%%%%%%%%%%%%%%%%%%%%%
 number of ions             =         11
 ionic center of charge     =      0.0072664     0.0000000     0.0001166
 total ionic charge         =    -30.0000000
 ionic dipole               =      0.0000000     0.0000000     0.0000000
 ionic quadrupole (pc)      =   -131.0719095  -146.7987094    -0.0000314
 ionic quadrupole (gauss)   =   -134.8219095  -150.5487094    -3.7500314
 ion   1 type =  1 coordinates =     -2.4454071     0.0000002     0.0030272
 ion   2 type =  2 coordinates =     -1.2331440     2.2473584     0.0020749
 ion   3 type =  2 coordinates =      1.3781229     2.2851921     0.0014627
 ion   4 type =  2 coordinates =      2.6939354     0.0000002     0.0013189
 ion   5 type =  2 coordinates =      1.3781232    -2.2851919     0.0026521
 ion   6 type =  2 coordinates =     -1.2331437    -2.2473574     0.0035464
 ion   7 type =  3 coordinates =     -2.4127312     3.9381412     0.0017094
 ion   8 type =  3 coordinates =      2.3590962     4.0987221     0.0008035
 ion   9 type =  3 coordinates =      4.7585861    -0.0000002     0.0000199
 ion  10 type =  3 coordinates =      2.3590968    -4.0987217     0.0032074
 ion  11 type =  3 coordinates =     -2.4127303    -3.9381403     0.0048805

%%%% SYSTEM %%%%%%%%%%%%%%%%%%%%%%%%%%%%%%%%%%%%%%%%%%%%%%%%%%%%%%%%%%%%%%%%%%%%
 system is built from all present ionic types
 system defined dimension   =  0 
 system defined axis        =  3 
 system center              =      0.0072664     0.0000000     0.0001166 
 system width               =      0.2348011 

%%%% DIELECTRIC %%%%%%%%%%%%%%%%%%%%%%%%%%%%%%%%%%%%%%%%%%%%%%%%%%%%%%%%%%%%%%%%%
 dielectric build on homogeneous background
 environment bulk permitt.  =     20.0000000 
 dielectric flags
 need gradient              =  F 
 need factor depend. sqrt   =  T 
 total dielectric charge    =      0.0000000

%%%% BOUNDARY %%%%%%%%%%%%%%%%%%%%%%%%%%%%%%%%%%%%%%%%%%%%%%%%%%%%%%%%%%%%%%%%%%
 boundary mode              = ionic                
 boundary is built from soft-spheres centered on ionic positions
 solvent-dependent scaling  =      1.5000000 
 softness parameter         =      0.5000000 
 volume of the QM region    =   1716.7618872 
 surface of the QM region   =    717.2136638 

%%%% ELECTROLYTE %%%%%%%%%%%%%%%%%%%%%%%%%%%%%%%%%%%%%%%%%%%%%%%%%%%%%%%%%%%%%%%%
 number electrol. species   =    2
 solvent temperature        =   300.0
 Debye length / sqrt(eps)   =      0.2301070
 modified Poisson-Boltzmann 
 maximum concentration      =      0.0190986
 electrolyte species    1
 bulk concentration  (a.u.) =      0.7139E-03
 bulk concentration (mol/L) =      8.0000000
 ionic charge               =   -1.00
 electrolyte species    2
 bulk concentration  (a.u.) =      0.7139E-03
 bulk concentration (mol/L) =      8.0000000
 ionic charge               =    1.00
 electrolyte flags
 linearized                 =  T
 total electrolyte charge   =      0.0000000

%%%% ELECTRONS %%%%%%%%%%%%%%%%%%%%%%%%%%%%%%%%%%%%%%%%%%%%%%%%%%%%%%%%%%%%%%%%%
 number of electrons        =         30
 total electronic charge    =     30.0000000
 number of spin components  =  1

%%%% BOUNDARY %%%%%%%%%%%%%%%%%%%%%%%%%%%%%%%%%%%%%%%%%%%%%%%%%%%%%%%%%%%%%%%%%%
 boundary mode              = electronic           
 boundary is built as a function of a smooth density
 function type              =  2 
 using the modified SCCS function with parameters 
 rhomax                     =      0.0050000 
 rhomin                     =      0.0001000 
 volume of the QM region    =   2407.1059985 
 surface of the QM region   =    815.5587051 

%%%% DIELECTRIC %%%%%%%%%%%%%%%%%%%%%%%%%%%%%%%%%%%%%%%%%%%%%%%%%%%%%%%%%%%%%%%%%
 dielectric build on homogeneous background
 environment bulk permitt.  =     20.0000000 
 dielectric flags
 need gradient              =  F 
 need factor depend. sqrt   =  T 
 total dielectric charge    =      0.0000000

%%%% ELECTRONS %%%%%%%%%%%%%%%%%%%%%%%%%%%%%%%%%%%%%%%%%%%%%%%%%%%%%%%%%%%%%%%%%
 number of electrons        =         30
 total electronic charge    =     30.0000000
 number of spin components  =  1

%%%% BOUNDARY %%%%%%%%%%%%%%%%%%%%%%%%%%%%%%%%%%%%%%%%%%%%%%%%%%%%%%%%%%%%%%%%%%
 boundary mode              = electronic           
 boundary is built as a function of a smooth density
 function type              =  2 
 using the modified SCCS function with parameters 
 rhomax                     =      0.0050000 
 rhomin                     =      0.0001000 
 volume of the QM region    =   1074.1872471 
 surface of the QM region   =    527.4241024 

%%%% DIELECTRIC %%%%%%%%%%%%%%%%%%%%%%%%%%%%%%%%%%%%%%%%%%%%%%%%%%%%%%%%%%%%%%%%%
 dielectric build on homogeneous background
 environment bulk permitt.  =     20.0000000 
 dielectric flags
 need gradient              =  F 
 need factor depend. sqrt   =  T 
 total dielectric charge    =      0.0000000

%%%% COMPUTE ELECTROSTATIC POTENTIAL %%%%%%%%%%%%%%%%%%%%%%%%%%%%%%%%%%%%%%%%%%%
 Iteration #          1
  pAp =    124.40950953171755       rzold =    120.82064324098198       alpha =   0.97115279769011065     
 delta_qm =   0.157648E-01 delta_en =   0.429459E+03 tol =   0.100000E-04
 Iteration #          2
  pAp =    6276.4044805643089       rzold =    140.30371276283623       alpha =    2.2354154069787035E-002
 delta_qm =   0.351760E-02 delta_en =   0.213814E+02 tol =   0.100000E-04
 Iteration #          3
  pAp =    10.141314216333429       rzold =    1.3368360852406775       alpha =   0.13182079331370997     
 delta_qm =   0.150523E-02 delta_en =   0.391516E+01 tol =   0.100000E-04
 Iteration #          4
  pAp =   0.75523757538655079       rzold =   0.13449608390136245       alpha =   0.17808447074753100     
 delta_qm =   0.698572E-03 delta_en =   0.843268E+00 tol =   0.100000E-04
 Iteration #          5
  pAp =   0.46307245831584920       rzold =    4.4282044295627550E-002  alpha =    9.5626599035229090E-002
 delta_qm =   0.419409E-03 delta_en =   0.303962E+00 tol =   0.100000E-04
 Iteration #          6
  pAp =    8.5178809619227636E-002  rzold =    1.1798425894300879E-002  alpha =   0.13851362735688655     
 delta_qm =   0.230958E-03 delta_en =   0.921739E-01 tol =   0.100000E-04
 Iteration #          7
  pAp =    1.0258748757753035E-002  rzold =    1.9388302329084468E-003  alpha =   0.18899285660380155     
 delta_qm =   0.124003E-03 delta_en =   0.265711E-01 tol =   0.100000E-04
 Iteration #          8
  pAp =    1.4187416635497131E-003  rzold =    2.5237752166801448E-004  alpha =   0.17788828519813968     
 delta_qm =   0.916666E-04 delta_en =   0.145200E-01 tol =   0.100000E-04
 Iteration #          9
  pAp =    2.1215130068412543E-003  rzold =    2.9196199189935760E-004  alpha =   0.13761970393670281     
 delta_qm =   0.472916E-04 delta_en =   0.386466E-02 tol =   0.100000E-04
 Iteration #         10
  pAp =    1.1170106973581390E-004  rzold =    3.3844687258828714E-005  alpha =   0.30299340318651702     
 delta_qm =   0.239184E-04 delta_en =   0.988574E-03 tol =   0.100000E-04
 Iteration #         11
  pAp =    8.7993420709514992E-005  rzold =    1.5597948249459873E-005  alpha =   0.17726266490936884     
 delta_qm =   0.127593E-04 delta_en =   0.281320E-03 tol =   0.100000E-04
 Iteration #         12
  pAp =    1.8427203863995257E-005  rzold =    4.0173177972609706E-006  alpha =   0.21801016730000858     
 delta_qm =   0.638441E-05 delta_en =   0.704345E-04 tol =   0.100000E-04
 Iteration #         13
  pAp =    2.0338953287399059E-005  rzold =    1.7128301988927986E-006  alpha =    8.4214274682167523E-002
 delta_qm =   0.467598E-05 delta_en =   0.377824E-04 tol =   0.100000E-04
 Iteration #         14
  pAp =    4.2200045424690182E-006  rzold =    4.5995715084519926E-007  alpha =   0.10899446818511951     
 delta_qm =   0.331919E-05 delta_en =   0.190374E-04 tol =   0.100000E-04
 Iteration #         15
  pAp =    1.9807255671391622E-005  rzold =    1.1186466464922782E-006  alpha =    5.6476609634921932E-002
 delta_qm =   0.195920E-05 delta_en =   0.663289E-05 tol =   0.100000E-04
 Charges are converged, EXIT

%%%% ELECTRONS %%%%%%%%%%%%%%%%%%%%%%%%%%%%%%%%%%%%%%%%%%%%%%%%%%%%%%%%%%%%%%%%%
 number of electrons        =         30
 total electronic charge    =     30.0000000
 number of spin components  =  1

%%%% BOUNDARY %%%%%%%%%%%%%%%%%%%%%%%%%%%%%%%%%%%%%%%%%%%%%%%%%%%%%%%%%%%%%%%%%%
 boundary mode              = electronic           
 boundary is built as a function of a smooth density
 function type              =  2 
 using the modified SCCS function with parameters 
 rhomax                     =      0.0050000 
 rhomin                     =      0.0001000 
 volume of the QM region    =   1023.3602801 
 surface of the QM region   =    515.6939645 

%%%% DIELECTRIC %%%%%%%%%%%%%%%%%%%%%%%%%%%%%%%%%%%%%%%%%%%%%%%%%%%%%%%%%%%%%%%%%
 dielectric build on homogeneous background
 environment bulk permitt.  =     20.0000000 
 dielectric flags
 need gradient              =  F 
 need factor depend. sqrt   =  T 
 total dielectric charge    =     -0.0023858

%%%% COMPUTE ELECTROSTATIC POTENTIAL %%%%%%%%%%%%%%%%%%%%%%%%%%%%%%%%%%%%%%%%%%%
 Warning: bad guess with residual norm =   0.271673E+03, reset to no guess
 Iteration #          1
  pAp =    124.37667006440923       rzold =    122.30139011453812       alpha =   0.98331455610769769     
 delta_qm =   0.123963E-01 delta_en =   0.265538E+03 tol =   0.100000E-04
 Iteration #          2
  pAp =    3565.5890230400114       rzold =    78.838340743889020       alpha =    2.2110888336949071E-002
 delta_qm =   0.363755E-02 delta_en =   0.228645E+02 tol =   0.100000E-04
 Iteration #          3
  pAp =    19.435619929614436       rzold =    1.6692102034314888       alpha =    8.5884073133580902E-002
 delta_qm =   0.198085E-02 delta_en =   0.678027E+01 tol =   0.100000E-04
 Iteration #          4
  pAp =    3.4289532240387559       rzold =   0.39201402869778518       alpha =   0.11432469418059184     
 delta_qm =   0.956409E-03 delta_en =   0.158063E+01 tol =   0.100000E-04
 Iteration #          5
  pAp =   0.37862509315042531       rzold =    5.9537863789119454E-002  alpha =   0.15724753817482837     
 delta_qm =   0.381199E-03 delta_en =   0.251100E+00 tol =   0.100000E-04
 Iteration #          6
  pAp =    3.1756048632366675E-002  rzold =    6.0287132666140397E-003  alpha =   0.18984456587805457     
 delta_qm =   0.192314E-03 delta_en =   0.639096E-01 tol =   0.100000E-04
 Iteration #          7
  pAp =    5.9746177595291937E-003  rzold =    1.1062769219271787E-003  alpha =   0.18516279475163522     
 delta_qm =   0.118022E-03 delta_en =   0.240696E-01 tol =   0.100000E-04
 Iteration #          8
  pAp =    7.0097048225719303E-004  rzold =    1.7952343775531985E-004  alpha =   0.25610698638441515     
 delta_qm =   0.744715E-04 delta_en =   0.958349E-02 tol =   0.100000E-04
 Iteration #          9
  pAp =    2.2229560335380902E-003  rzold =    2.1499651822084941E-004  alpha =    9.6716495952759676E-002
 delta_qm =   0.467455E-04 delta_en =   0.377593E-02 tol =   0.100000E-04
 Iteration #         10
  pAp =    1.0580544740793823E-004  rzold =    3.1982723086272146E-005  alpha =   0.30227860540073276     
 delta_qm =   0.211975E-04 delta_en =   0.776449E-03 tol =   0.100000E-04
 Iteration #         11
  pAp =    8.6621095899947674E-005  rzold =    1.2863462084152043E-005  alpha =   0.14850264765768004     
 delta_qm =   0.128919E-04 delta_en =   0.287196E-03 tol =   0.100000E-04
 Iteration #         12
  pAp =    1.6312429476566678E-005  rzold =    2.8536648991386624E-006  alpha =   0.17493806813007481     
 delta_qm =   0.883653E-05 delta_en =   0.134930E-03 tol =   0.100000E-04
 Iteration #         13
  pAp =    2.2406716219356753E-005  rzold =    2.6001560771731000E-006  alpha =   0.11604360280721869     
 delta_qm =   0.536297E-05 delta_en =   0.496998E-04 tol =   0.100000E-04
 Iteration #         14
  pAp =    1.1923292269461785E-006  rzold =    2.7620495353941649E-007  alpha =   0.23165158355367926     
 delta_qm =   0.355267E-05 delta_en =   0.218099E-04 tol =   0.100000E-04
 Iteration #         15
  pAp =    2.6270019665735790E-005  rzold =    8.5367864799870480E-007  alpha =    3.2496307915298790E-002
 delta_qm =   0.322924E-05 delta_en =   0.180196E-04 tol =   0.100000E-04
 Iteration #         16
  pAp =    1.4459225511923680E-007  rzold =    6.4736309720242187E-008  alpha =   0.44771630172624344     
 delta_qm =   0.162419E-05 delta_en =   0.455846E-05 tol =   0.100000E-04
 Charges are converged, EXIT

%%%% ELECTRONS %%%%%%%%%%%%%%%%%%%%%%%%%%%%%%%%%%%%%%%%%%%%%%%%%%%%%%%%%%%%%%%%%
 number of electrons        =         30
 total electronic charge    =     30.0000000
 number of spin components  =  1

%%%% BOUNDARY %%%%%%%%%%%%%%%%%%%%%%%%%%%%%%%%%%%%%%%%%%%%%%%%%%%%%%%%%%%%%%%%%%
 boundary mode              = electronic           
 boundary is built as a function of a smooth density
 function type              =  2 
 using the modified SCCS function with parameters 
 rhomax                     =      0.0050000 
 rhomin                     =      0.0001000 
 volume of the QM region    =    991.2033248 
 surface of the QM region   =    508.2818499 

%%%% DIELECTRIC %%%%%%%%%%%%%%%%%%%%%%%%%%%%%%%%%%%%%%%%%%%%%%%%%%%%%%%%%%%%%%%%%
 dielectric build on homogeneous background
 environment bulk permitt.  =     20.0000000 
 dielectric flags
 need gradient              =  F 
 need factor depend. sqrt   =  T 
 total dielectric charge    =     -0.0008640

%%%% COMPUTE ELECTROSTATIC POTENTIAL %%%%%%%%%%%%%%%%%%%%%%%%%%%%%%%%%%%%%%%%%%%
 Warning: bad guess with residual norm =   0.181997E+03, reset to no guess
 Iteration #          1
  pAp =    124.08301176175993       rzold =    122.82588504171078       alpha =   0.98986866370988114     
 delta_qm =   0.101889E-01 delta_en =   0.179392E+03 tol =   0.100000E-04
 Iteration #          2
  pAp =    2244.5007573842231       rzold =    48.700643136371561       alpha =    2.1697761952697250E-002
 delta_qm =   0.308421E-02 delta_en =   0.164374E+02 tol =   0.100000E-04
 Iteration #          3
  pAp =    10.913909599206356       rzold =    1.0009351993988862       alpha =    9.1711882923390969E-002
 delta_qm =   0.160150E-02 delta_en =   0.443195E+01 tol =   0.100000E-04
 Iteration #          4
  pAp =    2.2881249465114051       rzold =   0.24312787996305421       alpha =   0.10625638269174928     
 delta_qm =   0.812782E-03 delta_en =   0.114154E+01 tol =   0.100000E-04
 Iteration #          5
  pAp =   0.27424074272597898       rzold =    4.3163358138364021E-002  alpha =   0.15739221572008646     
 delta_qm =   0.335994E-03 delta_en =   0.195077E+00 tol =   0.100000E-04
 Iteration #          6
  pAp =    2.3439173668247486E-002  rzold =    4.5097425764323807E-003  alpha =   0.19240194386808210     
 delta_qm =   0.166945E-03 delta_en =   0.481602E-01 tol =   0.100000E-04
 Iteration #          7
  pAp =    4.1293471886048880E-003  rzold =    7.6100314350427878E-004  alpha =   0.18429139250007842     
 delta_qm =   0.109097E-03 delta_en =   0.205668E-01 tol =   0.100000E-04
 Iteration #          8
  pAp =    4.7279841304403395E-004  rzold =    1.3770841515096615E-004  alpha =   0.29126243098904125     
 delta_qm =   0.629577E-04 delta_en =   0.684922E-02 tol =   0.100000E-04
 Iteration #          9
  pAp =    1.6433938096226735E-003  rzold =    1.4271671337364090E-004  alpha =    8.6842674310918175E-002
 delta_qm =   0.421802E-04 delta_en =   0.307440E-02 tol =   0.100000E-04
 Iteration #         10
  pAp =    7.9152361576892088E-005  rzold =    2.3473608675781137E-005  alpha =   0.29656232875601368     
 delta_qm =   0.202430E-04 delta_en =   0.708096E-03 tol =   0.100000E-04
 Iteration #         11
  pAp =    6.3966998487281589E-005  rzold =    9.9075657370100038E-006  alpha =   0.15488558117948745     
 delta_qm =   0.128856E-04 delta_en =   0.286914E-03 tol =   0.100000E-04
 Iteration #         12
  pAp =    8.6080442426993915E-006  rzold =    2.0623087668352511E-006  alpha =   0.23957924804862910     
 delta_qm =   0.780826E-05 delta_en =   0.105354E-03 tol =   0.100000E-04
 Iteration #         13
  pAp =    1.9403652411462054E-005  rzold =    1.6701128584044154E-006  alpha =    8.6072086996252961E-002
 delta_qm =   0.587305E-05 delta_en =   0.596034E-04 tol =   0.100000E-04
 Iteration #         14
  pAp =    2.1950657487084632E-006  rzold =    2.7707531925191083E-007  alpha =   0.12622643281411361     
 delta_qm =   0.463381E-05 delta_en =   0.371039E-04 tol =   0.100000E-04
 Iteration #         15
  pAp =    1.4255115083825982E-005  rzold =    9.0900942496170129E-007  alpha =    6.3767245624910734E-002
 delta_qm =   0.362655E-05 delta_en =   0.227264E-04 tol =   0.100000E-04
 Iteration #         16
  pAp =    1.9480262344042411E-007  rzold =    8.6746090451857240E-008  alpha =   0.44530247549970259     
 delta_qm =   0.174057E-05 delta_en =   0.523510E-05 tol =   0.100000E-04
 Charges are converged, EXIT

%%%% ELECTRONS %%%%%%%%%%%%%%%%%%%%%%%%%%%%%%%%%%%%%%%%%%%%%%%%%%%%%%%%%%%%%%%%%
 number of electrons        =         30
 total electronic charge    =     30.0000000
 number of spin components  =  1

%%%% BOUNDARY %%%%%%%%%%%%%%%%%%%%%%%%%%%%%%%%%%%%%%%%%%%%%%%%%%%%%%%%%%%%%%%%%%
 boundary mode              = electronic           
 boundary is built as a function of a smooth density
 function type              =  2 
 using the modified SCCS function with parameters 
 rhomax                     =      0.0050000 
 rhomin                     =      0.0001000 
 volume of the QM region    =    971.9611579 
 surface of the QM region   =    503.6573571 

%%%% DIELECTRIC %%%%%%%%%%%%%%%%%%%%%%%%%%%%%%%%%%%%%%%%%%%%%%%%%%%%%%%%%%%%%%%%%
 dielectric build on homogeneous background
 environment bulk permitt.  =     20.0000000 
 dielectric flags
 need gradient              =  F 
 need factor depend. sqrt   =  T 
 total dielectric charge    =     -0.0000052

%%%% COMPUTE ELECTROSTATIC POTENTIAL %%%%%%%%%%%%%%%%%%%%%%%%%%%%%%%%%%%%%%%%%%%
 Warning: bad guess with residual norm =   0.149288E+03, reset to no guess
 Iteration #          1
  pAp =    123.57932489790123       rzold =    122.60018442286771       alpha =   0.99207682615322212     
 delta_qm =   0.924162E-02 delta_en =   0.147584E+03 tol =   0.100000E-04
 Iteration #          2
  pAp =    1652.7500512059105       rzold =    36.008313179203874       alpha =    2.1786907919277215E-002
 delta_qm =   0.324731E-02 delta_en =   0.182218E+02 tol =   0.100000E-04
 Iteration #          3
  pAp =    12.691748961601430       rzold =    1.0856042103853984       alpha =    8.5536218347043183E-002
 delta_qm =   0.169754E-02 delta_en =   0.497945E+01 tol =   0.100000E-04
 Iteration #          4
  pAp =    2.2542385221385732       rzold =   0.25498284995027887       alpha =   0.11311263091555157     
 delta_qm =   0.826945E-03 delta_en =   0.118167E+01 tol =   0.100000E-04
 Iteration #          5
  pAp =   0.29429231890231927       rzold =    4.5162576909138136E-002  alpha =   0.15346162304741762     
 delta_qm =   0.342243E-03 delta_en =   0.202401E+00 tol =   0.100000E-04
 Iteration #          6
  pAp =    2.2048504275631896E-002  rzold =    4.4227566956029710E-003  alpha =   0.20059214177584922     
 delta_qm =   0.160645E-03 delta_en =   0.445940E-01 tol =   0.100000E-04
 Iteration #          7
  pAp =    3.6014876925336290E-003  rzold =    6.5979961938039948E-004  alpha =   0.18320196421835713     
 delta_qm =   0.112082E-03 delta_en =   0.217080E-01 tol =   0.100000E-04
 Iteration #          8
  pAp =    4.6336147019302413E-004  rzold =    1.4334817879284740E-004  alpha =   0.30936577167957519     
 delta_qm =   0.601120E-04 delta_en =   0.624405E-02 tol =   0.100000E-04
 Iteration #          9
  pAp =    1.2637246791272236E-003  rzold =    1.0744845405342461E-004  alpha =    8.5025208281627143E-002
 delta_qm =   0.438448E-04 delta_en =   0.332185E-02 tol =   0.100000E-04
 Iteration #         10
  pAp =    9.2491459765514783E-005  rzold =    2.6028503614057943E-005  alpha =   0.28141521044262519     
 delta_qm =   0.214921E-04 delta_en =   0.798181E-03 tol =   0.100000E-04
 Iteration #         11
  pAp =    6.4209296100650829E-005  rzold =    9.8928793602267688E-006  alpha =   0.15407238454567787     
 delta_qm =   0.147344E-04 delta_en =   0.375156E-03 tol =   0.100000E-04
 Iteration #         12
  pAp =    7.7394889049591095E-006  rzold =    2.1487907204586424E-006  alpha =   0.27763987349110297     
 delta_qm =   0.880915E-05 delta_en =   0.134095E-03 tol =   0.100000E-04
 Iteration #         13
  pAp =    1.6787830800507221E-005  rzold =    1.4062723104462232E-006  alpha =    8.3767362630539188E-002
 delta_qm =   0.718441E-05 delta_en =   0.891921E-04 tol =   0.100000E-04
 Iteration #         14
  pAp =    9.2930030115392121E-007  rzold =    3.2962023154465198E-007  alpha =   0.35469721804174531     
 delta_qm =   0.496325E-05 delta_en =   0.425672E-04 tol =   0.100000E-04
 Iteration #         15
  pAp =    2.1471077336443410E-005  rzold =    6.3169498504037493E-007  alpha =    2.9420740056121115E-002
 delta_qm =   0.420825E-05 delta_en =   0.306018E-04 tol =   0.100000E-04
 Iteration #         16
  pAp =    4.9438090840263623E-007  rzold =    1.6421153645092500E-007  alpha =   0.33215590177520976     
 delta_qm =   0.204764E-05 delta_en =   0.724522E-05 tol =   0.100000E-04
 Charges are converged, EXIT

%%%% ELECTRONS %%%%%%%%%%%%%%%%%%%%%%%%%%%%%%%%%%%%%%%%%%%%%%%%%%%%%%%%%%%%%%%%%
 number of electrons        =         30
 total electronic charge    =     30.0000000
 number of spin components  =  1

%%%% BOUNDARY %%%%%%%%%%%%%%%%%%%%%%%%%%%%%%%%%%%%%%%%%%%%%%%%%%%%%%%%%%%%%%%%%%
 boundary mode              = electronic           
 boundary is built as a function of a smooth density
 function type              =  2 
 using the modified SCCS function with parameters 
 rhomax                     =      0.0050000 
 rhomin                     =      0.0001000 
 volume of the QM region    =    969.9396731 
 surface of the QM region   =    503.5554534 

%%%% DIELECTRIC %%%%%%%%%%%%%%%%%%%%%%%%%%%%%%%%%%%%%%%%%%%%%%%%%%%%%%%%%%%%%%%%%
 dielectric build on homogeneous background
 environment bulk permitt.  =     20.0000000 
 dielectric flags
 need gradient              =  F 
 need factor depend. sqrt   =  T 
 total dielectric charge    =      0.0006392

%%%% COMPUTE ELECTROSTATIC POTENTIAL %%%%%%%%%%%%%%%%%%%%%%%%%%%%%%%%%%%%%%%%%%%
 Warning: bad guess with residual norm =   0.139586E+03, reset to no guess
 Iteration #          1
  pAp =    123.62271899478297       rzold =    122.72309169451826       alpha =   0.99272279959881260     
 delta_qm =   0.894015E-02 delta_en =   0.138113E+03 tol =   0.100000E-04
 Iteration #          2
  pAp =    1489.1644971430071       rzold =    32.516593192086496       alpha =    2.1835460927567271E-002
 delta_qm =   0.326110E-02 delta_en =   0.183769E+02 tol =   0.100000E-04
 Iteration #          3
  pAp =    13.190986856581299       rzold =    1.0982511034624820       alpha =    8.3257690679491375E-002
 delta_qm =   0.170524E-02 delta_en =   0.502477E+01 tol =   0.100000E-04
 Iteration #          4
  pAp =    2.1814441360607408       rzold =   0.25207187145337540       alpha =   0.11555275117361824     
 delta_qm =   0.816690E-03 delta_en =   0.115255E+01 tol =   0.100000E-04
 Iteration #          5
  pAp =   0.28801754503828370       rzold =    4.3878603884085404E-002  alpha =   0.15234698246682507     
 delta_qm =   0.340408E-03 delta_en =   0.200236E+00 tol =   0.100000E-04
 Iteration #          6
  pAp =    2.1002304849476173E-002  rzold =    4.2736106272545787E-003  alpha =   0.20348293474852444     
 delta_qm =   0.157997E-03 delta_en =   0.431360E-01 tol =   0.100000E-04
 Iteration #          7
  pAp =    3.3714367069623457E-003  rzold =    6.2083170927786178E-004  alpha =   0.18414455415870146     
 delta_qm =   0.112107E-03 delta_en =   0.217174E-01 tol =   0.100000E-04
 Iteration #          8
  pAp =    4.6183296878378211E-004  rzold =    1.4343828937668737E-004  alpha =   0.31058477647108246     
 delta_qm =   0.591237E-04 delta_en =   0.604042E-02 tol =   0.100000E-04
 Iteration #          9
  pAp =    1.1013117948025610E-003  rzold =    9.4938147379236654E-005  alpha =    8.6204604206801219E-002
 delta_qm =   0.440232E-04 delta_en =   0.334894E-02 tol =   0.100000E-04
 Iteration #         10
  pAp =    9.6839114646383667E-005  rzold =    2.6558275406704931E-005  alpha =   0.27425153052756368     
 delta_qm =   0.217580E-04 delta_en =   0.818056E-03 tol =   0.100000E-04
 Iteration #         11
  pAp =    6.1777876367210736E-005  rzold =    9.5371336873885099E-006  alpha =   0.15437781691781244     
 delta_qm =   0.152396E-04 delta_en =   0.401320E-03 tol =   0.100000E-04
 Iteration #         12
  pAp =    7.6545510330471282E-006  rzold =    2.1746312220287892E-006  alpha =   0.28409650842227263     
 delta_qm =   0.908875E-05 delta_en =   0.142742E-03 tol =   0.100000E-04
 Iteration #         13
  pAp =    1.5557090509135130E-005  rzold =    1.3097138656765703E-006  alpha =    8.4187584105620897E-002
 delta_qm =   0.767039E-05 delta_en =   0.101667E-03 tol =   0.100000E-04
 Iteration #         14
  pAp =    1.9011628110055724E-006  rzold =    3.7565039329301268E-007  alpha =   0.19758980720558164     
 delta_qm =   0.561298E-05 delta_en =   0.544415E-04 tol =   0.100000E-04
 Iteration #         15
  pAp =    3.6273691386288630E-005  rzold =    1.6289153368007760E-006  alpha =    4.4906246774115248E-002
 delta_qm =   0.447523E-05 delta_en =   0.346079E-04 tol =   0.100000E-04
 Iteration #         16
  pAp =    3.9734022607714205E-007  rzold =    1.5313105645777675E-007  alpha =   0.38539026861087794     
 delta_qm =   0.211449E-05 delta_en =   0.772603E-05 tol =   0.100000E-04
 Charges are converged, EXIT

%%%% ELECTRONS %%%%%%%%%%%%%%%%%%%%%%%%%%%%%%%%%%%%%%%%%%%%%%%%%%%%%%%%%%%%%%%%%
 number of electrons        =         30
 total electronic charge    =     30.0000000
 number of spin components  =  1

%%%% BOUNDARY %%%%%%%%%%%%%%%%%%%%%%%%%%%%%%%%%%%%%%%%%%%%%%%%%%%%%%%%%%%%%%%%%%
 boundary mode              = electronic           
 boundary is built as a function of a smooth density
 function type              =  2 
 using the modified SCCS function with parameters 
 rhomax                     =      0.0050000 
 rhomin                     =      0.0001000 
 volume of the QM region    =    969.9396731 
 surface of the QM region   =    503.5554534 

%%%% DIELECTRIC %%%%%%%%%%%%%%%%%%%%%%%%%%%%%%%%%%%%%%%%%%%%%%%%%%%%%%%%%%%%%%%%%
 dielectric build on homogeneous background
 environment bulk permitt.  =     20.0000000 
 dielectric flags
 need gradient              =  F 
 need factor depend. sqrt   =  T 
 total dielectric charge    =      0.0006859
