
     Program PWSCF v.6.7MaX starts on  3Mar2021 at 11:28: 8 

     This program is part of the open-source Quantum ESPRESSO suite
     for quantum simulation of materials; please cite
         "P. Giannozzi et al., J. Phys.:Condens. Matter 21 395502 (2009);
         "P. Giannozzi et al., J. Phys.:Condens. Matter 29 465901 (2017);
          URL http://www.quantum-espresso.org", 
     in publications or presentations arising from this work. More details at
     http://www.quantum-espresso.org/quote

     Parallel version (MPI), running on     1 processors

     MPI processes distributed on     1 nodes
     Waiting for input...
     Reading input from standard input

     Current dimensions of program PWSCF are:
     Max number of different atomic species (ntypx) = 10
     Max number of k-points (npk) =  40000
     Max angular momentum in pseudopotentials (lmaxx) =  3
     file N.pbe-rrkjus.UPF: wavefunction(s)  2S renormalized
     file C.pbe-rrkjus.UPF: wavefunction(s)  2S 2P renormalized
     file H.pbe-rrkjus.UPF: wavefunction(s)  1S renormalized

     gamma-point specific algorithms are used

     Subspace diagonalization in iterative solution of the eigenvalue problem:
     a serial algorithm will be used


     G-vector sticks info
     --------------------
     sticks:   dense  smooth     PW     G-vecs:    dense   smooth      PW
     Sum        2385     949    241                87655    22119    2777



     bravais-lattice index     =            1
     lattice parameter (alat)  =      10.0000  a.u.
     unit-cell volume          =    1000.0000 (a.u.)^3
     number of atoms/cell      =           11
     number of atomic types    =            3
     number of electrons       =        30.00
     number of Kohn-Sham states=           15
     kinetic-energy cutoff     =      30.0000  Ry
     charge density cutoff     =     300.0000  Ry
     scf convergence threshold =      5.0E-04
     mixing beta               =       0.7000
     number of iterations used =            8  plain     mixing
     Exchange-correlation= SLA  PW   PBE  PBE
                           (   1   4   3   4   0   0   0)


     Environ Module
     ==============

     Plese cite
         O. Andreussi, I. Dabo and N. Marzari, J. Chem. Phys. 136, 064102 (2012)         
     in publications or presentations arising from this work.

     compensation onset threshold      =               0.1000E+03 
     static permittivity               =                    20.00 
     epsilon calculation mode          =               electronic 

     Electrostatic Setup
     -------------------
     electrostatic problem to solve    = linmodpb                 
     numerical solver adopted          = cg                       
     type of auxiliary density adopted = none                     
     type of core tool for poisson     = fft                      



     celldm(1)=  10.000000  celldm(2)=   0.000000  celldm(3)=   0.000000
     celldm(4)=   0.000000  celldm(5)=   0.000000  celldm(6)=   0.000000

     crystal axes: (cart. coord. in units of alat)
               a(1) = (   1.000000   0.000000   0.000000 )  
               a(2) = (   0.000000   1.000000   0.000000 )  
               a(3) = (   0.000000   0.000000   1.000000 )  

     reciprocal axes: (cart. coord. in units 2 pi/alat)
               b(1) = (  1.000000  0.000000  0.000000 )  
               b(2) = (  0.000000  1.000000  0.000000 )  
               b(3) = (  0.000000  0.000000  1.000000 )  


     PseudoPot. # 1 for N  read from file:
     ../../../pseudo/N.pbe-rrkjus.UPF
     MD5 check sum: 28c76d763763edb36c62a6ca2be9aebd
     Pseudo is Ultrasoft, Zval =  5.0
     Generated by new atomic code, or converted to UPF format
     Using radial grid of 1257 points,  4 beta functions with: 
                l(1) =   0
                l(2) =   0
                l(3) =   1
                l(4) =   1
     Q(r) pseudized with 0 coefficients 


     PseudoPot. # 2 for C  read from file:
     ../../../pseudo/C.pbe-rrkjus.UPF
     MD5 check sum: c9ac5a99bc85b198593446162950cd17
     Pseudo is Ultrasoft, Zval =  4.0
     Generated by new atomic code, or converted to UPF format
     Using radial grid of  627 points,  4 beta functions with: 
                l(1) =   0
                l(2) =   0
                l(3) =   1
                l(4) =   1
     Q(r) pseudized with 0 coefficients 


     PseudoPot. # 3 for H  read from file:
     ../../../pseudo/H.pbe-rrkjus.UPF
     MD5 check sum: 2d52a7f45632fd764c17cc6affed14c8
     Pseudo is Ultrasoft, Zval =  1.0
     Generated by new atomic code, or converted to UPF format
     Using radial grid of 1061 points,  2 beta functions with: 
                l(1) =   0
                l(2) =   0
     Q(r) pseudized with 0 coefficients 


     atomic species   valence    mass     pseudopotential
        N              5.00    14.00000     N ( 1.00)
        C              4.00    12.00000     C ( 1.00)
        H              1.00     1.00000     H ( 1.00)

     No symmetry found



   Cartesian axes

     site n.     atom                  positions (alat units)
         1           N   tau(   1) = (  -0.2445407   0.0000000   0.0003027  )
         2           C   tau(   2) = (  -0.1233144   0.2247358   0.0002075  )
         3           C   tau(   3) = (   0.1378123   0.2285192   0.0001463  )
         4           C   tau(   4) = (   0.2693935   0.0000000   0.0001319  )
         5           C   tau(   5) = (   0.1378123  -0.2285192   0.0002652  )
         6           C   tau(   6) = (  -0.1233144  -0.2247357   0.0003546  )
         7           H   tau(   7) = (  -0.2412731   0.3938141   0.0001709  )
         8           H   tau(   8) = (   0.2359096   0.4098722   0.0000804  )
         9           H   tau(   9) = (   0.4758586  -0.0000000   0.0000020  )
        10           H   tau(  10) = (   0.2359097  -0.4098722   0.0003207  )
        11           H   tau(  11) = (  -0.2412730  -0.3938140   0.0004881  )

     number of k points=     1
                       cart. coord. in units 2pi/alat
        k(    1) = (   0.0000000   0.0000000   0.0000000), wk =   2.0000000

     Dense  grid:    43828 G-vectors     FFT dimensions: (  60,  60,  60)

     Smooth grid:    11060 G-vectors     FFT dimensions: (  36,  36,  36)

     Estimated max dynamical RAM per process >      76.01 MB

     Initial potential from superposition of free atoms

     starting charge   29.51871, renormalised to   30.00000
     Starting wfcs are   29 randomized atomic wfcs

     total cpu time spent up to now is       10.4 secs

     Self-consistent Calculation

     iteration #  1     ecut=    30.00 Ry     beta= 0.70
     Davidson diagonalization with overlap
     ethr =  1.00E-02,  avg # of iterations =  2.0

     add environment contribution to local potential
     polarization accuracy = 8.0E-06, # of iterations =  28

     total cpu time spent up to now is       42.9 secs

     total energy              =     -81.97572229 Ry
     estimated scf accuracy    <       2.14951728 Ry
     electrostatic embedding   =       0.00000000 Ry
     electrolyte free energy   =       0.00281976 Ry
     correction to one-el term =      -0.00000000 Ry

     iteration #  2     ecut=    30.00 Ry     beta= 0.70
     Davidson diagonalization with overlap
     ethr =  7.17E-03,  avg # of iterations =  2.0

     add environment contribution to local potential
     polarization accuracy = 5.4E-06, # of iterations =  27

     total cpu time spent up to now is       75.1 secs

     total energy              =     -82.36900106 Ry
     estimated scf accuracy    <       0.11458654 Ry
     electrostatic embedding   =      -0.09228248 Ry
     electrolyte free energy   =      -0.02855174 Ry
     correction to one-el term =       5.30998184 Ry

     iteration #  3     ecut=    30.00 Ry     beta= 0.70
     Davidson diagonalization with overlap
     ethr =  3.82E-04,  avg # of iterations =  2.0

     add environment contribution to local potential
     polarization accuracy = 6.8E-06, # of iterations =  30

     total cpu time spent up to now is      109.7 secs

     total energy              =     -82.40223474 Ry
     estimated scf accuracy    <       0.00582847 Ry
     electrostatic embedding   =      -0.14297150 Ry
     electrolyte free energy   =      -0.02728877 Ry
     correction to one-el term =       4.70879830 Ry

     iteration #  4     ecut=    30.00 Ry     beta= 0.70
     Davidson diagonalization with overlap
     ethr =  1.94E-05,  avg # of iterations =  2.0

     add environment contribution to local potential
     polarization accuracy = 8.8E-06, # of iterations =  28

     total cpu time spent up to now is      142.5 secs

     total energy              =     -82.40292476 Ry
     estimated scf accuracy    <       0.00054189 Ry
     electrostatic embedding   =      -0.15425699 Ry
     electrolyte free energy   =      -0.02767782 Ry
     correction to one-el term =       4.73988990 Ry

     iteration #  5     ecut=    30.00 Ry     beta= 0.70
     Davidson diagonalization with overlap
     ethr =  1.81E-06,  avg # of iterations =  3.0

     the potential shift due to the Gaussian-smeared nuclei is    -0.0237 ev

     total cpu time spent up to now is      146.7 secs

     End of self-consistent calculation

          k = 0.0000 0.0000 0.0000 (  1389 PWs)   bands (ev):

   -21.2320 -17.3949 -16.4165 -14.1620 -12.7594 -12.0268 -11.2596  -9.3231
    -8.0277  -6.6685  -6.5333  -4.8275  -4.4685  -4.3589  -2.9102

     highest occupied level (ev):    -2.9102

!    total energy              =     -82.40337447 Ry
     estimated scf accuracy    <       0.00008330 Ry

     The total energy is the sum of the following terms:
     one-electron contribution =    -121.17042734 Ry
     hartree contribution      =      66.51189817 Ry
     xc contribution           =     -26.32995863 Ry
     ewald contribution        =      -5.97292420 Ry
     electrostatic embedding   =      -0.16301841 Ry
     electrolyte free energy   =      -0.02781112 Ry
     correction to one-el term =       4.74886706 Ry

     WARNING: you are using the parabolic pbc correction;
              the potential shift above must be added to 
              band and Fermi energies.

     convergence has been achieved in   5 iterations
 forces lc
       1    0.0396   -0.0283   -0.0006
       2   -0.1445    0.0451   -0.0003
       3    0.1889    0.1056   -0.0004
       4    1.2683    0.2526   -0.0010
       5    0.1782    0.0681   -0.0004
       6   -0.1451   -0.0329    0.0000
       7   -3.0657   -6.9995    0.0170
       8  -34.7694    7.7981    0.0352
       9  143.1407   -4.1271    0.0044
      10  -27.0646    8.7192    0.0292
      11   -3.7765    0.0616    0.0087

     Forces acting on atoms (cartesian axes, Ry/au):

     atom    1 type  1   force =    -6.18902960   -0.55956058   -0.00782536
     atom    2 type  2   force =    -7.06866546   -0.68172225   -0.00886701
     atom    3 type  2   force =    -6.69094501   -0.59028977   -0.00923748
     atom    4 type  2   force =    -5.86388131   -0.28014666   -0.00962929
     atom    5 type  2   force =    -6.70111941   -0.29131737   -0.00862247
     atom    6 type  2   force =    -7.07037590   -0.36456996   -0.00823313
     atom    7 type  3   force =    -9.98269337   -7.68865387    0.00837208
     atom    8 type  3   force =   -41.70787103    6.98026227    0.02635511
     atom    9 type  3   force =   135.97113771   -4.66341373   -0.00396310
     atom   10 type  3   force =   -34.00062802    8.46160966    0.02113048
     atom   11 type  3   force =   -10.69592861   -0.32219776    0.00052016

     Total force =   148.535617     Total SCF correction =     0.014856

     Writing output data file ./tmp/pwscf.save/

     init_run     :      9.53s CPU     10.35s WALL (       1 calls)
     electrons    :    130.40s CPU    136.36s WALL (       1 calls)
     forces       :      1.46s CPU      1.55s WALL (       1 calls)

     Called by init_run:
     wfcinit      :      0.02s CPU      0.02s WALL (       1 calls)
     potinit      :      3.86s CPU      4.13s WALL (       1 calls)
     hinit0       :      4.60s CPU      4.73s WALL (       1 calls)

     Called by electrons:
     c_bands      :      0.14s CPU      0.18s WALL (       5 calls)
     sum_band     :      0.40s CPU      0.25s WALL (       5 calls)
     v_of_rho     :      0.42s CPU      0.49s WALL (       6 calls)
     newd         :      0.16s CPU      0.21s WALL (       6 calls)
     mix_rho      :      0.03s CPU      0.03s WALL (       5 calls)

     Called by c_bands:
     init_us_2    :      0.00s CPU      0.01s WALL (      11 calls)
     regterg      :      0.13s CPU      0.17s WALL (       5 calls)

     Called by *egterg:
     rdiaghg      :      0.00s CPU      0.00s WALL (      16 calls)
     h_psi        :      0.11s CPU      0.16s WALL (      17 calls)
     s_psi        :      0.01s CPU      0.00s WALL (      17 calls)
     g_psi        :      0.00s CPU      0.00s WALL (      11 calls)

     Called by h_psi:
     h_psi:calbec :      0.00s CPU      0.00s WALL (      17 calls)
     vloc_psi     :      0.10s CPU      0.10s WALL (      17 calls)
     add_vuspsi   :      0.01s CPU      0.06s WALL (      17 calls)

     General routines
     calbec       :      0.01s CPU      0.01s WALL (      26 calls)
     fft          :     54.82s CPU     56.76s WALL (     417 calls)
     ffts         :      0.01s CPU      0.01s WALL (      11 calls)
     fftw         :      0.09s CPU      0.09s WALL (     294 calls)
     interpolate  :      0.02s CPU      0.05s WALL (       6 calls)

     Parallel routines
     fft_scatt_xy :      5.87s CPU      5.89s WALL (     348 calls)
     fft_scatt_yz :      7.95s CPU      7.97s WALL (     348 calls)

     Environ routines
     calc_eelect  :      0.07s CPU      0.07s WALL (      10 calls)
     calc_velect  :    102.06s CPU    105.93s WALL (       8 calls)
     dielectric   :      0.96s CPU      1.13s WALL (       7 calls)
     electrolyte  :      0.05s CPU      0.05s WALL (       7 calls)
     calc_felect  :      1.36s CPU      1.44s WALL (       1 calls)

     PWSCF        :   2m21.45s CPU   2m28.53s WALL


   This run was terminated on:  11:30:37   3Mar2021            

=------------------------------------------------------------------------------=
   JOB DONE.
=------------------------------------------------------------------------------=
