
     Program PWSCF v.6.1 (svn rev. 13369) starts on  1Jan2018 at 14:46:38 

     This program is part of the open-source Quantum ESPRESSO suite
     for quantum simulation of materials; please cite
         "P. Giannozzi et al., J. Phys.:Condens. Matter 21 395502 (2009);
          URL http://www.quantum-espresso.org", 
     in publications or presentations arising from this work. More details at
     http://www.quantum-espresso.org/quote

     Serial version
     Reading input from pw.in

     Current dimensions of program PWSCF are:
     Max number of different atomic species (ntypx) = 10
     Max number of k-points (npk) =  40000
     Max angular momentum in pseudopotentials (lmaxx) =  3
               file N.pbe-rrkjus.UPF: wavefunction(s)  2S renormalized
               file C.pbe-rrkjus.UPF: wavefunction(s)  2S 2P renormalized
               file H.pbe-rrkjus.UPF: wavefunction(s)  1S renormalized

     gamma-point specific algorithms are used

     G-vector sticks info
     --------------------
     sticks:   dense  smooth     PW     G-vecs:    dense   smooth      PW
     Sum        9549    3809    949               701475   177509   22119



     bravais-lattice index     =            1
     lattice parameter (alat)  =      20.0000  a.u.
     unit-cell volume          =    8000.0000 (a.u.)^3
     number of atoms/cell      =           11
     number of atomic types    =            3
     number of electrons       =        30.00
     number of Kohn-Sham states=           15
     kinetic-energy cutoff     =      30.0000  Ry
     charge density cutoff     =     300.0000  Ry
     convergence threshold     =      5.0E-04
     mixing beta               =       0.7000
     number of iterations used =            8  plain     mixing
     Exchange-correlation      =  SLA  PW   PBE  PBE ( 1  4  3  4 0 0)


     Environ Module
     ==============

     Plese cite
         O. Andreussi, I. Dabo and N. Marzari, J. Chem. Phys. 136, 064102 (2012)         
     in publications or presentations arising from this work.

     compensation onset threshold      =               0.1000E+03 
     static permittivity               =                    20.00 
     epsilon calculation mode          =               electronic 

     Electrostatic Setup
     -------------------
     electrostatic problem to solve    = linmodpb                 
     numerical solver adopted          = cg                       
     type of auxiliary density adopted = none                     
     type of core tool for poisson     = fft                      
     type of core tool for s(r) deriv  = analytic                 



     celldm(1)=  20.000000  celldm(2)=   0.000000  celldm(3)=   0.000000
     celldm(4)=   0.000000  celldm(5)=   0.000000  celldm(6)=   0.000000

     crystal axes: (cart. coord. in units of alat)
               a(1) = (   1.000000   0.000000   0.000000 )  
               a(2) = (   0.000000   1.000000   0.000000 )  
               a(3) = (   0.000000   0.000000   1.000000 )  

     reciprocal axes: (cart. coord. in units 2 pi/alat)
               b(1) = (  1.000000  0.000000  0.000000 )  
               b(2) = (  0.000000  1.000000  0.000000 )  
               b(3) = (  0.000000  0.000000  1.000000 )  


     PseudoPot. # 1 for N  read from file:
     /Users/francesco/Programs/qe-6.1/Environ/tests/../..//pseudo/N.pbe-rrkjus.UPF
     MD5 check sum: 0c3fbe5807a93f9ba59d5a7019aa238b
     Pseudo is Ultrasoft, Zval =  5.0
     Generated by new atomic code, or converted to UPF format
     Using radial grid of 1257 points,  4 beta functions with: 
                l(1) =   0
                l(2) =   0
                l(3) =   1
                l(4) =   1
     Q(r) pseudized with 0 coefficients 


     PseudoPot. # 2 for C  read from file:
     /Users/francesco/Programs/qe-6.1/Environ/tests/../..//pseudo/C.pbe-rrkjus.UPF
     MD5 check sum: 00fb224312de0c5b6853bd333518df6f
     Pseudo is Ultrasoft, Zval =  4.0
     Generated by new atomic code, or converted to UPF format
     Using radial grid of  627 points,  4 beta functions with: 
                l(1) =   0
                l(2) =   0
                l(3) =   1
                l(4) =   1
     Q(r) pseudized with 0 coefficients 


     PseudoPot. # 3 for H  read from file:
     /Users/francesco/Programs/qe-6.1/Environ/tests/../..//pseudo/H.pbe-rrkjus.UPF
     MD5 check sum: 7cc9d459525c9a0585f487a71c3c9563
     Pseudo is Ultrasoft, Zval =  1.0
     Generated by new atomic code, or converted to UPF format
     Using radial grid of 1061 points,  2 beta functions with: 
                l(1) =   0
                l(2) =   0
     Q(r) pseudized with 0 coefficients 


     atomic species   valence    mass     pseudopotential
        N              5.00    14.00000     N ( 1.00)
        C              4.00    12.00000     C ( 1.00)
        H              1.00     1.00000     H ( 1.00)

     No symmetry found



   Cartesian axes

     site n.     atom                  positions (alat units)
         1           N   tau(   1) = (  -0.1222704   0.0000000   0.0001514  )
         2           C   tau(   2) = (  -0.0616572   0.1123679   0.0001037  )
         3           C   tau(   3) = (   0.0689061   0.1142596   0.0000731  )
         4           C   tau(   4) = (   0.1346968   0.0000000   0.0000659  )
         5           C   tau(   5) = (   0.0689062  -0.1142596   0.0001326  )
         6           C   tau(   6) = (  -0.0616572  -0.1123679   0.0001773  )
         7           H   tau(   7) = (  -0.1206366   0.1969071   0.0000855  )
         8           H   tau(   8) = (   0.1179548   0.2049361   0.0000402  )
         9           H   tau(   9) = (   0.2379293  -0.0000000   0.0000010  )
        10           H   tau(  10) = (   0.1179548  -0.2049361   0.0001604  )
        11           H   tau(  11) = (  -0.1206365  -0.1969070   0.0002440  )

     number of k points=     1
                       cart. coord. in units 2pi/alat
        k(    1) = (   0.0000000   0.0000000   0.0000000), wk =   2.0000000

     Dense  grid:   350738 G-vectors     FFT dimensions: ( 120, 120, 120)

     Smooth grid:    88755 G-vectors     FFT dimensions: (  72,  72,  72)

     Estimated max dynamical RAM per process >     300.59MB

     Initial potential from superposition of free atoms
     Check: negative starting charge=   -0.000446

     starting charge   29.51871, renormalised to   30.00000

     negative rho (up, down):  4.533E-04 0.000E+00
     Starting wfc are   29 randomized atomic wfcs

     total cpu time spent up to now is        5.2 secs

     Self-consistent Calculation

     iteration #  1     ecut=    30.00 Ry     beta=0.70
     Davidson diagonalization with overlap
     ethr =  1.00E-02,  avg # of iterations =  2.0

     negative rho (up, down):  1.360E-04 0.000E+00

     add environment contribution to local potential
     polarization accuracy = 8.1E-06, # of iterations =  13

     total cpu time spent up to now is       12.1 secs

     total energy              =     -82.24149085 Ry
     Harris-Foulkes estimate   =     -83.63778213 Ry
     estimated scf accuracy    <       2.07062237 Ry
     electrostatic embedding   =       0.00000000 Ry
     electrolyte free energy   =       0.01672876 Ry
     correction to one-el term =       0.00000000 Ry

     iteration #  2     ecut=    30.00 Ry     beta=0.70
     Davidson diagonalization with overlap
     ethr =  6.90E-03,  avg # of iterations =  3.0

     negative rho (up, down):  1.552E-04 0.000E+00

     add environment contribution to local potential
     polarization accuracy = 2.7E-06, # of iterations =  16

     total cpu time spent up to now is       19.6 secs

     total energy              =     -82.44635755 Ry
     Harris-Foulkes estimate   =     -82.81940470 Ry
     estimated scf accuracy    <       0.49833717 Ry
     electrostatic embedding   =      -0.02763079 Ry
     electrolyte free energy   =       0.01089601 Ry
     correction to one-el term =       0.06909675 Ry

     iteration #  3     ecut=    30.00 Ry     beta=0.70
     Davidson diagonalization with overlap
     ethr =  1.66E-03,  avg # of iterations =  4.0

     negative rho (up, down):  1.955E-04 0.000E+00

     add environment contribution to local potential
     polarization accuracy = 5.0E-06, # of iterations =  16

     total cpu time spent up to now is       27.0 secs

     total energy              =     -82.59336303 Ry
     Harris-Foulkes estimate   =     -83.25971132 Ry
     estimated scf accuracy    <       0.20655640 Ry
     electrostatic embedding   =      -0.02435301 Ry
     electrolyte free energy   =       0.00726354 Ry
     correction to one-el term =       0.58148080 Ry

     iteration #  4     ecut=    30.00 Ry     beta=0.70
     Davidson diagonalization with overlap
     ethr =  6.89E-04,  avg # of iterations =  4.0

     negative rho (up, down):  5.025E-05 0.000E+00

     add environment contribution to local potential
     polarization accuracy = 7.2E-06, # of iterations =  16

     total cpu time spent up to now is       34.0 secs

     total energy              =     -82.64344761 Ry
     Harris-Foulkes estimate   =     -83.44812860 Ry
     estimated scf accuracy    <       0.00853918 Ry
     electrostatic embedding   =      -0.01658351 Ry
     electrolyte free energy   =       0.00510073 Ry
     correction to one-el term =       0.81194468 Ry

     iteration #  5     ecut=    30.00 Ry     beta=0.70
     Davidson diagonalization with overlap
     ethr =  2.85E-05,  avg # of iterations =  4.0

     negative rho (up, down):  5.284E-05 0.000E+00

     add environment contribution to local potential
     polarization accuracy = 7.8E-06, # of iterations =  16

     total cpu time spent up to now is       41.2 secs

     total energy              =     -82.64609536 Ry
     Harris-Foulkes estimate   =     -83.60558992 Ry
     estimated scf accuracy    <       0.00114222 Ry
     electrostatic embedding   =      -0.01813261 Ry
     electrolyte free energy   =       0.00445015 Ry
     correction to one-el term =       0.97273709 Ry

     iteration #  6     ecut=    30.00 Ry     beta=0.70
     Davidson diagonalization with overlap
     ethr =  3.81E-06,  avg # of iterations =  3.0

     negative rho (up, down):  1.400E-04 0.000E+00

     total cpu time spent up to now is       44.1 secs

     End of self-consistent calculation

          k = 0.0000 0.0000 0.0000 ( 11060 PWs)   bands (ev):

   -23.2522 -19.6365 -18.8567 -15.3851 -15.2767 -12.8029 -11.6472 -11.1979
   -10.4392  -9.7792  -9.4583  -8.6845  -7.0456  -6.6424  -5.5798

     highest occupied level (ev):    -5.5798

!    total energy              =     -82.64634462 Ry
     Harris-Foulkes estimate   =     -83.64875283 Ry
     estimated scf accuracy    <       0.00009175 Ry

     The total energy is the sum of the following terms:

     one-electron contribution =    -292.45882540 Ry
     hartree contribution      =     149.42768471 Ry
     xc contribution           =     -25.97502282 Ry
     ewald contribution        =      85.35745671 Ry
     electrostatic embedding   =      -0.01804262 Ry
     electrolyte free energy   =       0.00431998 Ry
     correction to one-el term =       1.01608482 Ry

     convergence has been achieved in   6 iterations

     Forces acting on atoms (cartesian axes, Ry/au):

     atom    1 type  1   force =    -0.04652412    0.00000130    0.00000386
     atom    2 type  2   force =    -0.00612744   -0.06238352    0.00002606
     atom    3 type  2   force =     0.02094360    0.01704442   -0.00004607
     atom    4 type  2   force =     0.00624278   -0.00000367    0.00000558
     atom    5 type  2   force =     0.02095099   -0.01703450    0.00000645
     atom    6 type  2   force =    -0.00614362    0.06238360    0.00001161
     atom    7 type  3   force =     0.00205899    0.00189720    0.00000898
     atom    8 type  3   force =     0.00530832   -0.00374530   -0.00000831
     atom    9 type  3   force =    -0.00407995    0.00000305    0.00002912
     atom   10 type  3   force =     0.00531608    0.00373403   -0.00002498
     atom   11 type  3   force =     0.00205437   -0.00189661   -0.00001231

     Total force =     0.107876     Total SCF correction =     0.015671
     SCF correction compared to forces is large: reduce conv_thr to get better values

     Writing output data file pwscf.save

     init_run     :      4.77s CPU      5.17s WALL (       1 calls)
     electrons    :     35.81s CPU     38.92s WALL (       1 calls)
     forces       :      1.17s CPU      1.36s WALL (       1 calls)

     Called by init_run:
     wfcinit      :      0.15s CPU      0.15s WALL (       1 calls)
     potinit      :      2.39s CPU      2.50s WALL (       1 calls)

     Called by electrons:
     c_bands      :      1.52s CPU      1.46s WALL (       6 calls)
     sum_band     :      3.56s CPU      3.75s WALL (       6 calls)
     v_of_rho     :      4.53s CPU      4.85s WALL (       7 calls)
     newd         :      1.90s CPU      2.82s WALL (       7 calls)
     mix_rho      :      0.39s CPU      0.44s WALL (       6 calls)

     Called by c_bands:
     init_us_2    :      0.04s CPU      0.07s WALL (      13 calls)
     regterg      :      1.45s CPU      1.37s WALL (       6 calls)

     Called by sum_band:
     sum_band:bec :      0.00s CPU      0.00s WALL (       6 calls)
     addusdens    :      2.68s CPU      2.84s WALL (       6 calls)

     Called by *egterg:
     h_psi        :      1.35s CPU      1.31s WALL (      27 calls)
     s_psi        :      0.07s CPU      0.02s WALL (      27 calls)
     g_psi        :      0.01s CPU      0.01s WALL (      20 calls)
     rdiaghg      :      0.01s CPU      0.01s WALL (      26 calls)

     Called by h_psi:
     h_psi:pot    :      1.35s CPU      1.31s WALL (      27 calls)
     h_psi:calbec :      0.05s CPU      0.05s WALL (      27 calls)
     vloc_psi     :      1.23s CPU      1.24s WALL (      27 calls)
     add_vuspsi   :      0.07s CPU      0.02s WALL (      27 calls)

     General routines
     calbec       :      0.06s CPU      0.06s WALL (      37 calls)
     fft          :     12.23s CPU     12.24s WALL (     407 calls)
     ffts         :      0.06s CPU      0.06s WALL (      13 calls)
     fftw         :      1.14s CPU      1.14s WALL (     364 calls)
     interpolate  :      0.54s CPU      0.58s WALL (      13 calls)
     davcio       :      0.00s CPU      0.00s WALL (       1 calls)


     Environ routines
     calc_eelect  :      0.04s CPU      0.04s WALL (      12 calls)
     calc_velect  :     16.23s CPU     17.59s WALL (      10 calls)
     dielectric   :      0.34s CPU      0.42s WALL (       8 calls)
     electrolyte  :      0.03s CPU      0.04s WALL (       8 calls)
     calc_felect  :      0.24s CPU      0.25s WALL (       1 calls)

     PWSCF        :    41.88s CPU        45.66s WALL


   This run was terminated on:  14:47:24   1Jan2018            

=------------------------------------------------------------------------------=
   JOB DONE.
=------------------------------------------------------------------------------=

%%%% IONS %%%%%%%%%%%%%%%%%%%%%%%%%%%%%%%%%%%%%%%%%%%%%%%%%%%%%%%%%%%%%%%%%%%%%%
 number of ions             =         11
 ionic center of charge     =      0.0072664     0.0000000     0.0001166
 total ionic charge         =    -30.0000000
 ionic dipole               =      0.0000000     0.0000000     0.0000000
 ionic quadrupole (pc)      =   -131.0719095  -146.7987094    -0.0000314
 ionic quadrupole (gauss)   =   -134.8219095  -150.5487094    -3.7500314
 ion   1 type =  1 coordinates =     -2.4454071     0.0000002     0.0030272
 ion   2 type =  2 coordinates =     -1.2331440     2.2473584     0.0020749
 ion   3 type =  2 coordinates =      1.3781229     2.2851921     0.0014627
 ion   4 type =  2 coordinates =      2.6939354     0.0000002     0.0013189
 ion   5 type =  2 coordinates =      1.3781232    -2.2851919     0.0026521
 ion   6 type =  2 coordinates =     -1.2331437    -2.2473574     0.0035464
 ion   7 type =  3 coordinates =     -2.4127312     3.9381412     0.0017094
 ion   8 type =  3 coordinates =      2.3590962     4.0987221     0.0008035
 ion   9 type =  3 coordinates =      4.7585861    -0.0000002     0.0000199
 ion  10 type =  3 coordinates =      2.3590968    -4.0987217     0.0032074
 ion  11 type =  3 coordinates =     -2.4127303    -3.9381403     0.0048805

%%%% SYSTEM %%%%%%%%%%%%%%%%%%%%%%%%%%%%%%%%%%%%%%%%%%%%%%%%%%%%%%%%%%%%%%%%%%%%
 system is built from all present ionic types
 system defined dimension   =  0 
 system defined axis        =  3 
 system center              =      0.0072664     0.0000000     0.0001166 
 system width               =      0.2348011 

%%%% ELECTRONS %%%%%%%%%%%%%%%%%%%%%%%%%%%%%%%%%%%%%%%%%%%%%%%%%%%%%%%%%%%%%%%%%
 number of electrons        =         30
 total electronic charge    =     30.0000000
 number of spin components  =  1

%%%% BOUNDARY %%%%%%%%%%%%%%%%%%%%%%%%%%%%%%%%%%%%%%%%%%%%%%%%%%%%%%%%%%%%%%%%%%
 boundary mode              = electronic           
 boundary is built as a function of a smooth density
 function type              =  2 
 using the modified SCCS function with parameters 
 rhomax                     =      0.0050000 
 rhomin                     =      0.0001000 
 volume of the QM region    =   2407.1059985 
 surface of the QM region   =    815.5587051 

%%%% DIELECTRIC %%%%%%%%%%%%%%%%%%%%%%%%%%%%%%%%%%%%%%%%%%%%%%%%%%%%%%%%%%%%%%%%%
 dielectric build on homogeneous background
 environment bulk permitt.  =     20.0000000 
 dielectric flags
 need gradient              =  F 
 need factor depend. sqrt   =  T 
 total dielectric charge    =      0.0000000

%%%% BOUNDARY %%%%%%%%%%%%%%%%%%%%%%%%%%%%%%%%%%%%%%%%%%%%%%%%%%%%%%%%%%%%%%%%%%
 boundary mode              = electronic           
 boundary is built as a function of a smooth density
 function type              =  2 
 using the modified SCCS function with parameters 
 rhomax                     =      0.0007000 
 rhomin                     =      0.0000150 
 volume of the QM region    =   5932.6916041 
 surface of the QM region   =   1117.5224416 

%%%% ELECTROLYTE %%%%%%%%%%%%%%%%%%%%%%%%%%%%%%%%%%%%%%%%%%%%%%%%%%%%%%%%%%%%%%%%
 number electrol. species   =    2
 solvent temperature        =   300.0
 Debye length / sqrt(eps)   =      0.2301070
 modified Poisson-Boltzmann 
 maximum concentration      =      0.0190986
 electrolyte species    1
 bulk concentration  (a.u.) =      0.7139E-03
 bulk concentration (mol/L) =      8.0000000
 ionic charge               =   -1.00
 electrolyte species    2
 bulk concentration  (a.u.) =      0.7139E-03
 bulk concentration (mol/L) =      8.0000000
 ionic charge               =    1.00
 electrolyte flags
 linearized                 =  T
 total electrolyte charge   =      0.0000000

%%%% ELECTRONS %%%%%%%%%%%%%%%%%%%%%%%%%%%%%%%%%%%%%%%%%%%%%%%%%%%%%%%%%%%%%%%%%
 number of electrons        =         30
 total electronic charge    =     30.0000000
 number of spin components  =  1

%%%% BOUNDARY %%%%%%%%%%%%%%%%%%%%%%%%%%%%%%%%%%%%%%%%%%%%%%%%%%%%%%%%%%%%%%%%%%
 boundary mode              = electronic           
 boundary is built as a function of a smooth density
 function type              =  2 
 using the modified SCCS function with parameters 
 rhomax                     =      0.0050000 
 rhomin                     =      0.0001000 
 volume of the QM region    =   1074.1872471 
 surface of the QM region   =    527.4241024 

%%%% DIELECTRIC %%%%%%%%%%%%%%%%%%%%%%%%%%%%%%%%%%%%%%%%%%%%%%%%%%%%%%%%%%%%%%%%%
 dielectric build on homogeneous background
 environment bulk permitt.  =     20.0000000 
 dielectric flags
 need gradient              =  F 
 need factor depend. sqrt   =  T 
 total dielectric charge    =      0.0000000

%%%% BOUNDARY %%%%%%%%%%%%%%%%%%%%%%%%%%%%%%%%%%%%%%%%%%%%%%%%%%%%%%%%%%%%%%%%%%
 boundary mode              = electronic           
 boundary is built as a function of a smooth density
 function type              =  2 
 using the modified SCCS function with parameters 
 rhomax                     =      0.0007000 
 rhomin                     =      0.0000150 
 volume of the QM region    =   3892.6005199 
 surface of the QM region   =   1002.4964145 

%%%% ELECTROLYTE %%%%%%%%%%%%%%%%%%%%%%%%%%%%%%%%%%%%%%%%%%%%%%%%%%%%%%%%%%%%%%%%
 number electrol. species   =    2
 solvent temperature        =   300.0
 Debye length / sqrt(eps)   =      0.2301070
 modified Poisson-Boltzmann 
 maximum concentration      =      0.0190986
 electrolyte species    1
 bulk concentration  (a.u.) =      0.7139E-03
 bulk concentration (mol/L) =      8.0000000
 ionic charge               =   -1.00
 electrolyte species    2
 bulk concentration  (a.u.) =      0.7139E-03
 bulk concentration (mol/L) =      8.0000000
 ionic charge               =    1.00
 electrolyte flags
 linearized                 =  T
 total electrolyte charge   =      0.0000000

%%%% COMPUTE ELECTROSTATIC POTENTIAL %%%%%%%%%%%%%%%%%%%%%%%%%%%%%%%%%%%%%%%%%%%
 Iteration #          1
  pAp =    123.24640331920928       rzold =    120.82064324098198       alpha =   0.98031780228146248     
 delta_qm =   0.113770E-01 delta_en =   0.223666E+03 tol =   0.100000E-04
 Iteration #          2
  pAp =    1831.8427256156183       rzold =    61.148655760976531       alpha =    3.3380952909276972E-002
 delta_qm =   0.340736E-02 delta_en =   0.200622E+02 tol =   0.100000E-04
 Iteration #          3
  pAp =    7.9773118525641893       rzold =    1.1891076159299463       alpha =   0.14906119227966813     
 delta_qm =   0.103088E-02 delta_en =   0.183635E+01 tol =   0.100000E-04
 Iteration #          4
  pAp =   0.30311985516771306       rzold =    6.3986245741292747E-002  alpha =   0.21109222853742068     
 delta_qm =   0.538328E-03 delta_en =   0.500769E+00 tol =   0.100000E-04
 Iteration #          5
  pAp =   0.26528921580991605       rzold =    2.8922369755767278E-002  alpha =   0.10902203343422229     
 delta_qm =   0.267711E-03 delta_en =   0.123844E+00 tol =   0.100000E-04
 Iteration #          6
  pAp =    8.0541976413324740E-003  rzold =    2.1864681874167805E-003  alpha =   0.27146939829192651     
 delta_qm =   0.127041E-03 delta_en =   0.278887E-01 tol =   0.100000E-04
 Iteration #          7
  pAp =    3.9831421995570656E-003  rzold =    4.5812733287111274E-004  alpha =   0.11501656479200204     
 delta_qm =   0.991326E-04 delta_en =   0.169815E-01 tol =   0.100000E-04
 Iteration #          8
  pAp =    5.0796323283568818E-004  rzold =    1.6021146449219078E-004  alpha =   0.31539972607429773     
 delta_qm =   0.457873E-04 delta_en =   0.362271E-02 tol =   0.100000E-04
 Iteration #          9
  pAp =    1.1771322051067233E-004  rzold =    3.2502258465855491E-005  alpha =   0.27611391757741188     
 delta_qm =   0.256109E-04 delta_en =   0.113343E-02 tol =   0.100000E-04
 Iteration #         10
  pAp =    7.8194264141496196E-005  rzold =    1.6541540020463218E-005  alpha =   0.21154416122556668     
 delta_qm =   0.122148E-04 delta_en =   0.257821E-03 tol =   0.100000E-04
 Iteration #         11
  pAp =    5.0101016435834878E-005  rzold =    6.0696619823738016E-006  alpha =   0.12114847989456079     
 delta_qm =   0.814419E-05 delta_en =   0.114615E-03 tol =   0.100000E-04
 Iteration #         12
  pAp =    2.9896731511090835E-006  rzold =    1.1065573131604342E-006  alpha =   0.37012651792719647     
 delta_qm =   0.431628E-05 delta_en =   0.321931E-04 tol =   0.100000E-04
 Iteration #         13
  pAp =    3.0704837195538107E-007  rzold =    1.9015942948971485E-007  alpha =   0.61931424120153933     
 delta_qm =   0.216060E-05 delta_en =   0.806666E-05 tol =   0.100000E-04
 Charges are converged, EXIT

%%%% ELECTRONS %%%%%%%%%%%%%%%%%%%%%%%%%%%%%%%%%%%%%%%%%%%%%%%%%%%%%%%%%%%%%%%%%
 number of electrons        =         30
 total electronic charge    =     30.0000000
 number of spin components  =  1

%%%% BOUNDARY %%%%%%%%%%%%%%%%%%%%%%%%%%%%%%%%%%%%%%%%%%%%%%%%%%%%%%%%%%%%%%%%%%
 boundary mode              = electronic           
 boundary is built as a function of a smooth density
 function type              =  2 
 using the modified SCCS function with parameters 
 rhomax                     =      0.0050000 
 rhomin                     =      0.0001000 
 volume of the QM region    =   1022.9530186 
 surface of the QM region   =    515.5763383 

%%%% DIELECTRIC %%%%%%%%%%%%%%%%%%%%%%%%%%%%%%%%%%%%%%%%%%%%%%%%%%%%%%%%%%%%%%%%%
 dielectric build on homogeneous background
 environment bulk permitt.  =     20.0000000 
 dielectric flags
 need gradient              =  F 
 need factor depend. sqrt   =  T 
 total dielectric charge    =      0.0037321

%%%% BOUNDARY %%%%%%%%%%%%%%%%%%%%%%%%%%%%%%%%%%%%%%%%%%%%%%%%%%%%%%%%%%%%%%%%%%
 boundary mode              = electronic           
 boundary is built as a function of a smooth density
 function type              =  2 
 using the modified SCCS function with parameters 
 rhomax                     =      0.0007000 
 rhomin                     =      0.0000150 
 volume of the QM region    =   2616.9904705 
 surface of the QM region   =    874.0730857 

%%%% ELECTROLYTE %%%%%%%%%%%%%%%%%%%%%%%%%%%%%%%%%%%%%%%%%%%%%%%%%%%%%%%%%%%%%%%%
 number electrol. species   =    2
 solvent temperature        =   300.0
 Debye length / sqrt(eps)   =      0.2301070
 modified Poisson-Boltzmann 
 maximum concentration      =      0.0190986
 electrolyte species    1
 bulk concentration  (a.u.) =      0.7139E-03
 bulk concentration (mol/L) =      8.0000000
 ionic charge               =   -1.00
 electrolyte species    2
 bulk concentration  (a.u.) =      0.7139E-03
 bulk concentration (mol/L) =      8.0000000
 ionic charge               =    1.00
 electrolyte flags
 linearized                 =  T
 total electrolyte charge   =     -0.0041902

%%%% COMPUTE ELECTROSTATIC POTENTIAL %%%%%%%%%%%%%%%%%%%%%%%%%%%%%%%%%%%%%%%%%%%
 Warning: bad guess with residual norm =   0.199880E+03, reset to no guess
 Iteration #          1
  pAp =    124.05064812904659       rzold =    122.29889706051901       alpha =   0.98587874311865520     
 delta_qm =   0.106590E-01 delta_en =   0.196327E+03 tol =   0.100000E-04
 Iteration #          2
  pAp =    2136.1038421389931       rzold =    55.392307033321899       alpha =    2.5931467347511845E-002
 delta_qm =   0.350165E-02 delta_en =   0.211880E+02 tol =   0.100000E-04
 Iteration #          3
  pAp =    15.314566513416883       rzold =    1.4870368152595377       alpha =    9.7099504184905594E-002
 delta_qm =   0.185057E-02 delta_en =   0.591774E+01 tol =   0.100000E-04
 Iteration #          4
  pAp =    2.9495238656954150       rzold =   0.34265551962442536       alpha =   0.11617316395018787     
 delta_qm =   0.795417E-03 delta_en =   0.109329E+01 tol =   0.100000E-04
 Iteration #          5
  pAp =   0.24793946843454762       rzold =    4.2276892965869735E-002  alpha =   0.17051296121912199     
 delta_qm =   0.306787E-03 delta_en =   0.162637E+00 tol =   0.100000E-04
 Iteration #          6
  pAp =    1.5793380267371687E-002  rzold =    3.4665819671832097E-003  alpha =   0.21949588425632924     
 delta_qm =   0.159156E-03 delta_en =   0.437714E-01 tol =   0.100000E-04
 Iteration #          7
  pAp =    3.9608402629665047E-003  rzold =    7.2881167172923408E-004  alpha =   0.18400430801099371     
 delta_qm =   0.105264E-03 delta_en =   0.191473E-01 tol =   0.100000E-04
 Iteration #          8
  pAp =    8.5114896899130552E-004  rzold =    1.6434440311307536E-004  alpha =   0.19308535767580087     
 delta_qm =   0.753081E-04 delta_en =   0.980002E-02 tol =   0.100000E-04
 Iteration #          9
  pAp =    1.1562451972393049E-003  rzold =    1.6493367260593346E-004  alpha =   0.14264593098396031     
 delta_qm =   0.414029E-04 delta_en =   0.296213E-02 tol =   0.100000E-04
 Iteration #         10
  pAp =    8.0384655668701131E-005  rzold =    2.4803798962970767E-005  alpha =   0.30856385160368943     
 delta_qm =   0.183241E-04 delta_en =   0.580215E-03 tol =   0.100000E-04
 Iteration #         11
  pAp =    9.8261724552787492E-005  rzold =    1.0848241708706424E-005  alpha =   0.11040149924173787     
 delta_qm =   0.131606E-04 delta_en =   0.299291E-03 tol =   0.100000E-04
 Iteration #         12
  pAp =    2.2540349144317879E-005  rzold =    3.6137999862252555E-006  alpha =   0.16032582117904975     
 delta_qm =   0.946672E-05 delta_en =   0.154861E-03 tol =   0.100000E-04
 Iteration #         13
  pAp =    6.0405839708711144E-006  rzold =    1.3888694172434541E-006  alpha =   0.22992303789515317     
 delta_qm =   0.565512E-05 delta_en =   0.552621E-04 tol =   0.100000E-04
 Iteration #         14
  pAp =    5.1951881201689112E-007  rzold =    2.2453270970931346E-007  alpha =   0.43219360784574096     
 delta_qm =   0.311231E-05 delta_en =   0.167382E-04 tol =   0.100000E-04
 Iteration #         15
  pAp =    1.3996175347025389E-005  rzold =    4.6517741343320523E-007  alpha =    3.3236037838870712E-002
 delta_qm =   0.295507E-05 delta_en =   0.150896E-04 tol =   0.100000E-04
 Iteration #         16
  pAp =    2.0837905343567441E-007  rzold =    8.7604986718886112E-008  alpha =   0.42041167417976272     
 delta_qm =   0.124876E-05 delta_en =   0.269464E-05 tol =   0.100000E-04
 Charges are converged, EXIT

%%%% ELECTRONS %%%%%%%%%%%%%%%%%%%%%%%%%%%%%%%%%%%%%%%%%%%%%%%%%%%%%%%%%%%%%%%%%
 number of electrons        =         30
 total electronic charge    =     30.0000000
 number of spin components  =  1

%%%% BOUNDARY %%%%%%%%%%%%%%%%%%%%%%%%%%%%%%%%%%%%%%%%%%%%%%%%%%%%%%%%%%%%%%%%%%
 boundary mode              = electronic           
 boundary is built as a function of a smooth density
 function type              =  2 
 using the modified SCCS function with parameters 
 rhomax                     =      0.0050000 
 rhomin                     =      0.0001000 
 volume of the QM region    =    990.2710414 
 surface of the QM region   =    507.9705504 

%%%% DIELECTRIC %%%%%%%%%%%%%%%%%%%%%%%%%%%%%%%%%%%%%%%%%%%%%%%%%%%%%%%%%%%%%%%%%
 dielectric build on homogeneous background
 environment bulk permitt.  =     20.0000000 
 dielectric flags
 need gradient              =  F 
 need factor depend. sqrt   =  T 
 total dielectric charge    =      0.0012676

%%%% BOUNDARY %%%%%%%%%%%%%%%%%%%%%%%%%%%%%%%%%%%%%%%%%%%%%%%%%%%%%%%%%%%%%%%%%%
 boundary mode              = electronic           
 boundary is built as a function of a smooth density
 function type              =  2 
 using the modified SCCS function with parameters 
 rhomax                     =      0.0007000 
 rhomin                     =      0.0000150 
 volume of the QM region    =   1838.2828679 
 surface of the QM region   =    752.9038032 

%%%% ELECTROLYTE %%%%%%%%%%%%%%%%%%%%%%%%%%%%%%%%%%%%%%%%%%%%%%%%%%%%%%%%%%%%%%%%
 number electrol. species   =    2
 solvent temperature        =   300.0
 Debye length / sqrt(eps)   =      0.2301070
 modified Poisson-Boltzmann 
 maximum concentration      =      0.0190986
 electrolyte species    1
 bulk concentration  (a.u.) =      0.7139E-03
 bulk concentration (mol/L) =      8.0000000
 ionic charge               =   -1.00
 electrolyte species    2
 bulk concentration  (a.u.) =      0.7139E-03
 bulk concentration (mol/L) =      8.0000000
 ionic charge               =    1.00
 electrolyte flags
 linearized                 =  T
 total electrolyte charge   =     -0.0013559

%%%% COMPUTE ELECTROSTATIC POTENTIAL %%%%%%%%%%%%%%%%%%%%%%%%%%%%%%%%%%%%%%%%%%%
 Warning: bad guess with residual norm =   0.171247E+03, reset to no guess
 Iteration #          1
  pAp =    124.04492077257058       rzold =    122.81991673553193       alpha =   0.99012451272160817     
 delta_qm =   0.988631E-02 delta_en =   0.168893E+03 tol =   0.100000E-04
 Iteration #          2
  pAp =    2086.0968061059402       rzold =    46.289674600005661       alpha =    2.2189610024097264E-002
 delta_qm =   0.304120E-02 delta_en =   0.159820E+02 tol =   0.100000E-04
 Iteration #          3
  pAp =    10.419591319594769       rzold =   0.97432318456076550       alpha =    9.3508771570386132E-002
 delta_qm =   0.157672E-02 delta_en =   0.429590E+01 tol =   0.100000E-04
 Iteration #          4
  pAp =    2.2317659383117880       rzold =   0.23692505660665783       alpha =   0.10616035155813831     
 delta_qm =   0.792884E-03 delta_en =   0.108633E+01 tol =   0.100000E-04
 Iteration #          5
  pAp =   0.25865140475941878       rzold =    4.1219891053367125E-002  alpha =   0.15936465178570078     
 delta_qm =   0.326682E-03 delta_en =   0.184414E+00 tol =   0.100000E-04
 Iteration #          6
  pAp =    2.2008134292853056E-002  rzold =    4.2648849587662704E-003  alpha =   0.19378675638812570     
 delta_qm =   0.163431E-03 delta_en =   0.461544E-01 tol =   0.100000E-04
 Iteration #          7
  pAp =    3.9635353839157861E-003  rzold =    7.3356433948607469E-004  alpha =   0.18507828704214763     
 delta_qm =   0.107767E-03 delta_en =   0.200686E-01 tol =   0.100000E-04
 Iteration #          8
  pAp =    3.8582438500770340E-004  rzold =    1.2801436172562910E-004  alpha =   0.33179437770132947     
 delta_qm =   0.572992E-04 delta_en =   0.567338E-02 tol =   0.100000E-04
 Iteration #          9
  pAp =    1.0497640424986941E-003  rzold =    9.3900806852434710E-005  alpha =    8.9449441065754087E-002
 delta_qm =   0.414570E-04 delta_en =   0.296988E-02 tol =   0.100000E-04
 Iteration #         10
  pAp =    1.0888416291504140E-004  rzold =    2.5800461350610022E-005  alpha =   0.23695329660330164     
 delta_qm =   0.214117E-04 delta_en =   0.792222E-03 tol =   0.100000E-04
 Iteration #         11
  pAp =    7.0644819054177830E-005  rzold =    1.1687866695351622E-005  alpha =   0.16544548987220342     
 delta_qm =   0.126302E-04 delta_en =   0.275654E-03 tol =   0.100000E-04
 Iteration #         12
  pAp =    6.5558468888972516E-006  rzold =    1.8264035693055292E-006  alpha =   0.27859155350297471     
 delta_qm =   0.753744E-05 delta_en =   0.981728E-04 tol =   0.100000E-04
 Iteration #         13
  pAp =    1.4394919288307496E-005  rzold =    1.2205392192661886E-006  alpha =    8.4789584076208832E-002
 delta_qm =   0.603728E-05 delta_en =   0.629835E-04 tol =   0.100000E-04
 Iteration #         14
  pAp =    8.7321920630528757E-007  rzold =    2.7078879318205414E-007  alpha =   0.31010402797689179     
 delta_qm =   0.422581E-05 delta_en =   0.308577E-04 tol =   0.100000E-04
 Iteration #         15
  pAp =    1.4336037140111116E-005  rzold =    4.3466589601132097E-007  alpha =    3.0319808170359692E-002
 delta_qm =   0.356627E-05 delta_en =   0.219772E-04 tol =   0.100000E-04
 Iteration #         16
  pAp =    3.1422915627690951E-007  rzold =    1.1442266142151560E-007  alpha =   0.36413763374867236     
 delta_qm =   0.169914E-05 delta_en =   0.498886E-05 tol =   0.100000E-04
 Charges are converged, EXIT

%%%% ELECTRONS %%%%%%%%%%%%%%%%%%%%%%%%%%%%%%%%%%%%%%%%%%%%%%%%%%%%%%%%%%%%%%%%%
 number of electrons        =         30
 total electronic charge    =     30.0000000
 number of spin components  =  1

%%%% BOUNDARY %%%%%%%%%%%%%%%%%%%%%%%%%%%%%%%%%%%%%%%%%%%%%%%%%%%%%%%%%%%%%%%%%%
 boundary mode              = electronic           
 boundary is built as a function of a smooth density
 function type              =  2 
 using the modified SCCS function with parameters 
 rhomax                     =      0.0050000 
 rhomin                     =      0.0001000 
 volume of the QM region    =    970.5751010 
 surface of the QM region   =    503.1718025 

%%%% DIELECTRIC %%%%%%%%%%%%%%%%%%%%%%%%%%%%%%%%%%%%%%%%%%%%%%%%%%%%%%%%%%%%%%%%%
 dielectric build on homogeneous background
 environment bulk permitt.  =     20.0000000 
 dielectric flags
 need gradient              =  F 
 need factor depend. sqrt   =  T 
 total dielectric charge    =     -0.0000854

%%%% BOUNDARY %%%%%%%%%%%%%%%%%%%%%%%%%%%%%%%%%%%%%%%%%%%%%%%%%%%%%%%%%%%%%%%%%%
 boundary mode              = electronic           
 boundary is built as a function of a smooth density
 function type              =  2 
 using the modified SCCS function with parameters 
 rhomax                     =      0.0007000 
 rhomin                     =      0.0000150 
 volume of the QM region    =   1613.5575521 
 surface of the QM region   =    689.2615057 

%%%% ELECTROLYTE %%%%%%%%%%%%%%%%%%%%%%%%%%%%%%%%%%%%%%%%%%%%%%%%%%%%%%%%%%%%%%%%
 number electrol. species   =    2
 solvent temperature        =   300.0
 Debye length / sqrt(eps)   =      0.2301070
 modified Poisson-Boltzmann 
 maximum concentration      =      0.0190986
 electrolyte species    1
 bulk concentration  (a.u.) =      0.7139E-03
 bulk concentration (mol/L) =      8.0000000
 ionic charge               =   -1.00
 electrolyte species    2
 bulk concentration  (a.u.) =      0.7139E-03
 bulk concentration (mol/L) =      8.0000000
 ionic charge               =    1.00
 electrolyte flags
 linearized                 =  T
 total electrolyte charge   =      0.0000274

%%%% COMPUTE ELECTROSTATIC POTENTIAL %%%%%%%%%%%%%%%%%%%%%%%%%%%%%%%%%%%%%%%%%%%
 Warning: bad guess with residual norm =   0.150054E+03, reset to no guess
 Iteration #          1
  pAp =    123.58730639823095       rzold =    122.59253081112321       alpha =   0.99195082718364047     
 delta_qm =   0.926465E-02 delta_en =   0.148321E+03 tol =   0.100000E-04
 Iteration #          2
  pAp =    1746.2788974518280       rzold =    37.380655134864746       alpha =    2.1405890656647480E-002
 delta_qm =   0.323756E-02 delta_en =   0.181125E+02 tol =   0.100000E-04
 Iteration #          3
  pAp =    12.983679459441207       rzold =    1.0978054225265337       alpha =    8.4552720664114511E-002
 delta_qm =   0.169278E-02 delta_en =   0.495162E+01 tol =   0.100000E-04
 Iteration #          4
  pAp =    2.2669177665867082       rzold =   0.25459879904399502       alpha =   0.11231055788465751     
 delta_qm =   0.843162E-03 delta_en =   0.122847E+01 tol =   0.100000E-04
 Iteration #          5
  pAp =   0.30844673418635332       rzold =    4.7084501548097589E-002  alpha =   0.15265034876216485     
 delta_qm =   0.346155E-03 delta_en =   0.207055E+00 tol =   0.100000E-04
 Iteration #          6
  pAp =    2.2853674299099101E-002  rzold =    4.5391990899287258E-003  alpha =   0.19862010066834909     
 delta_qm =   0.164506E-03 delta_en =   0.467635E-01 tol =   0.100000E-04
 Iteration #          7
  pAp =    3.7054510365096597E-003  rzold =    6.8192003167977895E-004  alpha =   0.18403158615802728     
 delta_qm =   0.114575E-03 delta_en =   0.226842E-01 tol =   0.100000E-04
 Iteration #          8
  pAp =    4.4739286122416681E-004  rzold =    1.4572690337354740E-004  alpha =   0.32572469523721509     
 delta_qm =   0.575412E-04 delta_en =   0.572139E-02 tol =   0.100000E-04
 Iteration #          9
  pAp =    8.6744190765839749E-004  rzold =    7.8652706150001474E-005  alpha =    9.0672015561617594E-002
 delta_qm =   0.435819E-04 delta_en =   0.328214E-02 tol =   0.100000E-04
 Iteration #         10
  pAp =    1.1941111449949714E-004  rzold =    2.9240940183972801E-005  alpha =   0.24487620190577772     
 delta_qm =   0.209745E-04 delta_en =   0.760195E-03 tol =   0.100000E-04
 Iteration #         11
  pAp =    6.4708189877008110E-005  rzold =    9.9625194668591091E-006  alpha =   0.15396071943590184     
 delta_qm =   0.140553E-04 delta_en =   0.341370E-03 tol =   0.100000E-04
 Iteration #         12
  pAp =    6.9287184185260201E-006  rzold =    2.0959650687107168E-006  alpha =   0.30250400465207555     
 delta_qm =   0.750838E-05 delta_en =   0.974173E-04 tol =   0.100000E-04
 Iteration #         13
  pAp =    1.1501086536746009E-006  rzold =    3.5429230993040935E-007  alpha =   0.30805116438211666     
 delta_qm =   0.534677E-05 delta_en =   0.494001E-04 tol =   0.100000E-04
 Iteration #         14
  pAp =    5.9796176602727018E-006  rzold =    4.0740914721250500E-007  alpha =    6.8132976113045501E-002
 delta_qm =   0.431429E-05 delta_en =   0.321634E-04 tol =   0.100000E-04
 Iteration #         15
  pAp =    7.8402831783604260E-006  rzold =    3.4689402669461905E-007  alpha =    4.4245088959549816E-002
 delta_qm =   0.404504E-05 delta_en =   0.282742E-04 tol =   0.100000E-04
 Iteration #         16
  pAp =    7.4237162925576253E-007  rzold =    1.7361884342434212E-007  alpha =   0.23387052600379857     
 delta_qm =   0.204466E-05 delta_en =   0.722413E-05 tol =   0.100000E-04
 Charges are converged, EXIT

%%%% ELECTRONS %%%%%%%%%%%%%%%%%%%%%%%%%%%%%%%%%%%%%%%%%%%%%%%%%%%%%%%%%%%%%%%%%
 number of electrons        =         30
 total electronic charge    =     30.0000000
 number of spin components  =  1

%%%% BOUNDARY %%%%%%%%%%%%%%%%%%%%%%%%%%%%%%%%%%%%%%%%%%%%%%%%%%%%%%%%%%%%%%%%%%
 boundary mode              = electronic           
 boundary is built as a function of a smooth density
 function type              =  2 
 using the modified SCCS function with parameters 
 rhomax                     =      0.0050000 
 rhomin                     =      0.0001000 
 volume of the QM region    =    968.2630339 
 surface of the QM region   =    502.9743785 

%%%% DIELECTRIC %%%%%%%%%%%%%%%%%%%%%%%%%%%%%%%%%%%%%%%%%%%%%%%%%%%%%%%%%%%%%%%%%
 dielectric build on homogeneous background
 environment bulk permitt.  =     20.0000000 
 dielectric flags
 need gradient              =  F 
 need factor depend. sqrt   =  T 
 total dielectric charge    =      0.0000644

%%%% BOUNDARY %%%%%%%%%%%%%%%%%%%%%%%%%%%%%%%%%%%%%%%%%%%%%%%%%%%%%%%%%%%%%%%%%%
 boundary mode              = electronic           
 boundary is built as a function of a smooth density
 function type              =  2 
 using the modified SCCS function with parameters 
 rhomax                     =      0.0007000 
 rhomin                     =      0.0000150 
 volume of the QM region    =   1567.8915827 
 surface of the QM region   =    678.0946202 

%%%% ELECTROLYTE %%%%%%%%%%%%%%%%%%%%%%%%%%%%%%%%%%%%%%%%%%%%%%%%%%%%%%%%%%%%%%%%
 number electrol. species   =    2
 solvent temperature        =   300.0
 Debye length / sqrt(eps)   =      0.2301070
 modified Poisson-Boltzmann 
 maximum concentration      =      0.0190986
 electrolyte species    1
 bulk concentration  (a.u.) =      0.7139E-03
 bulk concentration (mol/L) =      8.0000000
 ionic charge               =   -1.00
 electrolyte species    2
 bulk concentration  (a.u.) =      0.7139E-03
 bulk concentration (mol/L) =      8.0000000
 ionic charge               =    1.00
 electrolyte flags
 linearized                 =  T
 total electrolyte charge   =     -0.0001427

%%%% COMPUTE ELECTROSTATIC POTENTIAL %%%%%%%%%%%%%%%%%%%%%%%%%%%%%%%%%%%%%%%%%%%
 Warning: bad guess with residual norm =   0.141943E+03, reset to no guess
 Iteration #          1
  pAp =    123.63694457015065       rzold =    122.71596665021814       alpha =   0.99255094888397255     
 delta_qm =   0.901431E-02 delta_en =   0.140414E+03 tol =   0.100000E-04
 Iteration #          2
  pAp =    1614.4264984613799       rzold =    34.344765431684614       alpha =    2.1273663102294654E-002
 delta_qm =   0.326477E-02 delta_en =   0.184183E+02 tol =   0.100000E-04
 Iteration #          3
  pAp =    13.730169546038580       rzold =    1.1230274755229850       alpha =    8.1792688120664925E-002
 delta_qm =   0.170544E-02 delta_en =   0.502592E+01 tol =   0.100000E-04
 Iteration #          4
  pAp =    2.2118429797250050       rzold =   0.25322341618179639       alpha =   0.11448525890082815     
 delta_qm =   0.838946E-03 delta_en =   0.121622E+01 tol =   0.100000E-04
 Iteration #          5
  pAp =   0.30713902563543360       rzold =    4.6457209224641915E-002  alpha =   0.15125791692712298     
 delta_qm =   0.347309E-03 delta_en =   0.208437E+00 tol =   0.100000E-04
 Iteration #          6
  pAp =    2.2097728054418491E-002  rzold =    4.4507437207426297E-003  alpha =   0.20141182431886673     
 delta_qm =   0.163227E-03 delta_en =   0.460391E-01 tol =   0.100000E-04
 Iteration #          7
  pAp =    3.5297137736952648E-003  rzold =    6.5070735849581196E-004  alpha =   0.18435131011050368     
 delta_qm =   0.115343E-03 delta_en =   0.229894E-01 tol =   0.100000E-04
 Iteration #          8
  pAp =    4.7907355667849865E-004  rzold =    1.4942848791018825E-004  alpha =   0.31191136690198951     
 delta_qm =   0.589232E-04 delta_en =   0.599951E-02 tol =   0.100000E-04
 Iteration #          9
  pAp =    1.0034618705354647E-003  rzold =    8.7239426090455842E-005  alpha =    8.6938456409811932E-002
 delta_qm =   0.443576E-04 delta_en =   0.340001E-02 tol =   0.100000E-04
 Iteration #         10
  pAp =    1.0695860818858592E-004  rzold =    2.8157654746011089E-005  alpha =   0.26325749019063927     
 delta_qm =   0.208590E-04 delta_en =   0.751851E-03 tol =   0.100000E-04
 Iteration #         11
  pAp =    5.9760899472613921E-005  rzold =    9.2464784082226569E-006  alpha =   0.15472455217077105     
 delta_qm =   0.142762E-04 delta_en =   0.352183E-03 tol =   0.100000E-04
 Iteration #         12
  pAp =    7.2865621403684349E-006  rzold =    2.1446498783232257E-006  alpha =   0.29432945702083652     
 delta_qm =   0.774151E-05 delta_en =   0.103561E-03 tol =   0.100000E-04
 Iteration #         13
  pAp =    1.6604121732856407E-006  rzold =    3.6774897224154169E-007  alpha =   0.22148053245950144     
 delta_qm =   0.562061E-05 delta_en =   0.545896E-04 tol =   0.100000E-04
 Iteration #         14
  pAp =    3.0295390165630639E-005  rzold =    1.1195778871684702E-006  alpha =    3.6955387636453126E-002
 delta_qm =   0.514193E-05 delta_en =   0.456873E-04 tol =   0.100000E-04
 Iteration #         15
  pAp =    3.6293816394843888E-006  rzold =    3.1545125937615309E-007  alpha =    8.6915979279866509E-002
 delta_qm =   0.416542E-05 delta_en =   0.299820E-04 tol =   0.100000E-04
 Iteration #         16
  pAp =    4.8228848111806237E-007  rzold =    1.4179085935496329E-007  alpha =   0.29399594828857922     
 delta_qm =   0.212847E-05 delta_en =   0.782848E-05 tol =   0.100000E-04
 Charges are converged, EXIT

%%%% ELECTRONS %%%%%%%%%%%%%%%%%%%%%%%%%%%%%%%%%%%%%%%%%%%%%%%%%%%%%%%%%%%%%%%%%
 number of electrons        =         30
 total electronic charge    =     30.0000000
 number of spin components  =  1

%%%% BOUNDARY %%%%%%%%%%%%%%%%%%%%%%%%%%%%%%%%%%%%%%%%%%%%%%%%%%%%%%%%%%%%%%%%%%
 boundary mode              = electronic           
 boundary is built as a function of a smooth density
 function type              =  2 
 using the modified SCCS function with parameters 
 rhomax                     =      0.0050000 
 rhomin                     =      0.0001000 
 volume of the QM region    =    968.2630339 
 surface of the QM region   =    502.9743785 

%%%% DIELECTRIC %%%%%%%%%%%%%%%%%%%%%%%%%%%%%%%%%%%%%%%%%%%%%%%%%%%%%%%%%%%%%%%%%
 dielectric build on homogeneous background
 environment bulk permitt.  =     20.0000000 
 dielectric flags
 need gradient              =  F 
 need factor depend. sqrt   =  T 
 total dielectric charge    =      0.0000635

%%%% BOUNDARY %%%%%%%%%%%%%%%%%%%%%%%%%%%%%%%%%%%%%%%%%%%%%%%%%%%%%%%%%%%%%%%%%%
 boundary mode              = electronic           
 boundary is built as a function of a smooth density
 function type              =  2 
 using the modified SCCS function with parameters 
 rhomax                     =      0.0007000 
 rhomin                     =      0.0000150 
 volume of the QM region    =   1567.8915827 
 surface of the QM region   =    678.0946202 

%%%% ELECTROLYTE %%%%%%%%%%%%%%%%%%%%%%%%%%%%%%%%%%%%%%%%%%%%%%%%%%%%%%%%%%%%%%%%
 number electrol. species   =    2
 solvent temperature        =   300.0
 Debye length / sqrt(eps)   =      0.2301070
 modified Poisson-Boltzmann 
 maximum concentration      =      0.0190986
 electrolyte species    1
 bulk concentration  (a.u.) =      0.7139E-03
 bulk concentration (mol/L) =      8.0000000
 ionic charge               =   -1.00
 electrolyte species    2
 bulk concentration  (a.u.) =      0.7139E-03
 bulk concentration (mol/L) =      8.0000000
 ionic charge               =    1.00
 electrolyte flags
 linearized                 =  T
 total electrolyte charge   =     -0.0001479
