
     Program PWSCF v.6.7MaX starts on  1Oct2021 at 20:29:57 

     This program is part of the open-source Quantum ESPRESSO suite
     for quantum simulation of materials; please cite
         "P. Giannozzi et al., J. Phys.:Condens. Matter 21 395502 (2009);
         "P. Giannozzi et al., J. Phys.:Condens. Matter 29 465901 (2017);
          URL http://www.quantum-espresso.org", 
     in publications or presentations arising from this work. More details at
     http://www.quantum-espresso.org/quote

     Parallel version (MPI), running on     1 processors

     MPI processes distributed on     1 nodes
     Reading input from pw.in

     Current dimensions of program PWSCF are:
     Max number of different atomic species (ntypx) = 10
     Max number of k-points (npk) =  40000
     Max angular momentum in pseudopotentials (lmaxx) =  3

     Reading input from environ.in

     ================================================================================

     Reading ENVIRON namelist

     Reading BOUNDARY namelist

     Checking boundary derivatives
     derivatives               = chain          ! SCCS default

     Reading ELECTROSTATIC namelist

     Setting up electrostatic problem
     problem                   = linmodpb       
     solver                    = cg             

     Checking PBC correction

     ================================================================================
 
     file N.pbe-rrkjus.UPF: wavefunction(s)  2S renormalized
     file C.pbe-rrkjus.UPF: wavefunction(s)  2S 2P renormalized
     file H.pbe-rrkjus.UPF: wavefunction(s)  1S renormalized

     gamma-point specific algorithms are used

     Subspace diagonalization in iterative solution of the eigenvalue problem:
     a serial algorithm will be used

 
     G-vector sticks info
     --------------------
     sticks:   dense  smooth     PW     G-vecs:    dense   smooth      PW
     Sum        9549    3809    949               701475   177509   22119
 


     bravais-lattice index     =            1
     lattice parameter (alat)  =      20.0000  a.u.
     unit-cell volume          =    8000.0000 (a.u.)^3
     number of atoms/cell      =           11
     number of atomic types    =            3
     number of electrons       =        30.00
     number of Kohn-Sham states=           15
     kinetic-energy cutoff     =      30.0000  Ry
     charge density cutoff     =     300.0000  Ry
     scf convergence threshold =      5.0E-04
     mixing beta               =       0.7000
     number of iterations used =            8  plain     mixing
     Exchange-correlation= SLA  PW   PBE  PBE
                           (   1   4   3   4   0   0   0)
 

     Environ Module
     ==============

     Please cite
         O. Andreussi, I. Dabo and N. Marzari, J. Chem. Phys. 136, 064102 (2012)         
     in publications or presentations arising from this work.

     compensation onset threshold      =               0.1000E+03
     static permittivity               =                    20.00
     epsilon calculation mode          =               electronic

     Electrostatic Setup
     -------------------
     electrostatic problem to solve    = linmodpb                
     numerical solver adopted          = cg                      
     type of auxiliary density adopted = none                    
     type of core tool for poisson     = fft                     
     type of core tool for correction  = 1d-analytic             



     celldm(1)=  20.000000  celldm(2)=   0.000000  celldm(3)=   0.000000
     celldm(4)=   0.000000  celldm(5)=   0.000000  celldm(6)=   0.000000

     crystal axes: (cart. coord. in units of alat)
               a(1) = (   1.000000   0.000000   0.000000 )  
               a(2) = (   0.000000   1.000000   0.000000 )  
               a(3) = (   0.000000   0.000000   1.000000 )  

     reciprocal axes: (cart. coord. in units 2 pi/alat)
               b(1) = (  1.000000  0.000000  0.000000 )  
               b(2) = (  0.000000  1.000000  0.000000 )  
               b(3) = (  0.000000  0.000000  1.000000 )  


     PseudoPot. # 1 for N  read from file:
     /home/simplogic86/Work/QE1/Environ/tests/../..//pseudo/N.pbe-rrkjus.UPF
     MD5 check sum: 28c76d763763edb36c62a6ca2be9aebd
     Pseudo is Ultrasoft, Zval =  5.0
     Generated by new atomic code, or converted to UPF format
     Using radial grid of 1257 points,  4 beta functions with: 
                l(1) =   0
                l(2) =   0
                l(3) =   1
                l(4) =   1
     Q(r) pseudized with 0 coefficients 


     PseudoPot. # 2 for C  read from file:
     /home/simplogic86/Work/QE1/Environ/tests/../..//pseudo/C.pbe-rrkjus.UPF
     MD5 check sum: c9ac5a99bc85b198593446162950cd17
     Pseudo is Ultrasoft, Zval =  4.0
     Generated by new atomic code, or converted to UPF format
     Using radial grid of  627 points,  4 beta functions with: 
                l(1) =   0
                l(2) =   0
                l(3) =   1
                l(4) =   1
     Q(r) pseudized with 0 coefficients 


     PseudoPot. # 3 for H  read from file:
     /home/simplogic86/Work/QE1/Environ/tests/../..//pseudo/H.pbe-rrkjus.UPF
     MD5 check sum: 2d52a7f45632fd764c17cc6affed14c8
     Pseudo is Ultrasoft, Zval =  1.0
     Generated by new atomic code, or converted to UPF format
     Using radial grid of 1061 points,  2 beta functions with: 
                l(1) =   0
                l(2) =   0
     Q(r) pseudized with 0 coefficients 


     atomic species   valence    mass     pseudopotential
        N              5.00    14.00000     N ( 1.00)
        C              4.00    12.00000     C ( 1.00)
        H              1.00     1.00000     H ( 1.00)

     No symmetry found



   Cartesian axes

     site n.     atom                  positions (alat units)
         1           N   tau(   1) = (  -0.1222704   0.0000000   0.0001514  )
         2           C   tau(   2) = (  -0.0616572   0.1123679   0.0001037  )
         3           C   tau(   3) = (   0.0689061   0.1142596   0.0000731  )
         4           C   tau(   4) = (   0.1346968   0.0000000   0.0000659  )
         5           C   tau(   5) = (   0.0689062  -0.1142596   0.0001326  )
         6           C   tau(   6) = (  -0.0616572  -0.1123679   0.0001773  )
         7           H   tau(   7) = (  -0.1206366   0.1969071   0.0000855  )
         8           H   tau(   8) = (   0.1179548   0.2049361   0.0000402  )
         9           H   tau(   9) = (   0.2379293  -0.0000000   0.0000010  )
        10           H   tau(  10) = (   0.1179548  -0.2049361   0.0001604  )
        11           H   tau(  11) = (  -0.1206365  -0.1969070   0.0002440  )

     number of k points=     1
                       cart. coord. in units 2pi/alat
        k(    1) = (   0.0000000   0.0000000   0.0000000), wk =   2.0000000

     Dense  grid:   350738 G-vectors     FFT dimensions: ( 120, 120, 120)

     Smooth grid:    88755 G-vectors     FFT dimensions: (  72,  72,  72)

     Estimated max dynamical RAM per process >     599.84 MB

     Initial potential from superposition of free atoms

     starting charge   29.51871, renormalised to   30.00000

     negative rho (up, down):  4.533E-04 0.000E+00
     Starting wfcs are   29 randomized atomic wfcs

     total cpu time spent up to now is        7.0 secs

     Self-consistent Calculation

     iteration #  1     ecut=    30.00 Ry     beta= 0.70
     Davidson diagonalization with overlap
     ethr =  1.00E-02,  avg # of iterations =  2.0

     negative rho (up, down):  1.343E-04 0.000E+00

     add environment contribution to local potential
     Polarization accuracy = 7.3E-06, # of iterations =  13

     total cpu time spent up to now is       12.8 secs

     total energy              =     -82.28140034 Ry
     estimated scf accuracy    <       2.00743679 Ry
     electrostatic embedding   =       0.00000000 Ry
     electrolyte free energy   =       0.01667930 Ry
     correction to one-el term =       0.00000000 Ry

     iteration #  2     ecut=    30.00 Ry     beta= 0.70
     Davidson diagonalization with overlap
     ethr =  6.69E-03,  avg # of iterations =  3.0

     negative rho (up, down):  8.682E-05 0.000E+00

     add environment contribution to local potential
     Polarization accuracy = 2.9E-06, # of iterations =  16

     total cpu time spent up to now is       19.5 secs

     total energy              =     -82.54570386 Ry
     estimated scf accuracy    <       0.29802838 Ry
     electrostatic embedding   =      -0.02767378 Ry
     electrolyte free energy   =       0.01082004 Ry
     correction to one-el term =       0.08029607 Ry

     iteration #  3     ecut=    30.00 Ry     beta= 0.70
     Davidson diagonalization with overlap
     ethr =  9.93E-04,  avg # of iterations =  4.0

     negative rho (up, down):  6.722E-05 0.000E+00

     add environment contribution to local potential
     Polarization accuracy = 5.8E-06, # of iterations =  16

     total cpu time spent up to now is       26.4 secs

     total energy              =     -82.63262657 Ry
     estimated scf accuracy    <       0.05361225 Ry
     electrostatic embedding   =      -0.01947949 Ry
     electrolyte free energy   =       0.00668051 Ry
     correction to one-el term =       0.62568935 Ry

     iteration #  4     ecut=    30.00 Ry     beta= 0.70
     Davidson diagonalization with overlap
     ethr =  1.79E-04,  avg # of iterations =  3.0

     negative rho (up, down):  4.808E-05 0.000E+00

     add environment contribution to local potential
     Polarization accuracy = 7.2E-06, # of iterations =  16

     total cpu time spent up to now is       34.8 secs

     total energy              =     -82.64561692 Ry
     estimated scf accuracy    <       0.00342915 Ry
     electrostatic embedding   =      -0.01713652 Ry
     electrolyte free energy   =       0.00477360 Ry
     correction to one-el term =       0.87193405 Ry

     iteration #  5     ecut=    30.00 Ry     beta= 0.70
     Davidson diagonalization with overlap
     ethr =  1.14E-05,  avg # of iterations =  2.0

     negative rho (up, down):  1.393E-04 0.000E+00

     the potential shift due to the Gaussian-smeared nuclei is    -0.0801 ev

     total cpu time spent up to now is       36.9 secs

     End of self-consistent calculation

          k = 0.0000 0.0000 0.0000 ( 11060 PWs)   bands (ev):

   -23.3023 -19.6185 -18.8633 -15.3981 -15.2719 -12.8003 -11.6537 -11.1923
   -10.4391  -9.8007  -9.4457  -8.6780  -7.0486  -6.6417  -5.6395

     highest occupied level (ev):    -5.6395

!    total energy              =     -82.64616353 Ry
     estimated scf accuracy    <       0.00046795 Ry

     The total energy is the sum of the following terms:
     one-electron contribution =    -292.44377347 Ry
     hartree contribution      =     149.45166434 Ry
     xc contribution           =     -25.97772495 Ry
     ewald contribution        =      85.35745758 Ry
     electrostatic embedding   =      -0.01753987 Ry
     electrolyte free energy   =       0.00439793 Ry
     correction to one-el term =       0.97935490 Ry

     WARNING: you are using the parabolic pbc correction;
              the potential shift above must be added to 
              band and Fermi energies.

     convergence has been achieved in   5 iterations

     Forces acting on atoms (cartesian axes, Ry/au):

     atom    1 type  1   force =    -0.04642427    0.00023366   -0.00001131
     atom    2 type  2   force =    -0.00575513   -0.06082844    0.00007789
     atom    3 type  2   force =     0.01766384    0.01606916   -0.00004471
     atom    4 type  2   force =     0.00780792    0.00004415    0.00000731
     atom    5 type  2   force =     0.01739782   -0.01626966    0.00000618
     atom    6 type  2   force =    -0.00555857    0.06055501   -0.00001898
     atom    7 type  3   force =     0.00305589   -0.00092595    0.00002457
     atom    8 type  3   force =     0.00579603   -0.00128464   -0.00003881
     atom    9 type  3   force =    -0.00278219   -0.00005677    0.00002909
     atom   10 type  3   force =     0.00570371    0.00148030   -0.00002936
     atom   11 type  3   force =     0.00309493    0.00098317   -0.00000189

     Total force =     0.104323     Total SCF correction =     0.036946
     SCF correction compared to forces is large: reduce conv_thr to get better values

     Writing output data file /home/simplogic86/Work/QE1/Environ/tests/../..//tempdir/pwscf.save/
 
     init_run     :      6.70s CPU      6.91s WALL (       1 calls)
     electrons    :     28.43s CPU     29.97s WALL (       1 calls)
     forces       :      0.77s CPU      0.93s WALL (       1 calls)

     Called by init_run:
     wfcinit      :      0.15s CPU      0.17s WALL (       1 calls)
     potinit      :      1.97s CPU      2.00s WALL (       1 calls)
     hinit0       :      3.92s CPU      3.92s WALL (       1 calls)

     Called by electrons:
     c_bands      :      1.09s CPU      1.14s WALL (       5 calls)
     sum_band     :      1.58s CPU      1.88s WALL (       5 calls)
     v_of_rho     :      2.34s CPU      2.60s WALL (       6 calls)
     newd         :      1.05s CPU      1.27s WALL (       6 calls)
     mix_rho      :      0.24s CPU      0.26s WALL (       5 calls)

     Called by c_bands:
     init_us_2    :      0.03s CPU      0.03s WALL (      11 calls)
     regterg      :      1.02s CPU      1.04s WALL (       5 calls)

     Called by *egterg:
     rdiaghg      :      0.01s CPU      0.01s WALL (      19 calls)
     h_psi        :      1.04s CPU      1.06s WALL (      20 calls)
     s_psi        :      0.03s CPU      0.03s WALL (      20 calls)
     g_psi        :      0.00s CPU      0.00s WALL (      14 calls)

     Called by h_psi:
     h_psi:calbec :      0.03s CPU      0.03s WALL (      20 calls)
     vloc_psi     :      0.97s CPU      0.97s WALL (      20 calls)
     add_vuspsi   :      0.03s CPU      0.03s WALL (      20 calls)

     General routines
     calbec       :      0.04s CPU      0.04s WALL (      29 calls)
     fft          :      1.08s CPU      1.09s WALL (      66 calls)
     ffts         :      0.03s CPU      0.03s WALL (      11 calls)
     fftw         :      0.80s CPU      0.80s WALL (     304 calls)
     interpolate  :      0.13s CPU      0.13s WALL (       6 calls)
 
     Parallel routines
 
     Environ routines
 
     PWSCF        :     35.97s CPU     37.89s WALL

 
   This run was terminated on:  20:30:35   1Oct2021            

=------------------------------------------------------------------------------=
   JOB DONE.
=------------------------------------------------------------------------------=

%%%% CELL %%%%%%%%%%%%%%%%%%%%%%%%%%%%%%%%%%%%%%%%%%%%%%%%%%%%%%%%%%%%%%%%%%%%%%

 cell label                 = system         

 cell volume                =    8000.000000

%%%% IONS %%%%%%%%%%%%%%%%%%%%%%%%%%%%%%%%%%%%%%%%%%%%%%%%%%%%%%%%%%%%%%%%%%%%%%

 total charge               =    -30.0000000
 center of charge           =      0.1453286     0.0000003     0.0023326
 dipole                     =      0.0000000     0.0000000     0.0000000
 quadrupole (pc)            =   -131.0719083  -146.7987081    -0.0000314
 quadrupole (gauss)         =   -134.8219083  -150.5487081    -3.7500314

   i | type | coordinates
 -----------------------------------------------------------------------
   1 |    1 |                     -2.4454071     0.0000002     0.0030272
   2 |    2 |                     -1.2331440     2.2473584     0.0020749
   3 |    2 |                      1.3781229     2.2851921     0.0014627
   4 |    2 |                      2.6939354     0.0000002     0.0013189
   5 |    2 |                      1.3781232    -2.2851919     0.0026521
   6 |    2 |                     -1.2331437    -2.2473574     0.0035464
   7 |    3 |                     -2.4127312     3.9381412     0.0017094
   8 |    3 |                      2.3590962     4.0987221     0.0008035
   9 |    3 |                      4.7585861    -0.0000002     0.0000199
  10 |    3 |                      2.3590968    -4.0987217     0.0032074
  11 |    3 |                     -2.4127303    -3.9381403     0.0048805

%%%% SYSTEM %%%%%%%%%%%%%%%%%%%%%%%%%%%%%%%%%%%%%%%%%%%%%%%%%%%%%%%%%%%%%%%%%%%%

 system is built from all present ionic types

 system defined dimension   =              0
 system defined axis        =              3

 system center              =      0.1453286     0.0000003     0.0023326
 system width               =      4.6960222

%%%% IONS %%%%%%%%%%%%%%%%%%%%%%%%%%%%%%%%%%%%%%%%%%%%%%%%%%%%%%%%%%%%%%%%%%%%%%

 total charge               =    -30.0000000
 center of charge           =      0.1453286     0.0000003     0.0023326
 dipole                     =      0.0000000     0.0000000     0.0000000
 quadrupole (pc)            =   -131.0719083  -146.7987081    -0.0000314
 quadrupole (gauss)         =   -134.8219083  -150.5487081    -3.7500314

   i | type | coordinates
 -----------------------------------------------------------------------
   1 |    1 |                     -2.4454071     0.0000002     0.0030272
   2 |    2 |                     -1.2331440     2.2473584     0.0020749
   3 |    2 |                      1.3781229     2.2851921     0.0014627
   4 |    2 |                      2.6939354     0.0000002     0.0013189
   5 |    2 |                      1.3781232    -2.2851919     0.0026521
   6 |    2 |                     -1.2331437    -2.2473574     0.0035464
   7 |    3 |                     -2.4127312     3.9381412     0.0017094
   8 |    3 |                      2.3590962     4.0987221     0.0008035
   9 |    3 |                      4.7585861    -0.0000002     0.0000199
  10 |    3 |                      2.3590968    -4.0987217     0.0032074
  11 |    3 |                     -2.4127303    -3.9381403     0.0048805

%%%% SYSTEM %%%%%%%%%%%%%%%%%%%%%%%%%%%%%%%%%%%%%%%%%%%%%%%%%%%%%%%%%%%%%%%%%%%%

 system is built from all present ionic types

 system defined dimension   =              0
 system defined axis        =              3

 system center              =      0.1453286     0.0000003     0.0023326
 system width               =      4.6960222

%%%% CHARGES %%%%%%%%%%%%%%%%%%%%%%%%%%%%%%%%%%%%%%%%%%%%%%%%%%%%%%%%%%%%%%%%%%%

 total number of charges    =             12

 total charge               =    -30.0000000

%%%% CHARGES %%%%%%%%%%%%%%%%%%%%%%%%%%%%%%%%%%%%%%%%%%%%%%%%%%%%%%%%%%%%%%%%%%%

 total number of charges    =             12

 total charge               =    -30.0000000

%%%% CELL %%%%%%%%%%%%%%%%%%%%%%%%%%%%%%%%%%%%%%%%%%%%%%%%%%%%%%%%%%%%%%%%%%%%%%

 cell label                 = system         

 cell volume                =    8000.000000

%%%% ELECTROLYTE %%%%%%%%%%%%%%%%%%%%%%%%%%%%%%%%%%%%%%%%%%%%%%%%%%%%%%%%%%%%%%%%

 number electrolyte species =              2
 solvent temperature        =          300.0
 Debye length / sqrt(eps)   =      0.2301070

 modified Poisson-Boltzmann:
 maximum concentration      =      0.0190986

 electrolyte flags:
 linearized                 =              T

 total electrolyte charge   =      0.0000000

 species
 =======

   i |  c_bulk (a.u.) | c_bulk (mol/L) | ionic charge
 ----------------------------------------------------
   1 |     0.7139E-03 |      8.0000000 |        -1.00
   2 |     0.7139E-03 |      8.0000000 |         1.00

%%%% ELECTRONS %%%%%%%%%%%%%%%%%%%%%%%%%%%%%%%%%%%%%%%%%%%%%%%%%%%%%%%%%%%%%%%%%

 number of electrons        =             30

 total electronic charge    =     30.0000000

%%%% ELECTRONS %%%%%%%%%%%%%%%%%%%%%%%%%%%%%%%%%%%%%%%%%%%%%%%%%%%%%%%%%%%%%%%%%

 number of electrons        =             30

 total electronic charge    =     30.0000000

%%%% CHARGES %%%%%%%%%%%%%%%%%%%%%%%%%%%%%%%%%%%%%%%%%%%%%%%%%%%%%%%%%%%%%%%%%%%

 total number of charges    =             41

 total charge               =     -0.0000000

%%%% CHARGES %%%%%%%%%%%%%%%%%%%%%%%%%%%%%%%%%%%%%%%%%%%%%%%%%%%%%%%%%%%%%%%%%%%

 total number of charges    =             41

 total charge               =     -0.0000000

%%%% BOUNDARY %%%%%%%%%%%%%%%%%%%%%%%%%%%%%%%%%%%%%%%%%%%%%%%%%%%%%%%%%%%%%%%%%%

 boundary label             = solvent             
 boundary mode              = electronic          

 boundary is built as a type-2 function of a smooth density

 using the modified SCCS function:
 rhomax                     =      0.0050000
 rhomin                     =      0.0001000

 volume of the QM region    =   2407.1059940

 surface of the QM region   =    815.5587045

%%%% BOUNDARY %%%%%%%%%%%%%%%%%%%%%%%%%%%%%%%%%%%%%%%%%%%%%%%%%%%%%%%%%%%%%%%%%%

 boundary label             = electrolyte         
 boundary mode              = electronic          

 boundary is built as a type-2 function of a smooth density

 using the modified SCCS function:
 rhomax                     =      0.0007000
 rhomin                     =      0.0000150

 volume of the QM region    =   5932.6915978

 surface of the QM region   =   1117.5224438

%%%% ELECTROLYTE %%%%%%%%%%%%%%%%%%%%%%%%%%%%%%%%%%%%%%%%%%%%%%%%%%%%%%%%%%%%%%%%

 number electrolyte species =              2
 solvent temperature        =          300.0
 Debye length / sqrt(eps)   =      0.2301070

 modified Poisson-Boltzmann:
 maximum concentration      =      0.0190986

 electrolyte flags:
 linearized                 =              T

 total electrolyte charge   =      0.0000000

 species
 =======

   i |  c_bulk (a.u.) | c_bulk (mol/L) | ionic charge
 ----------------------------------------------------
   1 |     0.7139E-03 |      8.0000000 |        -1.00
   2 |     0.7139E-03 |      8.0000000 |         1.00

%%%% DENSITY %%%%%%%%%%%%%%%%%%%%%%%%%%%%%%%%%%%%%%%%%%%%%%%%%%%%%%%%%%%%%%%%%%%

 density label              = dvtot                                             

 integral of density        =    0.000000000    

%%%% DENSITY %%%%%%%%%%%%%%%%%%%%%%%%%%%%%%%%%%%%%%%%%%%%%%%%%%%%%%%%%%%%%%%%%%%

 density label              = vreference                                        

 integral of density        =    0.000000000    

%%%% DENSITY %%%%%%%%%%%%%%%%%%%%%%%%%%%%%%%%%%%%%%%%%%%%%%%%%%%%%%%%%%%%%%%%%%%

 density label              = velectrostatic                                    

 integral of density        =    0.000000000    

%%%% CHARGES %%%%%%%%%%%%%%%%%%%%%%%%%%%%%%%%%%%%%%%%%%%%%%%%%%%%%%%%%%%%%%%%%%%

 total number of charges    =             41

 total charge               =     -0.0000000

%%%% DENSITY %%%%%%%%%%%%%%%%%%%%%%%%%%%%%%%%%%%%%%%%%%%%%%%%%%%%%%%%%%%%%%%%%%%

 density label              = vsoftcavity                                       

 integral of density        =    0.000000000    

%%%% ELECTRONS %%%%%%%%%%%%%%%%%%%%%%%%%%%%%%%%%%%%%%%%%%%%%%%%%%%%%%%%%%%%%%%%%

 number of electrons        =             30

 total electronic charge    =     30.0000000

%%%% ELECTRONS %%%%%%%%%%%%%%%%%%%%%%%%%%%%%%%%%%%%%%%%%%%%%%%%%%%%%%%%%%%%%%%%%

 number of electrons        =             30

 total electronic charge    =     30.0000000

%%%% CHARGES %%%%%%%%%%%%%%%%%%%%%%%%%%%%%%%%%%%%%%%%%%%%%%%%%%%%%%%%%%%%%%%%%%%

 total number of charges    =             41

 total charge               =      0.0000000

%%%% CHARGES %%%%%%%%%%%%%%%%%%%%%%%%%%%%%%%%%%%%%%%%%%%%%%%%%%%%%%%%%%%%%%%%%%%

 total number of charges    =             41

 total charge               =      0.0000000

%%%% BOUNDARY %%%%%%%%%%%%%%%%%%%%%%%%%%%%%%%%%%%%%%%%%%%%%%%%%%%%%%%%%%%%%%%%%%

 boundary label             = solvent             
 boundary mode              = electronic          

 boundary is built as a type-2 function of a smooth density

 using the modified SCCS function:
 rhomax                     =      0.0050000
 rhomin                     =      0.0001000

 volume of the QM region    =   1079.4809383

 surface of the QM region   =    528.9398834

%%%% BOUNDARY %%%%%%%%%%%%%%%%%%%%%%%%%%%%%%%%%%%%%%%%%%%%%%%%%%%%%%%%%%%%%%%%%%

 boundary label             = electrolyte         
 boundary mode              = electronic          

 boundary is built as a type-2 function of a smooth density

 using the modified SCCS function:
 rhomax                     =      0.0007000
 rhomin                     =      0.0000150

 volume of the QM region    =   3894.0294819

 surface of the QM region   =   1002.6083315

%%%% ELECTROLYTE %%%%%%%%%%%%%%%%%%%%%%%%%%%%%%%%%%%%%%%%%%%%%%%%%%%%%%%%%%%%%%%%

 number electrolyte species =              2
 solvent temperature        =          300.0
 Debye length / sqrt(eps)   =      0.2301070

 modified Poisson-Boltzmann:
 maximum concentration      =      0.0190986

 electrolyte flags:
 linearized                 =              T

 total electrolyte charge   =      0.0000000

 species
 =======

   i |  c_bulk (a.u.) | c_bulk (mol/L) | ionic charge
 ----------------------------------------------------
   1 |     0.7139E-03 |      8.0000000 |        -1.00
   2 |     0.7139E-03 |      8.0000000 |         1.00

%%%% DENSITY %%%%%%%%%%%%%%%%%%%%%%%%%%%%%%%%%%%%%%%%%%%%%%%%%%%%%%%%%%%%%%%%%%%

 density label              = vreference                                        

 integral of density        =  -0.3510607443E-12

%%%% COMPUTE ELECTROSTATIC POTENTIAL %%%%%%%%%%%%%%%%%%%%%%%%%%%%%%%%%%%%%%%%%%%

   i |      alpha     |       pAp      |      rzold     |    delta_qm    |    delta_en    |       tol
 ---------------------------------------------------------------------------------------------------------
   1 |   0.980161E+00 |   0.123633E+03 |   0.121180E+03 |   0.114405E-01 |   0.226169E+03 |   0.100000E-04
   2 |   0.330033E-01 |   0.189685E+04 |   0.626024E+02 |   0.340630E-02 |   0.200498E+02 |   0.100000E-04
   3 |   0.148954E+00 |   0.801870E+01 |   0.119442E+01 |   0.104001E-02 |   0.186903E+01 |   0.100000E-04
   4 |   0.209066E+00 |   0.313069E+00 |   0.654520E-01 |   0.543291E-03 |   0.510046E+00 |   0.100000E-04
   5 |   0.108441E+00 |   0.273437E+00 |   0.296518E-01 |   0.271514E-03 |   0.127388E+00 |   0.100000E-04
   6 |   0.270231E+00 |   0.849782E-02 |   0.229638E-02 |   0.127558E-03 |   0.281162E-01 |   0.100000E-04
   7 |   0.114259E+00 |   0.412437E-02 |   0.471245E-03 |   0.998334E-04 |   0.172225E-01 |   0.100000E-04
   8 |   0.310725E+00 |   0.533026E-03 |   0.165625E-03 |   0.470021E-04 |   0.381750E-02 |   0.100000E-04
   9 |   0.264675E+00 |   0.132486E-03 |   0.350658E-04 |   0.266241E-04 |   0.122488E-02 |   0.100000E-04
  10 |   0.220442E+00 |   0.776443E-04 |   0.171160E-04 |   0.124284E-04 |   0.266915E-03 |   0.100000E-04
  11 |   0.117469E+00 |   0.555207E-04 |   0.652197E-05 |   0.818774E-05 |   0.115844E-03 |   0.100000E-04
  12 |   0.369119E+00 |   0.305215E-05 |   0.112660E-05 |   0.427169E-05 |   0.315313E-04 |   0.100000E-04
  13 |   0.635696E+00 |   0.281328E-06 |   0.178839E-06 |   0.204947E-05 |   0.725815E-05 |   0.100000E-04

 Charges are converged, EXIT

%%%% DENSITY %%%%%%%%%%%%%%%%%%%%%%%%%%%%%%%%%%%%%%%%%%%%%%%%%%%%%%%%%%%%%%%%%%%

 density label              = velectrostatic                                    

 integral of density        =   -280.6621430    

%%%% CHARGES %%%%%%%%%%%%%%%%%%%%%%%%%%%%%%%%%%%%%%%%%%%%%%%%%%%%%%%%%%%%%%%%%%%

 total number of charges    =             41

 total charge               =      0.0000000

%%%% DENSITY %%%%%%%%%%%%%%%%%%%%%%%%%%%%%%%%%%%%%%%%%%%%%%%%%%%%%%%%%%%%%%%%%%%

 density label              = vsoftcavity                                       

 integral of density        =    124.8915569    

%%%% DENSITY %%%%%%%%%%%%%%%%%%%%%%%%%%%%%%%%%%%%%%%%%%%%%%%%%%%%%%%%%%%%%%%%%%%

 density label              = dvtot                                             

 integral of density        =   -155.7705862    

%%%% ELECTRONS %%%%%%%%%%%%%%%%%%%%%%%%%%%%%%%%%%%%%%%%%%%%%%%%%%%%%%%%%%%%%%%%%

 number of electrons        =             30

 total electronic charge    =     30.0000000

%%%% ELECTRONS %%%%%%%%%%%%%%%%%%%%%%%%%%%%%%%%%%%%%%%%%%%%%%%%%%%%%%%%%%%%%%%%%

 number of electrons        =             30

 total electronic charge    =     30.0000000

%%%% CHARGES %%%%%%%%%%%%%%%%%%%%%%%%%%%%%%%%%%%%%%%%%%%%%%%%%%%%%%%%%%%%%%%%%%%

 total number of charges    =             41

 total charge               =      0.0000000

%%%% CHARGES %%%%%%%%%%%%%%%%%%%%%%%%%%%%%%%%%%%%%%%%%%%%%%%%%%%%%%%%%%%%%%%%%%%

 total number of charges    =             41

 total charge               =      0.0000000

%%%% BOUNDARY %%%%%%%%%%%%%%%%%%%%%%%%%%%%%%%%%%%%%%%%%%%%%%%%%%%%%%%%%%%%%%%%%%

 boundary label             = solvent             
 boundary mode              = electronic          

 boundary is built as a type-2 function of a smooth density

 using the modified SCCS function:
 rhomax                     =      0.0050000
 rhomin                     =      0.0001000

 volume of the QM region    =   1003.7773428

 surface of the QM region   =    509.8948325

%%%% BOUNDARY %%%%%%%%%%%%%%%%%%%%%%%%%%%%%%%%%%%%%%%%%%%%%%%%%%%%%%%%%%%%%%%%%%

 boundary label             = electrolyte         
 boundary mode              = electronic          

 boundary is built as a type-2 function of a smooth density

 using the modified SCCS function:
 rhomax                     =      0.0007000
 rhomin                     =      0.0000150

 volume of the QM region    =   2420.3551169

 surface of the QM region   =    837.0082710

%%%% ELECTROLYTE %%%%%%%%%%%%%%%%%%%%%%%%%%%%%%%%%%%%%%%%%%%%%%%%%%%%%%%%%%%%%%%%

 number electrolyte species =              2
 solvent temperature        =          300.0
 Debye length / sqrt(eps)   =      0.2301070

 modified Poisson-Boltzmann:
 maximum concentration      =      0.0190986

 electrolyte flags:
 linearized                 =              T

 total electrolyte charge   =     -0.0048402

 species
 =======

   i |  c_bulk (a.u.) | c_bulk (mol/L) | ionic charge
 ----------------------------------------------------
   1 |     0.7139E-03 |      8.0000000 |        -1.00
   2 |     0.7139E-03 |      8.0000000 |         1.00

%%%% DENSITY %%%%%%%%%%%%%%%%%%%%%%%%%%%%%%%%%%%%%%%%%%%%%%%%%%%%%%%%%%%%%%%%%%%

 density label              = vreference                                        

 integral of density        =   0.3460606287E-13

%%%% COMPUTE ELECTROSTATIC POTENTIAL %%%%%%%%%%%%%%%%%%%%%%%%%%%%%%%%%%%%%%%%%%%

 Warning: Bad guess with residual norm =   0.192075E+03, reset to no guess

   i |      alpha     |       pAp      |      rzold     |    delta_qm    |    delta_en    |       tol
 ---------------------------------------------------------------------------------------------------------
   1 |   0.987155E+00 |   0.123869E+03 |   0.122278E+03 |   0.104548E-01 |   0.188875E+03 |   0.100000E-04
   2 |   0.245843E-01 |   0.220581E+04 |   0.542282E+02 |   0.322546E-02 |   0.179774E+02 |   0.100000E-04
   3 |   0.100907E+00 |   0.115995E+02 |   0.117047E+01 |   0.166276E-02 |   0.477754E+01 |   0.100000E-04
   4 |   0.107067E+00 |   0.260072E+01 |   0.278452E+00 |   0.770672E-03 |   0.102632E+01 |   0.100000E-04
   5 |   0.168352E+00 |   0.232291E+00 |   0.391067E-01 |   0.305072E-03 |   0.160823E+00 |   0.100000E-04
   6 |   0.209181E+00 |   0.168647E-01 |   0.352777E-02 |   0.158421E-03 |   0.433679E-01 |   0.100000E-04
   7 |   0.182889E+00 |   0.397183E-02 |   0.726405E-03 |   0.103224E-03 |   0.184121E-01 |   0.100000E-04
   8 |   0.217016E+00 |   0.629851E-03 |   0.136687E-03 |   0.720347E-04 |   0.896658E-02 |   0.100000E-04
   9 |   0.127306E+00 |   0.124291E-02 |   0.158229E-03 |   0.405305E-04 |   0.283863E-02 |   0.100000E-04
  10 |   0.282202E+00 |   0.830782E-04 |   0.234448E-04 |   0.190585E-04 |   0.627657E-03 |   0.100000E-04
  11 |   0.137781E+00 |   0.758747E-04 |   0.104541E-04 |   0.125225E-04 |   0.270972E-03 |   0.100000E-04
  12 |   0.120507E+00 |   0.325601E-04 |   0.392374E-05 |   0.939458E-05 |   0.152510E-03 |   0.100000E-04
  13 |   0.231674E+00 |   0.609083E-05 |   0.141109E-05 |   0.554257E-05 |   0.530842E-04 |   0.100000E-04
  14 |   0.458915E+00 |   0.469746E-06 |   0.215574E-06 |   0.320073E-05 |   0.177028E-04 |   0.100000E-04
  15 |   0.138290E+00 |   0.696607E-06 |   0.963335E-07 |   0.241713E-05 |   0.100958E-04 |   0.100000E-04
  16 |   0.870847E-01 |   0.386111E-05 |   0.336243E-06 |   0.129493E-05 |   0.289757E-05 |   0.100000E-04

 Charges are converged, EXIT

%%%% DENSITY %%%%%%%%%%%%%%%%%%%%%%%%%%%%%%%%%%%%%%%%%%%%%%%%%%%%%%%%%%%%%%%%%%%

 density label              = velectrostatic                                    

 integral of density        =   -282.2146321    

%%%% CHARGES %%%%%%%%%%%%%%%%%%%%%%%%%%%%%%%%%%%%%%%%%%%%%%%%%%%%%%%%%%%%%%%%%%%

 total number of charges    =             41

 total charge               =      0.0000000

%%%% DENSITY %%%%%%%%%%%%%%%%%%%%%%%%%%%%%%%%%%%%%%%%%%%%%%%%%%%%%%%%%%%%%%%%%%%

 density label              = vsoftcavity                                       

 integral of density        =    109.6811881    

%%%% DENSITY %%%%%%%%%%%%%%%%%%%%%%%%%%%%%%%%%%%%%%%%%%%%%%%%%%%%%%%%%%%%%%%%%%%

 density label              = dvtot                                             

 integral of density        =   -172.5334440    

%%%% ELECTRONS %%%%%%%%%%%%%%%%%%%%%%%%%%%%%%%%%%%%%%%%%%%%%%%%%%%%%%%%%%%%%%%%%

 number of electrons        =             30

 total electronic charge    =     30.0000000

%%%% ELECTRONS %%%%%%%%%%%%%%%%%%%%%%%%%%%%%%%%%%%%%%%%%%%%%%%%%%%%%%%%%%%%%%%%%

 number of electrons        =             30

 total electronic charge    =     30.0000000

%%%% CHARGES %%%%%%%%%%%%%%%%%%%%%%%%%%%%%%%%%%%%%%%%%%%%%%%%%%%%%%%%%%%%%%%%%%%

 total number of charges    =             41

 total charge               =     -0.0000000

%%%% CHARGES %%%%%%%%%%%%%%%%%%%%%%%%%%%%%%%%%%%%%%%%%%%%%%%%%%%%%%%%%%%%%%%%%%%

 total number of charges    =             41

 total charge               =     -0.0000000

%%%% BOUNDARY %%%%%%%%%%%%%%%%%%%%%%%%%%%%%%%%%%%%%%%%%%%%%%%%%%%%%%%%%%%%%%%%%%

 boundary label             = solvent             
 boundary mode              = electronic          

 boundary is built as a type-2 function of a smooth density

 using the modified SCCS function:
 rhomax                     =      0.0050000
 rhomin                     =      0.0001000

 volume of the QM region    =    975.7508751

 surface of the QM region   =    503.7557411

%%%% BOUNDARY %%%%%%%%%%%%%%%%%%%%%%%%%%%%%%%%%%%%%%%%%%%%%%%%%%%%%%%%%%%%%%%%%%

 boundary label             = electrolyte         
 boundary mode              = electronic          

 boundary is built as a type-2 function of a smooth density

 using the modified SCCS function:
 rhomax                     =      0.0007000
 rhomin                     =      0.0000150

 volume of the QM region    =   1732.0553990

 surface of the QM region   =    718.7196983

%%%% ELECTROLYTE %%%%%%%%%%%%%%%%%%%%%%%%%%%%%%%%%%%%%%%%%%%%%%%%%%%%%%%%%%%%%%%%

 number electrolyte species =              2
 solvent temperature        =          300.0
 Debye length / sqrt(eps)   =      0.2301070

 modified Poisson-Boltzmann:
 maximum concentration      =      0.0190986

 electrolyte flags:
 linearized                 =              T

 total electrolyte charge   =     -0.0009132

 species
 =======

   i |  c_bulk (a.u.) | c_bulk (mol/L) | ionic charge
 ----------------------------------------------------
   1 |     0.7139E-03 |      8.0000000 |        -1.00
   2 |     0.7139E-03 |      8.0000000 |         1.00

%%%% DENSITY %%%%%%%%%%%%%%%%%%%%%%%%%%%%%%%%%%%%%%%%%%%%%%%%%%%%%%%%%%%%%%%%%%%

 density label              = vreference                                        

 integral of density        =  -0.2329001189E-12

%%%% COMPUTE ELECTROSTATIC POTENTIAL %%%%%%%%%%%%%%%%%%%%%%%%%%%%%%%%%%%%%%%%%%%

 Warning: Bad guess with residual norm =   0.162988E+03, reset to no guess

   i |      alpha     |       pAp      |      rzold     |    delta_qm    |    delta_en    |       tol
 ---------------------------------------------------------------------------------------------------------
   1 |   0.990838E+00 |   0.123721E+03 |   0.122588E+03 |   0.964912E-02 |   0.160886E+03 |   0.100000E-04
   2 |   0.216934E-01 |   0.199533E+04 |   0.432854E+02 |   0.309826E-02 |   0.165874E+02 |   0.100000E-04
   3 |   0.922816E-01 |   0.106514E+02 |   0.982928E+00 |   0.161064E-02 |   0.448274E+01 |   0.100000E-04
   4 |   0.106365E+00 |   0.226945E+01 |   0.241390E+00 |   0.824409E-03 |   0.117444E+01 |   0.100000E-04
   5 |   0.155384E+00 |   0.289452E+00 |   0.449763E-01 |   0.336090E-03 |   0.195189E+00 |   0.100000E-04
   6 |   0.194251E+00 |   0.229550E-01 |   0.445903E-02 |   0.164639E-03 |   0.468395E-01 |   0.100000E-04
   7 |   0.184259E+00 |   0.388255E-02 |   0.715395E-03 |   0.111108E-03 |   0.213323E-01 |   0.100000E-04
   8 |   0.346760E+00 |   0.389333E-03 |   0.135005E-03 |   0.547383E-04 |   0.517757E-02 |   0.100000E-04
   9 |   0.100400E+00 |   0.646859E-03 |   0.649443E-04 |   0.411081E-04 |   0.292011E-02 |   0.100000E-04
  10 |   0.208431E+00 |   0.142489E-03 |   0.296990E-04 |   0.210879E-04 |   0.768444E-03 |   0.100000E-04
  11 |   0.155342E+00 |   0.739362E-04 |   0.114854E-04 |   0.131251E-04 |   0.297679E-03 |   0.100000E-04
  12 |   0.307205E+00 |   0.610698E-05 |   0.187609E-05 |   0.713515E-05 |   0.879731E-04 |   0.100000E-04
  13 |   0.998339E-01 |   0.642098E-05 |   0.641032E-06 |   0.608993E-05 |   0.640868E-04 |   0.100000E-04
  14 |   0.254540E+00 |   0.132630E-05 |   0.337596E-06 |   0.385514E-05 |   0.256818E-04 |   0.100000E-04
  15 |   0.433050E-01 |   0.439695E-05 |   0.190410E-06 |   0.378879E-05 |   0.248053E-04 |   0.100000E-04
  16 |   0.218623E+00 |   0.800022E-06 |   0.174903E-06 |   0.183032E-05 |   0.578892E-05 |   0.100000E-04

 Charges are converged, EXIT

%%%% DENSITY %%%%%%%%%%%%%%%%%%%%%%%%%%%%%%%%%%%%%%%%%%%%%%%%%%%%%%%%%%%%%%%%%%%

 density label              = velectrostatic                                    

 integral of density        =   -275.6931371    

%%%% CHARGES %%%%%%%%%%%%%%%%%%%%%%%%%%%%%%%%%%%%%%%%%%%%%%%%%%%%%%%%%%%%%%%%%%%

 total number of charges    =             41

 total charge               =     -0.0000000

%%%% DENSITY %%%%%%%%%%%%%%%%%%%%%%%%%%%%%%%%%%%%%%%%%%%%%%%%%%%%%%%%%%%%%%%%%%%

 density label              = vsoftcavity                                       

 integral of density        =    49.91479885    

%%%% DENSITY %%%%%%%%%%%%%%%%%%%%%%%%%%%%%%%%%%%%%%%%%%%%%%%%%%%%%%%%%%%%%%%%%%%

 density label              = dvtot                                             

 integral of density        =   -225.7783383    

%%%% ELECTRONS %%%%%%%%%%%%%%%%%%%%%%%%%%%%%%%%%%%%%%%%%%%%%%%%%%%%%%%%%%%%%%%%%

 number of electrons        =             30

 total electronic charge    =     30.0000000

%%%% ELECTRONS %%%%%%%%%%%%%%%%%%%%%%%%%%%%%%%%%%%%%%%%%%%%%%%%%%%%%%%%%%%%%%%%%

 number of electrons        =             30

 total electronic charge    =     30.0000000

%%%% CHARGES %%%%%%%%%%%%%%%%%%%%%%%%%%%%%%%%%%%%%%%%%%%%%%%%%%%%%%%%%%%%%%%%%%%

 total number of charges    =             41

 total charge               =     -0.0000000

%%%% CHARGES %%%%%%%%%%%%%%%%%%%%%%%%%%%%%%%%%%%%%%%%%%%%%%%%%%%%%%%%%%%%%%%%%%%

 total number of charges    =             41

 total charge               =     -0.0000000

%%%% BOUNDARY %%%%%%%%%%%%%%%%%%%%%%%%%%%%%%%%%%%%%%%%%%%%%%%%%%%%%%%%%%%%%%%%%%

 boundary label             = solvent             
 boundary mode              = electronic          

 boundary is built as a type-2 function of a smooth density

 using the modified SCCS function:
 rhomax                     =      0.0050000
 rhomin                     =      0.0001000

 volume of the QM region    =    969.1485759

 surface of the QM region   =    502.8630378

%%%% BOUNDARY %%%%%%%%%%%%%%%%%%%%%%%%%%%%%%%%%%%%%%%%%%%%%%%%%%%%%%%%%%%%%%%%%%

 boundary label             = electrolyte         
 boundary mode              = electronic          

 boundary is built as a type-2 function of a smooth density

 using the modified SCCS function:
 rhomax                     =      0.0007000
 rhomin                     =      0.0000150

 volume of the QM region    =   1599.3887608

 surface of the QM region   =    685.7653602

%%%% ELECTROLYTE %%%%%%%%%%%%%%%%%%%%%%%%%%%%%%%%%%%%%%%%%%%%%%%%%%%%%%%%%%%%%%%%

 number electrolyte species =              2
 solvent temperature        =          300.0
 Debye length / sqrt(eps)   =      0.2301070

 modified Poisson-Boltzmann:
 maximum concentration      =      0.0190986

 electrolyte flags:
 linearized                 =              T

 total electrolyte charge   =      0.0000639

 species
 =======

   i |  c_bulk (a.u.) | c_bulk (mol/L) | ionic charge
 ----------------------------------------------------
   1 |     0.7139E-03 |      8.0000000 |        -1.00
   2 |     0.7139E-03 |      8.0000000 |         1.00

%%%% DENSITY %%%%%%%%%%%%%%%%%%%%%%%%%%%%%%%%%%%%%%%%%%%%%%%%%%%%%%%%%%%%%%%%%%%

 density label              = vreference                                        

 integral of density        =   0.1201343551E-12

%%%% COMPUTE ELECTROSTATIC POTENTIAL %%%%%%%%%%%%%%%%%%%%%%%%%%%%%%%%%%%%%%%%%%%

 Warning: Bad guess with residual norm =   0.146668E+03, reset to no guess

   i |      alpha     |       pAp      |      rzold     |    delta_qm    |    delta_en    |       tol
 ---------------------------------------------------------------------------------------------------------
   1 |   0.992163E+00 |   0.123669E+03 |   0.122700E+03 |   0.916088E-02 |   0.145017E+03 |   0.100000E-04
   2 |   0.212808E-01 |   0.172388E+04 |   0.366855E+02 |   0.319505E-02 |   0.176400E+02 |   0.100000E-04
   3 |   0.846383E-01 |   0.125633E+02 |   0.106333E+01 |   0.166938E-02 |   0.481562E+01 |   0.100000E-04
   4 |   0.111756E+00 |   0.221394E+01 |   0.247422E+00 |   0.835301E-03 |   0.120567E+01 |   0.100000E-04
   5 |   0.152360E+00 |   0.302246E+00 |   0.460500E-01 |   0.343518E-03 |   0.203912E+00 |   0.100000E-04
   6 |   0.198753E+00 |   0.222966E-01 |   0.443150E-02 |   0.163588E-03 |   0.462433E-01 |   0.100000E-04
   7 |   0.184210E+00 |   0.360691E-02 |   0.664429E-03 |   0.114106E-03 |   0.224987E-01 |   0.100000E-04
   8 |   0.329656E+00 |   0.436325E-03 |   0.143837E-03 |   0.560614E-04 |   0.543091E-02 |   0.100000E-04
   9 |   0.954697E-01 |   0.705233E-03 |   0.673284E-04 |   0.428188E-04 |   0.316821E-02 |   0.100000E-04
  10 |   0.230582E+00 |   0.129906E-03 |   0.299541E-04 |   0.206504E-04 |   0.736889E-03 |   0.100000E-04
  11 |   0.152852E+00 |   0.625402E-04 |   0.955941E-05 |   0.138992E-04 |   0.333830E-03 |   0.100000E-04
  12 |   0.299869E+00 |   0.684791E-05 |   0.205348E-05 |   0.738244E-05 |   0.941767E-04 |   0.100000E-04
  13 |   0.293840E+00 |   0.115960E-05 |   0.340736E-06 |   0.523052E-05 |   0.472752E-04 |   0.100000E-04
  14 |   0.933367E-01 |   0.416466E-05 |   0.388716E-06 |   0.433732E-05 |   0.325077E-04 |   0.100000E-04
  15 |   0.709622E-01 |   0.230724E-05 |   0.163727E-06 |   0.356402E-05 |   0.219495E-04 |   0.100000E-04
  16 |   0.109432E+00 |   0.284737E-05 |   0.311594E-06 |   0.204001E-05 |   0.719134E-05 |   0.100000E-04

 Charges are converged, EXIT

%%%% DENSITY %%%%%%%%%%%%%%%%%%%%%%%%%%%%%%%%%%%%%%%%%%%%%%%%%%%%%%%%%%%%%%%%%%%

 density label              = velectrostatic                                    

 integral of density        =   -273.7372476    

%%%% CHARGES %%%%%%%%%%%%%%%%%%%%%%%%%%%%%%%%%%%%%%%%%%%%%%%%%%%%%%%%%%%%%%%%%%%

 total number of charges    =             41

 total charge               =     -0.0000000

%%%% DENSITY %%%%%%%%%%%%%%%%%%%%%%%%%%%%%%%%%%%%%%%%%%%%%%%%%%%%%%%%%%%%%%%%%%%

 density label              = vsoftcavity                                       

 integral of density        =    32.97812264    

%%%% DENSITY %%%%%%%%%%%%%%%%%%%%%%%%%%%%%%%%%%%%%%%%%%%%%%%%%%%%%%%%%%%%%%%%%%%

 density label              = dvtot                                             

 integral of density        =   -240.7591250    

%%%% ELECTRONS %%%%%%%%%%%%%%%%%%%%%%%%%%%%%%%%%%%%%%%%%%%%%%%%%%%%%%%%%%%%%%%%%

 number of electrons        =             30

 total electronic charge    =     30.0000000

%%%% ELECTRONS %%%%%%%%%%%%%%%%%%%%%%%%%%%%%%%%%%%%%%%%%%%%%%%%%%%%%%%%%%%%%%%%%

 number of electrons        =             30

 total electronic charge    =     30.0000000

%%%% CHARGES %%%%%%%%%%%%%%%%%%%%%%%%%%%%%%%%%%%%%%%%%%%%%%%%%%%%%%%%%%%%%%%%%%%

 total number of charges    =             41

 total charge               =     -0.0000000

%%%% CHARGES %%%%%%%%%%%%%%%%%%%%%%%%%%%%%%%%%%%%%%%%%%%%%%%%%%%%%%%%%%%%%%%%%%%

 total number of charges    =             41

 total charge               =     -0.0000000

%%%% BOUNDARY %%%%%%%%%%%%%%%%%%%%%%%%%%%%%%%%%%%%%%%%%%%%%%%%%%%%%%%%%%%%%%%%%%

 boundary label             = solvent             
 boundary mode              = electronic          

 boundary is built as a type-2 function of a smooth density

 using the modified SCCS function:
 rhomax                     =      0.0050000
 rhomin                     =      0.0001000

 volume of the QM region    =    969.1485759

 surface of the QM region   =    502.8630378

%%%% BOUNDARY %%%%%%%%%%%%%%%%%%%%%%%%%%%%%%%%%%%%%%%%%%%%%%%%%%%%%%%%%%%%%%%%%%

 boundary label             = electrolyte         
 boundary mode              = electronic          

 boundary is built as a type-2 function of a smooth density

 using the modified SCCS function:
 rhomax                     =      0.0007000
 rhomin                     =      0.0000150

 volume of the QM region    =   1599.3887608

 surface of the QM region   =    685.7653602

%%%% ELECTROLYTE %%%%%%%%%%%%%%%%%%%%%%%%%%%%%%%%%%%%%%%%%%%%%%%%%%%%%%%%%%%%%%%%

 number electrolyte species =              2
 solvent temperature        =          300.0
 Debye length / sqrt(eps)   =      0.2301070

 modified Poisson-Boltzmann:
 maximum concentration      =      0.0190986

 electrolyte flags:
 linearized                 =              T

 total electrolyte charge   =     -0.0002477

 species
 =======

   i |  c_bulk (a.u.) | c_bulk (mol/L) | ionic charge
 ----------------------------------------------------
   1 |     0.7139E-03 |      8.0000000 |        -1.00
   2 |     0.7139E-03 |      8.0000000 |         1.00

%%%% DENSITY %%%%%%%%%%%%%%%%%%%%%%%%%%%%%%%%%%%%%%%%%%%%%%%%%%%%%%%%%%%%%%%%%%%

 density label              = dvtot                                             

 integral of density        =   -240.7591250    

%%%% DENSITY %%%%%%%%%%%%%%%%%%%%%%%%%%%%%%%%%%%%%%%%%%%%%%%%%%%%%%%%%%%%%%%%%%%

 density label              = vreference                                        

 integral of density        =   0.1201343551E-12

%%%% DENSITY %%%%%%%%%%%%%%%%%%%%%%%%%%%%%%%%%%%%%%%%%%%%%%%%%%%%%%%%%%%%%%%%%%%

 density label              = velectrostatic                                    

 integral of density        =   -273.7372476    

%%%% CHARGES %%%%%%%%%%%%%%%%%%%%%%%%%%%%%%%%%%%%%%%%%%%%%%%%%%%%%%%%%%%%%%%%%%%

 total number of charges    =             41

 total charge               =     -0.0000000

%%%% DENSITY %%%%%%%%%%%%%%%%%%%%%%%%%%%%%%%%%%%%%%%%%%%%%%%%%%%%%%%%%%%%%%%%%%%

 density label              = vsoftcavity                                       

 integral of density        =    32.97812264    
