
     Program PWSCF v.6.7MaX starts on 22Jan2021 at 10:29:34 

     This program is part of the open-source Quantum ESPRESSO suite
     for quantum simulation of materials; please cite
         "P. Giannozzi et al., J. Phys.:Condens. Matter 21 395502 (2009);
         "P. Giannozzi et al., J. Phys.:Condens. Matter 29 465901 (2017);
          URL http://www.quantum-espresso.org", 
     in publications or presentations arising from this work. More details at
     http://www.quantum-espresso.org/quote

     Parallel version (MPI), running on     1 processors

     MPI processes distributed on     1 nodes
     Reading input from pw.in

     Current dimensions of program PWSCF are:
     Max number of different atomic species (ntypx) = 10
     Max number of k-points (npk) =  40000
     Max angular momentum in pseudopotentials (lmaxx) =  3
     file N.pbe-rrkjus.UPF: wavefunction(s)  2S renormalized
     file C.pbe-rrkjus.UPF: wavefunction(s)  2S 2P renormalized
     file H.pbe-rrkjus.UPF: wavefunction(s)  1S renormalized

     gamma-point specific algorithms are used

     Subspace diagonalization in iterative solution of the eigenvalue problem:
     a serial algorithm will be used


     G-vector sticks info
     --------------------
     sticks:   dense  smooth     PW     G-vecs:    dense   smooth      PW
     Sum        9549    3809    949               701475   177509   22119



     bravais-lattice index     =            1
     lattice parameter (alat)  =      20.0000  a.u.
     unit-cell volume          =    8000.0000 (a.u.)^3
     number of atoms/cell      =           11
     number of atomic types    =            3
     number of electrons       =        30.00
     number of Kohn-Sham states=           15
     kinetic-energy cutoff     =      30.0000  Ry
     charge density cutoff     =     300.0000  Ry
     scf convergence threshold =      5.0E-04
     mixing beta               =       0.7000
     number of iterations used =            8  plain     mixing
     Exchange-correlation= SLA  PW   PBE  PBE
                           (   1   4   3   4   0   0   0)


     Environ Module
     ==============

     Plese cite
         O. Andreussi, I. Dabo and N. Marzari, J. Chem. Phys. 136, 064102 (2012)         
     in publications or presentations arising from this work.

     compensation onset threshold      =               0.1000E+03 
     static permittivity               =                    20.00 
     epsilon calculation mode          =               electronic 

     Electrostatic Setup
     -------------------
     electrostatic problem to solve    = linmodpb                 
     numerical solver adopted          = cg                       
     type of auxiliary density adopted = none                     
     type of core tool for poisson     = fft                      



     celldm(1)=  20.000000  celldm(2)=   0.000000  celldm(3)=   0.000000
     celldm(4)=   0.000000  celldm(5)=   0.000000  celldm(6)=   0.000000

     crystal axes: (cart. coord. in units of alat)
               a(1) = (   1.000000   0.000000   0.000000 )  
               a(2) = (   0.000000   1.000000   0.000000 )  
               a(3) = (   0.000000   0.000000   1.000000 )  

     reciprocal axes: (cart. coord. in units 2 pi/alat)
               b(1) = (  1.000000  0.000000  0.000000 )  
               b(2) = (  0.000000  1.000000  0.000000 )  
               b(3) = (  0.000000  0.000000  1.000000 )  


     PseudoPot. # 1 for N  read from file:
     /Users/gabrielmedrano/Desktop/q-e/Environ/tests/../..//pseudo/N.pbe-rrkjus.UPF
     MD5 check sum: 28c76d763763edb36c62a6ca2be9aebd
     Pseudo is Ultrasoft, Zval =  5.0
     Generated by new atomic code, or converted to UPF format
     Using radial grid of 1257 points,  4 beta functions with: 
                l(1) =   0
                l(2) =   0
                l(3) =   1
                l(4) =   1
     Q(r) pseudized with 0 coefficients 


     PseudoPot. # 2 for C  read from file:
     /Users/gabrielmedrano/Desktop/q-e/Environ/tests/../..//pseudo/C.pbe-rrkjus.UPF
     MD5 check sum: c9ac5a99bc85b198593446162950cd17
     Pseudo is Ultrasoft, Zval =  4.0
     Generated by new atomic code, or converted to UPF format
     Using radial grid of  627 points,  4 beta functions with: 
                l(1) =   0
                l(2) =   0
                l(3) =   1
                l(4) =   1
     Q(r) pseudized with 0 coefficients 


     PseudoPot. # 3 for H  read from file:
     /Users/gabrielmedrano/Desktop/q-e/Environ/tests/../..//pseudo/H.pbe-rrkjus.UPF
     MD5 check sum: 2d52a7f45632fd764c17cc6affed14c8
     Pseudo is Ultrasoft, Zval =  1.0
     Generated by new atomic code, or converted to UPF format
     Using radial grid of 1061 points,  2 beta functions with: 
                l(1) =   0
                l(2) =   0
     Q(r) pseudized with 0 coefficients 


     atomic species   valence    mass     pseudopotential
        N              5.00    14.00000     N ( 1.00)
        C              4.00    12.00000     C ( 1.00)
        H              1.00     1.00000     H ( 1.00)

     No symmetry found



   Cartesian axes

     site n.     atom                  positions (alat units)
         1           N   tau(   1) = (  -0.1222704   0.0000000   0.0001514  )
         2           C   tau(   2) = (  -0.0616572   0.1123679   0.0001037  )
         3           C   tau(   3) = (   0.0689061   0.1142596   0.0000731  )
         4           C   tau(   4) = (   0.1346968   0.0000000   0.0000659  )
         5           C   tau(   5) = (   0.0689062  -0.1142596   0.0001326  )
         6           C   tau(   6) = (  -0.0616572  -0.1123679   0.0001773  )
         7           H   tau(   7) = (  -0.1206366   0.1969071   0.0000855  )
         8           H   tau(   8) = (   0.1179548   0.2049361   0.0000402  )
         9           H   tau(   9) = (   0.2379293  -0.0000000   0.0000010  )
        10           H   tau(  10) = (   0.1179548  -0.2049361   0.0001604  )
        11           H   tau(  11) = (  -0.1206365  -0.1969070   0.0002440  )

     number of k points=     1
                       cart. coord. in units 2pi/alat
        k(    1) = (   0.0000000   0.0000000   0.0000000), wk =   2.0000000

     Dense  grid:   350738 G-vectors     FFT dimensions: ( 120, 120, 120)

     Smooth grid:    88755 G-vectors     FFT dimensions: (  72,  72,  72)

     Estimated max dynamical RAM per process >     599.84 MB

     Initial potential from superposition of free atoms

     starting charge   29.51871, renormalised to   30.00000

     negative rho (up, down):  4.533E-04 0.000E+00
     Starting wfcs are   29 randomized atomic wfcs

     total cpu time spent up to now is        6.5 secs

     Self-consistent Calculation

     iteration #  1     ecut=    30.00 Ry     beta= 0.70
     Davidson diagonalization with overlap
     ethr =  1.00E-02,  avg # of iterations =  2.0

     negative rho (up, down):  1.343E-04 0.000E+00

     add environment contribution to local potential
     polarization accuracy = 7.2E-06, # of iterations =  13

     total cpu time spent up to now is       14.2 secs

     total energy              =     -82.28140034 Ry
     estimated scf accuracy    <       2.00743679 Ry
     electrostatic embedding   =       0.00000000 Ry
     electrolyte free energy   =       0.01667930 Ry
     correction to one-el term =      -0.00000000 Ry

     iteration #  2     ecut=    30.00 Ry     beta= 0.70
     Davidson diagonalization with overlap
     ethr =  6.69E-03,  avg # of iterations =  3.0

     negative rho (up, down):  8.682E-05 0.000E+00

     add environment contribution to local potential
     polarization accuracy = 2.9E-06, # of iterations =  16

     total cpu time spent up to now is       23.3 secs

     total energy              =     -82.54570387 Ry
     estimated scf accuracy    <       0.29802837 Ry
     electrostatic embedding   =      -0.02767376 Ry
     electrolyte free energy   =       0.01082004 Ry
     correction to one-el term =       0.08029912 Ry

     iteration #  3     ecut=    30.00 Ry     beta= 0.70
     Davidson diagonalization with overlap
     ethr =  9.93E-04,  avg # of iterations =  4.0

     negative rho (up, down):  6.722E-05 0.000E+00

     add environment contribution to local potential
     polarization accuracy = 5.8E-06, # of iterations =  16

     total cpu time spent up to now is       31.8 secs

     total energy              =     -82.63262657 Ry
     estimated scf accuracy    <       0.05361226 Ry
     electrostatic embedding   =      -0.01947948 Ry
     electrolyte free energy   =       0.00668051 Ry
     correction to one-el term =       0.62569236 Ry

     iteration #  4     ecut=    30.00 Ry     beta= 0.70
     Davidson diagonalization with overlap
     ethr =  1.79E-04,  avg # of iterations =  3.0

     negative rho (up, down):  4.808E-05 0.000E+00

     add environment contribution to local potential
     polarization accuracy = 7.2E-06, # of iterations =  16

     total cpu time spent up to now is       40.1 secs

     total energy              =     -82.64561692 Ry
     estimated scf accuracy    <       0.00342915 Ry
     electrostatic embedding   =      -0.01713653 Ry
     electrolyte free energy   =       0.00477360 Ry
     correction to one-el term =       0.87193279 Ry

     iteration #  5     ecut=    30.00 Ry     beta= 0.70
     Davidson diagonalization with overlap
     ethr =  1.14E-05,  avg # of iterations =  2.0

     negative rho (up, down):  1.393E-04 0.000E+00

     the potential shift due to the Gaussian-smeared nuclei is    -0.0801 ev

     total cpu time spent up to now is       43.3 secs

     End of self-consistent calculation

          k = 0.0000 0.0000 0.0000 ( 11060 PWs)   bands (ev):

   -23.3023 -19.6185 -18.8633 -15.3981 -15.2719 -12.8003 -11.6537 -11.1923
   -10.4392  -9.8007  -9.4457  -8.6780  -7.0486  -6.6417  -5.6395

     highest occupied level (ev):    -5.6395

!    total energy              =     -82.64616352 Ry
     estimated scf accuracy    <       0.00046795 Ry

     The total energy is the sum of the following terms:
     one-electron contribution =    -292.44377693 Ry
     hartree contribution      =     149.45166515 Ry
     xc contribution           =     -25.97772505 Ry
     ewald contribution        =      85.35745758 Ry
     electrostatic embedding   =      -0.01753986 Ry
     electrolyte free energy   =       0.00439793 Ry
     correction to one-el term =       0.97935765 Ry

     WARNING: you are using the parabolic pbc correction;
              the potential shift above must be added to 
              band and Fermi energies.

     convergence has been achieved in   5 iterations
 forces lc
       1    0.0751    0.0000   -0.0000
       2    0.0315    0.0441   -0.0000
       3    0.0279    0.0297   -0.0000
       4    0.0358   -0.0000   -0.0000
       5    0.0280   -0.0297    0.0000
       6    0.0315   -0.0441    0.0000
       7    0.0022    0.0206   -0.0000
       8    0.0070    0.0128   -0.0000
       9    0.0127   -0.0000   -0.0000
      10    0.0070   -0.0129    0.0000
      11    0.0021   -0.0206    0.0000

     Forces acting on atoms (cartesian axes, Ry/au):

     atom    1 type  1   force =    -0.04642255    0.00023367   -0.00001130
     atom    2 type  2   force =    -0.00575576   -0.06082988    0.00007790
     atom    3 type  2   force =     0.01766395    0.01606930   -0.00004472
     atom    4 type  2   force =     0.00780751    0.00004415    0.00000731
     atom    5 type  2   force =     0.01739792   -0.01626979    0.00000617
     atom    6 type  2   force =    -0.00555920    0.06055646   -0.00001897
     atom    7 type  3   force =     0.00305762   -0.00092797    0.00002457
     atom    8 type  3   force =     0.00579523   -0.00128668   -0.00003881
     atom    9 type  3   force =    -0.00278429   -0.00005677    0.00002909
     atom   10 type  3   force =     0.00570291    0.00148234   -0.00002937
     atom   11 type  3   force =     0.00309665    0.00098518   -0.00000189

     Total force =     0.104324     Total SCF correction =     0.036946
     SCF correction compared to forces is large: reduce conv_thr to get better values

     Writing output data file /Users/gabrielmedrano/Desktop/q-e/Environ/tests/../..//tempdir/pwscf.save/

     init_run     :      5.96s CPU      6.42s WALL (       1 calls)
     electrons    :     36.60s CPU     36.85s WALL (       1 calls)
     forces       :      1.44s CPU      1.59s WALL (       1 calls)

     Called by init_run:
     wfcinit      :      0.16s CPU      0.15s WALL (       1 calls)
     potinit      :      2.25s CPU      2.39s WALL (       1 calls)
     hinit0       :      2.83s CPU      2.92s WALL (       1 calls)

     Called by electrons:
     c_bands      :      1.36s CPU      1.12s WALL (       5 calls)
     sum_band     :      4.90s CPU      2.95s WALL (       5 calls)
     v_of_rho     :      3.43s CPU      3.95s WALL (       6 calls)
     newd         :      1.76s CPU      2.52s WALL (       6 calls)
     mix_rho      :      0.35s CPU      0.40s WALL (       5 calls)

     Called by c_bands:
     init_us_2    :      0.04s CPU      0.04s WALL (      11 calls)
     regterg      :      1.29s CPU      1.05s WALL (       5 calls)

     Called by *egterg:
     rdiaghg      :      0.00s CPU      0.00s WALL (      19 calls)
     h_psi        :      1.19s CPU      1.09s WALL (      20 calls)
     s_psi        :      0.09s CPU      0.01s WALL (      20 calls)
     g_psi        :      0.01s CPU      0.01s WALL (      14 calls)

     Called by h_psi:
     h_psi:calbec :      0.04s CPU      0.03s WALL (      20 calls)
     vloc_psi     :      1.00s CPU      1.01s WALL (      20 calls)
     add_vuspsi   :      0.15s CPU      0.04s WALL (      20 calls)

     General routines
     calbec       :      0.06s CPU      0.05s WALL (      29 calls)
     fft          :     12.84s CPU     13.42s WALL (     313 calls)
     ffts         :      0.06s CPU      0.06s WALL (      11 calls)
     fftw         :      0.92s CPU      0.92s WALL (     304 calls)
     interpolate  :      0.27s CPU      0.31s WALL (       6 calls)

     Parallel routines
     fft_scatt_xy :      1.12s CPU      1.12s WALL (     244 calls)
     fft_scatt_yz :      1.51s CPU      1.52s WALL (     244 calls)

     Environ routines
     calc_eelect  :      0.04s CPU      0.04s WALL (      10 calls)
     calc_velect  :     16.52s CPU     17.24s WALL (       8 calls)
     dielectric   :      0.29s CPU      0.34s WALL (       7 calls)
     electrolyte  :      0.02s CPU      0.02s WALL (       7 calls)
     calc_felect  :      0.43s CPU      0.45s WALL (       1 calls)

     PWSCF        :     44.06s CPU     45.04s WALL


   This run was terminated on:  10:30:19  22Jan2021            

=------------------------------------------------------------------------------=
   JOB DONE.
=------------------------------------------------------------------------------=
 Calling electrostatic_initbase now
 electrolyte_distance:    0.0000000000000000     
 sc_distance:    0.0000000000000000     
 velectrostatic started
 vreference created

%%%% IONS %%%%%%%%%%%%%%%%%%%%%%%%%%%%%%%%%%%%%%%%%%%%%%%%%%%%%%%%%%%%%%%%%%%%%%
 number of ions             =         11
 ionic center of charge     =      0.0072664     0.0000000     0.0001166
 total ionic charge         =    -30.0000000
 ionic dipole               =      0.0000000     0.0000000     0.0000000
 ionic quadrupole (pc)      =   -131.0719083  -146.7987081    -0.0000314
 ionic quadrupole (gauss)   =   -134.8219083  -150.5487081    -3.7500314
 ion   1 type =  1 coordinates =     -2.4454071     0.0000002     0.0030272
 ion   2 type =  2 coordinates =     -1.2331440     2.2473584     0.0020749
 ion   3 type =  2 coordinates =      1.3781229     2.2851921     0.0014627
 ion   4 type =  2 coordinates =      2.6939354     0.0000002     0.0013189
 ion   5 type =  2 coordinates =      1.3781232    -2.2851919     0.0026521
 ion   6 type =  2 coordinates =     -1.2331437    -2.2473574     0.0035464
 ion   7 type =  3 coordinates =     -2.4127312     3.9381412     0.0017094
 ion   8 type =  3 coordinates =      2.3590962     4.0987221     0.0008035
 ion   9 type =  3 coordinates =      4.7585861    -0.0000002     0.0000199
 ion  10 type =  3 coordinates =      2.3590968    -4.0987217     0.0032074
 ion  11 type =  3 coordinates =     -2.4127303    -3.9381403     0.0048805

%%%% SYSTEM %%%%%%%%%%%%%%%%%%%%%%%%%%%%%%%%%%%%%%%%%%%%%%%%%%%%%%%%%%%%%%%%%%%%
 system is built from all present ionic types
 system defined dimension   =  0 
 system defined axis        =  3 
 system center              =      0.0072664     0.0000000     0.0001166 
 system width               =      0.2348011 

%%%% IONS %%%%%%%%%%%%%%%%%%%%%%%%%%%%%%%%%%%%%%%%%%%%%%%%%%%%%%%%%%%%%%%%%%%%%%
 number of ions             =         11
 ionic center of charge     =      0.0072664     0.0000000     0.0001166
 total ionic charge         =    -30.0000000
 ionic dipole               =      0.0000000     0.0000000     0.0000000
 ionic quadrupole (pc)      =   -131.0719083  -146.7987081    -0.0000314
 ionic quadrupole (gauss)   =   -134.8219083  -150.5487081    -3.7500314
 ion   1 type =  1 coordinates =     -2.4454071     0.0000002     0.0030272
 ion   2 type =  2 coordinates =     -1.2331440     2.2473584     0.0020749
 ion   3 type =  2 coordinates =      1.3781229     2.2851921     0.0014627
 ion   4 type =  2 coordinates =      2.6939354     0.0000002     0.0013189
 ion   5 type =  2 coordinates =      1.3781232    -2.2851919     0.0026521
 ion   6 type =  2 coordinates =     -1.2331437    -2.2473574     0.0035464
 ion   7 type =  3 coordinates =     -2.4127312     3.9381412     0.0017094
 ion   8 type =  3 coordinates =      2.3590962     4.0987221     0.0008035
 ion   9 type =  3 coordinates =      4.7585861    -0.0000002     0.0000199
 ion  10 type =  3 coordinates =      2.3590968    -4.0987217     0.0032074
 ion  11 type =  3 coordinates =     -2.4127303    -3.9381403     0.0048805

%%%% SYSTEM %%%%%%%%%%%%%%%%%%%%%%%%%%%%%%%%%%%%%%%%%%%%%%%%%%%%%%%%%%%%%%%%%%%%
 system is built from all present ionic types
 system defined dimension   =  0 
 system defined axis        =  3 
 system center              =      0.0072664     0.0000000     0.0001166 
 system width               =      0.2348011 

%%%% ELECTRONS %%%%%%%%%%%%%%%%%%%%%%%%%%%%%%%%%%%%%%%%%%%%%%%%%%%%%%%%%%%%%%%%%
 number of electrons        =         30
 total electronic charge    =     30.0000000

%%%% ELECTRONS %%%%%%%%%%%%%%%%%%%%%%%%%%%%%%%%%%%%%%%%%%%%%%%%%%%%%%%%%%%%%%%%%
 number of electrons        =         30
 total electronic charge    =     30.0000000

%%%% BOUNDARY %%%%%%%%%%%%%%%%%%%%%%%%%%%%%%%%%%%%%%%%%%%%%%%%%%%%%%%%%%%%%%%%%%
 boundary label             = solvent              
 boundary mode              = electronic           
 boundary is built as a function of a smooth density
 function type              =  2 
 using the modified SCCS function with parameters 
 rhomax                     =      0.0050000 
 rhomin                     =      0.0001000 
 volume of the QM region    =   2407.1059940 
 surface of the QM region   =    815.5587045 

%%%% DIELECTRIC %%%%%%%%%%%%%%%%%%%%%%%%%%%%%%%%%%%%%%%%%%%%%%%%%%%%%%%%%%%%%%%%%
 dielectric build on homogeneous background
 environment bulk permitt.  =     20.0000000 
 dielectric flags
 need gradient              =  F 
 need factor depend. sqrt   =  T 
 total dielectric charge    =      0.0000000

%%%% BOUNDARY %%%%%%%%%%%%%%%%%%%%%%%%%%%%%%%%%%%%%%%%%%%%%%%%%%%%%%%%%%%%%%%%%%
 boundary label             = electrolyte          
 boundary mode              = electronic           
 boundary is built as a function of a smooth density
 function type              =  2 
 using the modified SCCS function with parameters 
 rhomax                     =      0.0007000 
 rhomin                     =      0.0000150 
 volume of the QM region    =   5932.6915978 
 surface of the QM region   =   1117.5224438 

%%%% ELECTROLYTE %%%%%%%%%%%%%%%%%%%%%%%%%%%%%%%%%%%%%%%%%%%%%%%%%%%%%%%%%%%%%%%%
 number electrol. species   =    2
 solvent temperature        =   300.0
 Debye length / sqrt(eps)   =      0.2301070
 modified Poisson-Boltzmann 
 maximum concentration      =      0.0190986
 electrolyte species    1
 bulk concentration  (a.u.) =      0.7139E-03
 bulk concentration (mol/L) =      8.0000000
 ionic charge               =   -1.00
 electrolyte species    2
 bulk concentration  (a.u.) =      0.7139E-03
 bulk concentration (mol/L) =      8.0000000
 ionic charge               =    1.00
 electrolyte flags
 linearized                 =  T
 total electrolyte charge   =      0.0000000

%%%% DENSITY %%%%%%%%%%%%%%%%%%%%%%%%%%%%%%%%%%%%%%%%%%%%%%%%%%%%%%%%%%%%%%%%%%%
 density label              = dvtot                                                                           
 integral of density        =      0.000000000    

%%%% DENSITY %%%%%%%%%%%%%%%%%%%%%%%%%%%%%%%%%%%%%%%%%%%%%%%%%%%%%%%%%%%%%%%%%%%
 density label              = vreference                                                                      
 integral of density        =      0.000000000    

%%%% DENSITY %%%%%%%%%%%%%%%%%%%%%%%%%%%%%%%%%%%%%%%%%%%%%%%%%%%%%%%%%%%%%%%%%%%
 density label              = velectrostatic                                                                  
 integral of density        =      0.000000000    

%%%% CHARGES %%%%%%%%%%%%%%%%%%%%%%%%%%%%%%%%%%%%%%%%%%%%%%%%%%%%%%%%%%%%%%%%%%%
 total number of charges    =         41
 total charge               =     -0.0000000

%%%% DENSITY %%%%%%%%%%%%%%%%%%%%%%%%%%%%%%%%%%%%%%%%%%%%%%%%%%%%%%%%%%%%%%%%%%%
 density label              = vsoftcavity                                                                     
 integral of density        =      0.000000000    

%%%% ELECTRONS %%%%%%%%%%%%%%%%%%%%%%%%%%%%%%%%%%%%%%%%%%%%%%%%%%%%%%%%%%%%%%%%%
 number of electrons        =         30
 total electronic charge    =     30.0000000

%%%% ELECTRONS %%%%%%%%%%%%%%%%%%%%%%%%%%%%%%%%%%%%%%%%%%%%%%%%%%%%%%%%%%%%%%%%%
 number of electrons        =         30
 total electronic charge    =     30.0000000

%%%% BOUNDARY %%%%%%%%%%%%%%%%%%%%%%%%%%%%%%%%%%%%%%%%%%%%%%%%%%%%%%%%%%%%%%%%%%
 boundary label             = solvent              
 boundary mode              = electronic           
 boundary is built as a function of a smooth density
 function type              =  2 
 using the modified SCCS function with parameters 
 rhomax                     =      0.0050000 
 rhomin                     =      0.0001000 
 volume of the QM region    =   1079.4809383 
 surface of the QM region   =    528.9398834 

%%%% DIELECTRIC %%%%%%%%%%%%%%%%%%%%%%%%%%%%%%%%%%%%%%%%%%%%%%%%%%%%%%%%%%%%%%%%%
 dielectric build on homogeneous background
 environment bulk permitt.  =     20.0000000 
 dielectric flags
 need gradient              =  F 
 need factor depend. sqrt   =  T 
 total dielectric charge    =      0.0000000

%%%% BOUNDARY %%%%%%%%%%%%%%%%%%%%%%%%%%%%%%%%%%%%%%%%%%%%%%%%%%%%%%%%%%%%%%%%%%
 boundary label             = electrolyte          
 boundary mode              = electronic           
 boundary is built as a function of a smooth density
 function type              =  2 
 using the modified SCCS function with parameters 
 rhomax                     =      0.0007000 
 rhomin                     =      0.0000150 
 volume of the QM region    =   3894.0294819 
 surface of the QM region   =   1002.6083315 

%%%% ELECTROLYTE %%%%%%%%%%%%%%%%%%%%%%%%%%%%%%%%%%%%%%%%%%%%%%%%%%%%%%%%%%%%%%%%
 number electrol. species   =    2
 solvent temperature        =   300.0
 Debye length / sqrt(eps)   =      0.2301070
 modified Poisson-Boltzmann 
 maximum concentration      =      0.0190986
 electrolyte species    1
 bulk concentration  (a.u.) =      0.7139E-03
 bulk concentration (mol/L) =      8.0000000
 ionic charge               =   -1.00
 electrolyte species    2
 bulk concentration  (a.u.) =      0.7139E-03
 bulk concentration (mol/L) =      8.0000000
 ionic charge               =    1.00
 electrolyte flags
 linearized                 =  T
 total electrolyte charge   =      0.0000000

%%%% DENSITY %%%%%%%%%%%%%%%%%%%%%%%%%%%%%%%%%%%%%%%%%%%%%%%%%%%%%%%%%%%%%%%%%%%
 density label              = vreference                                                                      
 integral of density        =    -0.2151175071E-11

%%%% COMPUTE ELECTROSTATIC POTENTIAL %%%%%%%%%%%%%%%%%%%%%%%%%%%%%%%%%%%%%%%%%%%
 Iteration #          1
  pAp =    123.63283954813335       rzold =    121.18010664674728       alpha =   0.98016115370033896     
 delta_qm =   0.114405E-01 delta_en =   0.226169E+03 tol =   0.100000E-04
 Iteration #          2
  pAp =    1896.8516217545682       rzold =    62.602398621170444       alpha =    3.3003318711488816E-002
 delta_qm =   0.340630E-02 delta_en =   0.200498E+02 tol =   0.100000E-04
 Iteration #          3
  pAp =    8.0187010856233751       rzold =    1.1944190739690408       alpha =   0.14895418362838081     
 delta_qm =   0.104001E-02 delta_en =   0.186903E+01 tol =   0.100000E-04
 Iteration #          4
  pAp =   0.31306888686211437       rzold =    6.5452016661856266E-002  alpha =   0.20906586188707868     
 delta_qm =   0.543291E-03 delta_en =   0.510046E+00 tol =   0.100000E-04
 Iteration #          5
  pAp =   0.27343657595376347       rzold =    2.9651784839505063E-002  alpha =   0.10844117959010358     
 delta_qm =   0.271514E-03 delta_en =   0.127388E+00 tol =   0.100000E-04
 Iteration #          6
  pAp =    8.4978210635689878E-003  rzold =    2.2963770245275593E-003  alpha =   0.27023127544687403     
 delta_qm =   0.127558E-03 delta_en =   0.281162E-01 tol =   0.100000E-04
 Iteration #          7
  pAp =    4.1243702598293772E-003  rzold =    4.7124500270819740E-004  alpha =   0.11425865599362860     
 delta_qm =   0.998334E-04 delta_en =   0.172225E-01 tol =   0.100000E-04
 Iteration #          8
  pAp =    5.3302609440241907E-004  rzold =    1.6562467799870125E-004  alpha =   0.31072527168559122     
 delta_qm =   0.470021E-04 delta_en =   0.381750E-02 tol =   0.100000E-04
 Iteration #          9
  pAp =    1.3248626006936160E-004  rzold =    3.5065843100780464E-005  alpha =   0.26467531865132399     
 delta_qm =   0.266241E-04 delta_en =   0.122488E-02 tol =   0.100000E-04
 Iteration #         10
  pAp =    7.7644251195272161E-005  rzold =    1.7116018398996309E-005  alpha =   0.22044154120245443     
 delta_qm =   0.124284E-04 delta_en =   0.266915E-03 tol =   0.100000E-04
 Iteration #         11
  pAp =    5.5520744034334039E-005  rzold =    6.5219724164189919E-006  alpha =   0.11746911050734124     
 delta_qm =   0.818772E-05 delta_en =   0.115843E-03 tol =   0.100000E-04
 Iteration #         12
  pAp =    3.0521459347199627E-006  rzold =    1.1266039893132321E-006  alpha =   0.36911865074911598     
 delta_qm =   0.427184E-05 delta_en =   0.315337E-04 tol =   0.100000E-04
 Iteration #         13
  pAp =    2.8132573040564409E-007  rzold =    1.7883899446148169E-007  alpha =   0.63570080917807770     
 delta_qm =   0.204756E-05 delta_en =   0.724463E-05 tol =   0.100000E-04
 Charges are converged, EXIT

%%%% DENSITY %%%%%%%%%%%%%%%%%%%%%%%%%%%%%%%%%%%%%%%%%%%%%%%%%%%%%%%%%%%%%%%%%%%
 density label              = velectrostatic                                                                  
 integral of density        =     -280.6623637    

%%%% CHARGES %%%%%%%%%%%%%%%%%%%%%%%%%%%%%%%%%%%%%%%%%%%%%%%%%%%%%%%%%%%%%%%%%%%
 total number of charges    =         41
 total charge               =     -0.0000000

%%%% DENSITY %%%%%%%%%%%%%%%%%%%%%%%%%%%%%%%%%%%%%%%%%%%%%%%%%%%%%%%%%%%%%%%%%%%
 density label              = vsoftcavity                                                                     
 integral of density        =      124.8916345    

%%%% DENSITY %%%%%%%%%%%%%%%%%%%%%%%%%%%%%%%%%%%%%%%%%%%%%%%%%%%%%%%%%%%%%%%%%%%
 density label              = dvtot                                                                           
 integral of density        =     -155.7707292    

%%%% ELECTRONS %%%%%%%%%%%%%%%%%%%%%%%%%%%%%%%%%%%%%%%%%%%%%%%%%%%%%%%%%%%%%%%%%
 number of electrons        =         30
 total electronic charge    =     30.0000000

%%%% ELECTRONS %%%%%%%%%%%%%%%%%%%%%%%%%%%%%%%%%%%%%%%%%%%%%%%%%%%%%%%%%%%%%%%%%
 number of electrons        =         30
 total electronic charge    =     30.0000000

%%%% BOUNDARY %%%%%%%%%%%%%%%%%%%%%%%%%%%%%%%%%%%%%%%%%%%%%%%%%%%%%%%%%%%%%%%%%%
 boundary label             = solvent              
 boundary mode              = electronic           
 boundary is built as a function of a smooth density
 function type              =  2 
 using the modified SCCS function with parameters 
 rhomax                     =      0.0050000 
 rhomin                     =      0.0001000 
 volume of the QM region    =   1003.7772969 
 surface of the QM region   =    509.8948154 

%%%% DIELECTRIC %%%%%%%%%%%%%%%%%%%%%%%%%%%%%%%%%%%%%%%%%%%%%%%%%%%%%%%%%%%%%%%%%
 dielectric build on homogeneous background
 environment bulk permitt.  =     20.0000000 
 dielectric flags
 need gradient              =  F 
 need factor depend. sqrt   =  T 
 total dielectric charge    =      0.0042715

%%%% BOUNDARY %%%%%%%%%%%%%%%%%%%%%%%%%%%%%%%%%%%%%%%%%%%%%%%%%%%%%%%%%%%%%%%%%%
 boundary label             = electrolyte          
 boundary mode              = electronic           
 boundary is built as a function of a smooth density
 function type              =  2 
 using the modified SCCS function with parameters 
 rhomax                     =      0.0007000 
 rhomin                     =      0.0000150 
 volume of the QM region    =   2420.3550002 
 surface of the QM region   =    837.0082501 

%%%% ELECTROLYTE %%%%%%%%%%%%%%%%%%%%%%%%%%%%%%%%%%%%%%%%%%%%%%%%%%%%%%%%%%%%%%%%
 number electrol. species   =    2
 solvent temperature        =   300.0
 Debye length / sqrt(eps)   =      0.2301070
 modified Poisson-Boltzmann 
 maximum concentration      =      0.0190986
 electrolyte species    1
 bulk concentration  (a.u.) =      0.7139E-03
 bulk concentration (mol/L) =      8.0000000
 ionic charge               =   -1.00
 electrolyte species    2
 bulk concentration  (a.u.) =      0.7139E-03
 bulk concentration (mol/L) =      8.0000000
 ionic charge               =    1.00
 electrolyte flags
 linearized                 =  T
 total electrolyte charge   =     -0.0047822

%%%% DENSITY %%%%%%%%%%%%%%%%%%%%%%%%%%%%%%%%%%%%%%%%%%%%%%%%%%%%%%%%%%%%%%%%%%%
 density label              = vreference                                                                      
 integral of density        =    -0.1678438253E-11

%%%% COMPUTE ELECTROSTATIC POTENTIAL %%%%%%%%%%%%%%%%%%%%%%%%%%%%%%%%%%%%%%%%%%%
 Warning: bad guess with residual norm =   0.192075E+03, reset to no guess
 Iteration #          1
  pAp =    123.86904292904713       rzold =    122.27790914971449       alpha =   0.98715470999284261     
 delta_qm =   0.104548E-01 delta_en =   0.188875E+03 tol =   0.100000E-04
 Iteration #          2
  pAp =    2205.8083138630036       rzold =    54.228175774534726       alpha =    2.4584264840114608E-002
 delta_qm =   0.322546E-02 delta_en =   0.179774E+02 tol =   0.100000E-04
 Iteration #          3
  pAp =    11.599459598874189       rzold =    1.1704685437741091       alpha =   0.10090716156188100     
 delta_qm =   0.166276E-02 delta_en =   0.477754E+01 tol =   0.100000E-04
 Iteration #          4
  pAp =    2.6007199345653342       rzold =   0.27845235265041351       alpha =   0.10706741196912156     
 delta_qm =   0.770672E-03 delta_en =   0.102632E+01 tol =   0.100000E-04
 Iteration #          5
  pAp =   0.23229063917373843       rzold =    3.9106675749510857E-002  alpha =   0.16835235327869402     
 delta_qm =   0.305072E-03 delta_en =   0.160823E+00 tol =   0.100000E-04
 Iteration #          6
  pAp =    1.6864669908485997E-002  rzold =    3.5277724445700364E-003  alpha =   0.20918123293921839     
 delta_qm =   0.158421E-03 delta_en =   0.433679E-01 tol =   0.100000E-04
 Iteration #          7
  pAp =    3.9718296598880458E-003  rzold =    7.2640544045161036E-004  alpha =   0.18288937408058067     
 delta_qm =   0.103224E-03 delta_en =   0.184121E-01 tol =   0.100000E-04
 Iteration #          8
  pAp =    6.2985041404990216E-004  rzold =    1.3668738428852150E-004  alpha =   0.21701562980586045     
 delta_qm =   0.720347E-04 delta_en =   0.896658E-02 tol =   0.100000E-04
 Iteration #          9
  pAp =    1.2429083641595951E-003  rzold =    1.5822941520963866E-004  alpha =   0.12730577713718022     
 delta_qm =   0.405305E-04 delta_en =   0.283863E-02 tol =   0.100000E-04
 Iteration #         10
  pAp =    8.3078210083751183E-005  rzold =    2.3444837838393764E-005  alpha =   0.28220200958541369     
 delta_qm =   0.190586E-04 delta_en =   0.627663E-03 tol =   0.100000E-04
 Iteration #         11
  pAp =    7.5874732937950375E-005  rzold =    1.0454128224591132E-005  alpha =   0.13778141707780925     
 delta_qm =   0.125220E-04 delta_en =   0.270953E-03 tol =   0.100000E-04
 Iteration #         12
  pAp =    3.2560172070186922E-005  rzold =    3.9237384114844519E-006  alpha =   0.12050729962441278     
 delta_qm =   0.939617E-05 delta_en =   0.152562E-03 tol =   0.100000E-04
 Iteration #         13
  pAp =    6.0916460052887766E-006  rzold =    1.4111082405957282E-006  alpha =   0.23164646129643807     
 delta_qm =   0.552980E-05 delta_en =   0.528399E-04 tol =   0.100000E-04
 Iteration #         14
  pAp =    5.3027121503786852E-007  rzold =    2.1700692945900471E-007  alpha =   0.40923761898617761     
 delta_qm =   0.363645E-05 delta_en =   0.228507E-04 tol =   0.100000E-04
 Iteration #         15
  pAp =    1.4309048086744367E-005  rzold =    4.5969014568326284E-007  alpha =    3.2125836945723255E-002
 delta_qm =   0.295894E-05 delta_en =   0.151292E-04 tol =   0.100000E-04
 Iteration #         16
  pAp =    2.1680142064729540E-007  rzold =    9.0755366384624438E-008  alpha =   0.41861057051037648     
 delta_qm =   0.129274E-05 delta_en =   0.288779E-05 tol =   0.100000E-04
 Charges are converged, EXIT

%%%% DENSITY %%%%%%%%%%%%%%%%%%%%%%%%%%%%%%%%%%%%%%%%%%%%%%%%%%%%%%%%%%%%%%%%%%%
 density label              = velectrostatic                                                                  
 integral of density        =     -282.2148337    

%%%% CHARGES %%%%%%%%%%%%%%%%%%%%%%%%%%%%%%%%%%%%%%%%%%%%%%%%%%%%%%%%%%%%%%%%%%%
 total number of charges    =         41
 total charge               =     -0.0000000

%%%% DENSITY %%%%%%%%%%%%%%%%%%%%%%%%%%%%%%%%%%%%%%%%%%%%%%%%%%%%%%%%%%%%%%%%%%%
 density label              = vsoftcavity                                                                     
 integral of density        =      109.6812469    

%%%% DENSITY %%%%%%%%%%%%%%%%%%%%%%%%%%%%%%%%%%%%%%%%%%%%%%%%%%%%%%%%%%%%%%%%%%%
 density label              = dvtot                                                                           
 integral of density        =     -172.5335867    

%%%% ELECTRONS %%%%%%%%%%%%%%%%%%%%%%%%%%%%%%%%%%%%%%%%%%%%%%%%%%%%%%%%%%%%%%%%%
 number of electrons        =         30
 total electronic charge    =     30.0000000

%%%% ELECTRONS %%%%%%%%%%%%%%%%%%%%%%%%%%%%%%%%%%%%%%%%%%%%%%%%%%%%%%%%%%%%%%%%%
 number of electrons        =         30
 total electronic charge    =     30.0000000

%%%% BOUNDARY %%%%%%%%%%%%%%%%%%%%%%%%%%%%%%%%%%%%%%%%%%%%%%%%%%%%%%%%%%%%%%%%%%
 boundary label             = solvent              
 boundary mode              = electronic           
 boundary is built as a function of a smooth density
 function type              =  2 
 using the modified SCCS function with parameters 
 rhomax                     =      0.0050000 
 rhomin                     =      0.0001000 
 volume of the QM region    =    975.7508353 
 surface of the QM region   =    503.7557255 

%%%% DIELECTRIC %%%%%%%%%%%%%%%%%%%%%%%%%%%%%%%%%%%%%%%%%%%%%%%%%%%%%%%%%%%%%%%%%
 dielectric build on homogeneous background
 environment bulk permitt.  =     20.0000000 
 dielectric flags
 need gradient              =  F 
 need factor depend. sqrt   =  T 
 total dielectric charge    =      0.0007303

%%%% BOUNDARY %%%%%%%%%%%%%%%%%%%%%%%%%%%%%%%%%%%%%%%%%%%%%%%%%%%%%%%%%%%%%%%%%%
 boundary label             = electrolyte          
 boundary mode              = electronic           
 boundary is built as a function of a smooth density
 function type              =  2 
 using the modified SCCS function with parameters 
 rhomax                     =      0.0007000 
 rhomin                     =      0.0000150 
 volume of the QM region    =   1732.0553085 
 surface of the QM region   =    718.7196720 

%%%% ELECTROLYTE %%%%%%%%%%%%%%%%%%%%%%%%%%%%%%%%%%%%%%%%%%%%%%%%%%%%%%%%%%%%%%%%
 number electrol. species   =    2
 solvent temperature        =   300.0
 Debye length / sqrt(eps)   =      0.2301070
 modified Poisson-Boltzmann 
 maximum concentration      =      0.0190986
 electrolyte species    1
 bulk concentration  (a.u.) =      0.7139E-03
 bulk concentration (mol/L) =      8.0000000
 ionic charge               =   -1.00
 electrolyte species    2
 bulk concentration  (a.u.) =      0.7139E-03
 bulk concentration (mol/L) =      8.0000000
 ionic charge               =    1.00
 electrolyte flags
 linearized                 =  T
 total electrolyte charge   =     -0.0008387

%%%% DENSITY %%%%%%%%%%%%%%%%%%%%%%%%%%%%%%%%%%%%%%%%%%%%%%%%%%%%%%%%%%%%%%%%%%%
 density label              = vreference                                                                      
 integral of density        =     0.4510463505E-11

%%%% COMPUTE ELECTROSTATIC POTENTIAL %%%%%%%%%%%%%%%%%%%%%%%%%%%%%%%%%%%%%%%%%%%
 Warning: bad guess with residual norm =   0.162988E+03, reset to no guess
 Iteration #          1
  pAp =    123.72116280418683       rzold =    122.58759654399064       alpha =   0.99083773354126747     
 delta_qm =   0.964912E-02 delta_en =   0.160886E+03 tol =   0.100000E-04
 Iteration #          2
  pAp =    1995.3289171126557       rzold =    43.285424807761594       alpha =    2.1693378187691403E-002
 delta_qm =   0.309826E-02 delta_en =   0.165874E+02 tol =   0.100000E-04
 Iteration #          3
  pAp =    10.651400265309411       rzold =   0.98292851697907169       alpha =    9.2281624246191893E-002
 delta_qm =   0.161064E-02 delta_en =   0.448274E+01 tol =   0.100000E-04
 Iteration #          4
  pAp =    2.2694550898698518       rzold =   0.24139021811285818       alpha =   0.10636483585436422     
 delta_qm =   0.824409E-03 delta_en =   0.117444E+01 tol =   0.100000E-04
 Iteration #          5
  pAp =   0.28945160720131580       rzold =    4.4976272172768297E-002  alpha =   0.15538442715050105     
 delta_qm =   0.336090E-03 delta_en =   0.195189E+00 tol =   0.100000E-04
 Iteration #          6
  pAp =    2.2954959152545182E-002  rzold =    4.4590316546717383E-003  alpha =   0.19425134346960202     
 delta_qm =   0.164639E-03 delta_en =   0.468395E-01 tol =   0.100000E-04
 Iteration #          7
  pAp =    3.8825467001940019E-003  rzold =    7.1539454983289834E-004  alpha =   0.18425909720471662     
 delta_qm =   0.111108E-03 delta_en =   0.213323E-01 tol =   0.100000E-04
 Iteration #          8
  pAp =    3.8933279434473457E-004  rzold =    1.3500518232495740E-004  alpha =   0.34676036615969502     
 delta_qm =   0.547383E-04 delta_en =   0.517757E-02 tol =   0.100000E-04
 Iteration #          9
  pAp =    6.4685817162900847E-004  rzold =    6.4944294854744984E-005  alpha =   0.10039958943580043     
 delta_qm =   0.411081E-04 delta_en =   0.292011E-02 tol =   0.100000E-04
 Iteration #         10
  pAp =    1.4248863706584772E-004  rzold =    2.9698990080491671E-005  alpha =   0.20843058570885897     
 delta_qm =   0.210877E-04 delta_en =   0.768429E-03 tol =   0.100000E-04
 Iteration #         11
  pAp =    7.3936221604279935E-005  rzold =    1.1485396822998505E-005  alpha =   0.15534194977490778     
 delta_qm =   0.131262E-04 delta_en =   0.297730E-03 tol =   0.100000E-04
 Iteration #         12
  pAp =    6.1075971804766281E-006  rzold =    1.8761081466659054E-006  alpha =   0.30717614328970799     
 delta_qm =   0.711904E-05 delta_en =   0.875762E-04 tol =   0.100000E-04
 Iteration #         13
  pAp =    6.5299056887031299E-006  rzold =    6.4333204723119885E-007  alpha =    9.8520878845796564E-002
 delta_qm =   0.616160E-05 delta_en =   0.656041E-04 tol =   0.100000E-04
 Iteration #         14
  pAp =    2.3871198661920942E-006  rzold =    3.6013109670654929E-007  alpha =   0.15086427028946234     
 delta_qm =   0.439234E-05 delta_en =   0.333376E-04 tol =   0.100000E-04
 Iteration #         15
  pAp =    2.4236222790188526E-005  rzold =    9.6779744657465184E-007  alpha =    3.9931859636413401E-002
 delta_qm =   0.378851E-05 delta_en =   0.248016E-04 tol =   0.100000E-04
 Iteration #         16
  pAp =    2.4441001779363838E-007  rzold =    9.9003447584475534E-008  alpha =   0.40507115247651865     
 delta_qm =   0.183187E-05 delta_en =   0.579872E-05 tol =   0.100000E-04
 Charges are converged, EXIT

%%%% DENSITY %%%%%%%%%%%%%%%%%%%%%%%%%%%%%%%%%%%%%%%%%%%%%%%%%%%%%%%%%%%%%%%%%%%
 density label              = velectrostatic                                                                  
 integral of density        =     -275.6930392    

%%%% CHARGES %%%%%%%%%%%%%%%%%%%%%%%%%%%%%%%%%%%%%%%%%%%%%%%%%%%%%%%%%%%%%%%%%%%
 total number of charges    =         41
 total charge               =      0.0000000

%%%% DENSITY %%%%%%%%%%%%%%%%%%%%%%%%%%%%%%%%%%%%%%%%%%%%%%%%%%%%%%%%%%%%%%%%%%%
 density label              = vsoftcavity                                                                     
 integral of density        =      49.91478251    

%%%% DENSITY %%%%%%%%%%%%%%%%%%%%%%%%%%%%%%%%%%%%%%%%%%%%%%%%%%%%%%%%%%%%%%%%%%%
 density label              = dvtot                                                                           
 integral of density        =     -225.7782567    

%%%% ELECTRONS %%%%%%%%%%%%%%%%%%%%%%%%%%%%%%%%%%%%%%%%%%%%%%%%%%%%%%%%%%%%%%%%%
 number of electrons        =         30
 total electronic charge    =     30.0000000

%%%% ELECTRONS %%%%%%%%%%%%%%%%%%%%%%%%%%%%%%%%%%%%%%%%%%%%%%%%%%%%%%%%%%%%%%%%%
 number of electrons        =         30
 total electronic charge    =     30.0000000

%%%% BOUNDARY %%%%%%%%%%%%%%%%%%%%%%%%%%%%%%%%%%%%%%%%%%%%%%%%%%%%%%%%%%%%%%%%%%
 boundary label             = solvent              
 boundary mode              = electronic           
 boundary is built as a function of a smooth density
 function type              =  2 
 using the modified SCCS function with parameters 
 rhomax                     =      0.0050000 
 rhomin                     =      0.0001000 
 volume of the QM region    =    969.1485742 
 surface of the QM region   =    502.8630366 

%%%% DIELECTRIC %%%%%%%%%%%%%%%%%%%%%%%%%%%%%%%%%%%%%%%%%%%%%%%%%%%%%%%%%%%%%%%%%
 dielectric build on homogeneous background
 environment bulk permitt.  =     20.0000000 
 dielectric flags
 need gradient              =  F 
 need factor depend. sqrt   =  T 
 total dielectric charge    =     -0.0001204

%%%% BOUNDARY %%%%%%%%%%%%%%%%%%%%%%%%%%%%%%%%%%%%%%%%%%%%%%%%%%%%%%%%%%%%%%%%%%
 boundary label             = electrolyte          
 boundary mode              = electronic           
 boundary is built as a function of a smooth density
 function type              =  2 
 using the modified SCCS function with parameters 
 rhomax                     =      0.0007000 
 rhomin                     =      0.0000150 
 volume of the QM region    =   1599.3887639 
 surface of the QM region   =    685.7653607 

%%%% ELECTROLYTE %%%%%%%%%%%%%%%%%%%%%%%%%%%%%%%%%%%%%%%%%%%%%%%%%%%%%%%%%%%%%%%%
 number electrol. species   =    2
 solvent temperature        =   300.0
 Debye length / sqrt(eps)   =      0.2301070
 modified Poisson-Boltzmann 
 maximum concentration      =      0.0190986
 electrolyte species    1
 bulk concentration  (a.u.) =      0.7139E-03
 bulk concentration (mol/L) =      8.0000000
 ionic charge               =   -1.00
 electrolyte species    2
 bulk concentration  (a.u.) =      0.7139E-03
 bulk concentration (mol/L) =      8.0000000
 ionic charge               =    1.00
 electrolyte flags
 linearized                 =  T
 total electrolyte charge   =      0.0000278

%%%% DENSITY %%%%%%%%%%%%%%%%%%%%%%%%%%%%%%%%%%%%%%%%%%%%%%%%%%%%%%%%%%%%%%%%%%%
 density label              = vreference                                                                      
 integral of density        =    -0.2311093960E-11

%%%% COMPUTE ELECTROSTATIC POTENTIAL %%%%%%%%%%%%%%%%%%%%%%%%%%%%%%%%%%%%%%%%%%%
 Warning: bad guess with residual norm =   0.146668E+03, reset to no guess
 Iteration #          1
  pAp =    123.66933793744855       rzold =    122.70015827290464       alpha =   0.99216313695287905     
 delta_qm =   0.916088E-02 delta_en =   0.145017E+03 tol =   0.100000E-04
 Iteration #          2
  pAp =    1723.8795862045990       rzold =    36.685498872138588       alpha =    2.1280778057652897E-002
 delta_qm =   0.319505E-02 delta_en =   0.176400E+02 tol =   0.100000E-04
 Iteration #          3
  pAp =    12.563250820038501       rzold =    1.0633321152371806       alpha =    8.4638293899311157E-002
 delta_qm =   0.166938E-02 delta_en =   0.481562E+01 tol =   0.100000E-04
 Iteration #          4
  pAp =    2.2139363080869776       rzold =   0.24742173680985868       alpha =   0.11175648364683595     
 delta_qm =   0.835301E-03 delta_en =   0.120567E+01 tol =   0.100000E-04
 Iteration #          5
  pAp =   0.30224568647059608       rzold =    4.6050015658135122E-002  alpha =   0.15235954628790077     
 delta_qm =   0.343518E-03 delta_en =   0.203912E+00 tol =   0.100000E-04
 Iteration #          6
  pAp =    2.2296575396809917E-002  rzold =    4.4315047257897948E-003  alpha =   0.19875270739666293     
 delta_qm =   0.163588E-03 delta_en =   0.462433E-01 tol =   0.100000E-04
 Iteration #          7
  pAp =    3.6069100455052672E-003  rzold =    6.6442875401614932E-004  alpha =   0.18420995967008488     
 delta_qm =   0.114106E-03 delta_en =   0.224987E-01 tol =   0.100000E-04
 Iteration #          8
  pAp =    4.3632454572292017E-004  rzold =    1.4383714016110639E-004  alpha =   0.32965631104431953     
 delta_qm =   0.560615E-04 delta_en =   0.543091E-02 tol =   0.100000E-04
 Iteration #          9
  pAp =    7.0523380835088004E-004  rzold =    6.7328410375862066E-005  alpha =    9.5469629474093057E-002
 delta_qm =   0.428187E-04 delta_en =   0.316819E-02 tol =   0.100000E-04
 Iteration #         10
  pAp =    1.2990636419900385E-004  rzold =    2.9954119316857052E-005  alpha =   0.23058238525535416     
 delta_qm =   0.206512E-04 delta_en =   0.736941E-03 tol =   0.100000E-04
 Iteration #         11
  pAp =    6.2540411875224228E-005  rzold =    9.5594136852891524E-006  alpha =   0.15285178652742729     
 delta_qm =   0.138950E-04 delta_en =   0.333625E-03 tol =   0.100000E-04
 Iteration #         12
  pAp =    6.8543192545967774E-006  rzold =    2.0536082802751592E-006  alpha =   0.29960791203268339     
 delta_qm =   0.745020E-05 delta_en =   0.959135E-04 tol =   0.100000E-04
 Iteration #         13
  pAp =    2.3330768852513778E-006  rzold =    3.6468304850540026E-007  alpha =   0.15630991452135853     
 delta_qm =   0.577127E-05 delta_en =   0.575555E-04 tol =   0.100000E-04
 Iteration #         14
  pAp =    2.6070000154854241E-005  rzold =    1.2486236007654476E-006  alpha =    4.7895036185220487E-002
 delta_qm =   0.490517E-05 delta_en =   0.415768E-04 tol =   0.100000E-04
 Iteration #         15
  pAp =    2.9611740583117884E-006  rzold =    2.8142635699716214E-007  alpha =    9.5038775652927232E-002
 delta_qm =   0.399005E-05 delta_en =   0.275107E-04 tol =   0.100000E-04
 Iteration #         16
  pAp =    4.3747720368689162E-007  rzold =    1.3072990150126782E-007  alpha =   0.29882677405708430     
 delta_qm =   0.203671E-05 delta_en =   0.716809E-05 tol =   0.100000E-04
 Charges are converged, EXIT

%%%% DENSITY %%%%%%%%%%%%%%%%%%%%%%%%%%%%%%%%%%%%%%%%%%%%%%%%%%%%%%%%%%%%%%%%%%%
 density label              = velectrostatic                                                                  
 integral of density        =     -273.7374403    

%%%% CHARGES %%%%%%%%%%%%%%%%%%%%%%%%%%%%%%%%%%%%%%%%%%%%%%%%%%%%%%%%%%%%%%%%%%%
 total number of charges    =         41
 total charge               =      0.0000000

%%%% DENSITY %%%%%%%%%%%%%%%%%%%%%%%%%%%%%%%%%%%%%%%%%%%%%%%%%%%%%%%%%%%%%%%%%%%
 density label              = vsoftcavity                                                                     
 integral of density        =      32.97814642    

%%%% DENSITY %%%%%%%%%%%%%%%%%%%%%%%%%%%%%%%%%%%%%%%%%%%%%%%%%%%%%%%%%%%%%%%%%%%
 density label              = dvtot                                                                           
 integral of density        =     -240.7592938    

%%%% ELECTRONS %%%%%%%%%%%%%%%%%%%%%%%%%%%%%%%%%%%%%%%%%%%%%%%%%%%%%%%%%%%%%%%%%
 number of electrons        =         30
 total electronic charge    =     30.0000000

%%%% ELECTRONS %%%%%%%%%%%%%%%%%%%%%%%%%%%%%%%%%%%%%%%%%%%%%%%%%%%%%%%%%%%%%%%%%
 number of electrons        =         30
 total electronic charge    =     30.0000000

%%%% BOUNDARY %%%%%%%%%%%%%%%%%%%%%%%%%%%%%%%%%%%%%%%%%%%%%%%%%%%%%%%%%%%%%%%%%%
 boundary label             = solvent              
 boundary mode              = electronic           
 boundary is built as a function of a smooth density
 function type              =  2 
 using the modified SCCS function with parameters 
 rhomax                     =      0.0050000 
 rhomin                     =      0.0001000 
 volume of the QM region    =    969.1485742 
 surface of the QM region   =    502.8630366 

%%%% DIELECTRIC %%%%%%%%%%%%%%%%%%%%%%%%%%%%%%%%%%%%%%%%%%%%%%%%%%%%%%%%%%%%%%%%%
 dielectric build on homogeneous background
 environment bulk permitt.  =     20.0000000 
 dielectric flags
 need gradient              =  F 
 need factor depend. sqrt   =  T 
 total dielectric charge    =      0.0000923

%%%% BOUNDARY %%%%%%%%%%%%%%%%%%%%%%%%%%%%%%%%%%%%%%%%%%%%%%%%%%%%%%%%%%%%%%%%%%
 boundary label             = electrolyte          
 boundary mode              = electronic           
 boundary is built as a function of a smooth density
 function type              =  2 
 using the modified SCCS function with parameters 
 rhomax                     =      0.0007000 
 rhomin                     =      0.0000150 
 volume of the QM region    =   1599.3887639 
 surface of the QM region   =    685.7653607 

%%%% ELECTROLYTE %%%%%%%%%%%%%%%%%%%%%%%%%%%%%%%%%%%%%%%%%%%%%%%%%%%%%%%%%%%%%%%%
 number electrol. species   =    2
 solvent temperature        =   300.0
 Debye length / sqrt(eps)   =      0.2301070
 modified Poisson-Boltzmann 
 maximum concentration      =      0.0190986
 electrolyte species    1
 bulk concentration  (a.u.) =      0.7139E-03
 bulk concentration (mol/L) =      8.0000000
 ionic charge               =   -1.00
 electrolyte species    2
 bulk concentration  (a.u.) =      0.7139E-03
 bulk concentration (mol/L) =      8.0000000
 ionic charge               =    1.00
 electrolyte flags
 linearized                 =  T
 total electrolyte charge   =     -0.0001695

%%%% DENSITY %%%%%%%%%%%%%%%%%%%%%%%%%%%%%%%%%%%%%%%%%%%%%%%%%%%%%%%%%%%%%%%%%%%
 density label              = dvtot                                                                           
 integral of density        =     -240.7592938    

%%%% DENSITY %%%%%%%%%%%%%%%%%%%%%%%%%%%%%%%%%%%%%%%%%%%%%%%%%%%%%%%%%%%%%%%%%%%
 density label              = vreference                                                                      
 integral of density        =    -0.2311093960E-11

%%%% DENSITY %%%%%%%%%%%%%%%%%%%%%%%%%%%%%%%%%%%%%%%%%%%%%%%%%%%%%%%%%%%%%%%%%%%
 density label              = velectrostatic                                                                  
 integral of density        =     -273.7374403    

%%%% CHARGES %%%%%%%%%%%%%%%%%%%%%%%%%%%%%%%%%%%%%%%%%%%%%%%%%%%%%%%%%%%%%%%%%%%
 total number of charges    =         41
 total charge               =      0.0000000

%%%% DENSITY %%%%%%%%%%%%%%%%%%%%%%%%%%%%%%%%%%%%%%%%%%%%%%%%%%%%%%%%%%%%%%%%%%%
 density label              = vsoftcavity                                                                     
 integral of density        =      32.97814642    
