
     Program PWSCF v.6.7MaX starts on  1Oct2021 at 20:33: 5 

     This program is part of the open-source Quantum ESPRESSO suite
     for quantum simulation of materials; please cite
         "P. Giannozzi et al., J. Phys.:Condens. Matter 21 395502 (2009);
         "P. Giannozzi et al., J. Phys.:Condens. Matter 29 465901 (2017);
          URL http://www.quantum-espresso.org", 
     in publications or presentations arising from this work. More details at
     http://www.quantum-espresso.org/quote

     Parallel version (MPI), running on     1 processors

     MPI processes distributed on     1 nodes
     Reading input from pw.in

     Current dimensions of program PWSCF are:
     Max number of different atomic species (ntypx) = 10
     Max number of k-points (npk) =  40000
     Max angular momentum in pseudopotentials (lmaxx) =  3

     Reading input from environ.in

     ================================================================================

     Reading ENVIRON namelist

     Reading BOUNDARY namelist

     Checking boundary derivatives
     derivatives               = chain          ! SCCS default

     Reading ELECTROSTATIC namelist

     Setting up electrostatic problem
     problem                   = linpb          
     solver                    = cg             

     Checking PBC correction

     ================================================================================
 
     file N.pbe-rrkjus.UPF: wavefunction(s)  2S renormalized
     file C.pbe-rrkjus.UPF: wavefunction(s)  2S 2P renormalized
     file H.pbe-rrkjus.UPF: wavefunction(s)  1S renormalized

     gamma-point specific algorithms are used

     Subspace diagonalization in iterative solution of the eigenvalue problem:
     a serial algorithm will be used

 
     G-vector sticks info
     --------------------
     sticks:   dense  smooth     PW     G-vecs:    dense   smooth      PW
     Sum        9549    3809    949               701475   177509   22119
 


     bravais-lattice index     =            1
     lattice parameter (alat)  =      20.0000  a.u.
     unit-cell volume          =    8000.0000 (a.u.)^3
     number of atoms/cell      =           11
     number of atomic types    =            3
     number of electrons       =        30.00
     number of Kohn-Sham states=           15
     kinetic-energy cutoff     =      30.0000  Ry
     charge density cutoff     =     300.0000  Ry
     scf convergence threshold =      5.0E-04
     mixing beta               =       0.7000
     number of iterations used =            8  plain     mixing
     Exchange-correlation= SLA  PW   PBE  PBE
                           (   1   4   3   4   0   0   0)
 

     Environ Module
     ==============

     Please cite
         O. Andreussi, I. Dabo and N. Marzari, J. Chem. Phys. 136, 064102 (2012)         
     in publications or presentations arising from this work.

     compensation onset threshold      =               0.1000E+03
     static permittivity               =                    20.00
     epsilon calculation mode          =               electronic

     Electrostatic Setup
     -------------------
     electrostatic problem to solve    = linpb                   
     numerical solver adopted          = cg                      
     type of auxiliary density adopted = none                    
     type of core tool for poisson     = fft                     
     type of core tool for correction  = 1d-analytic             



     celldm(1)=  20.000000  celldm(2)=   0.000000  celldm(3)=   0.000000
     celldm(4)=   0.000000  celldm(5)=   0.000000  celldm(6)=   0.000000

     crystal axes: (cart. coord. in units of alat)
               a(1) = (   1.000000   0.000000   0.000000 )  
               a(2) = (   0.000000   1.000000   0.000000 )  
               a(3) = (   0.000000   0.000000   1.000000 )  

     reciprocal axes: (cart. coord. in units 2 pi/alat)
               b(1) = (  1.000000  0.000000  0.000000 )  
               b(2) = (  0.000000  1.000000  0.000000 )  
               b(3) = (  0.000000  0.000000  1.000000 )  


     PseudoPot. # 1 for N  read from file:
     /home/simplogic86/Work/QE1/Environ/tests/../..//pseudo/N.pbe-rrkjus.UPF
     MD5 check sum: 28c76d763763edb36c62a6ca2be9aebd
     Pseudo is Ultrasoft, Zval =  5.0
     Generated by new atomic code, or converted to UPF format
     Using radial grid of 1257 points,  4 beta functions with: 
                l(1) =   0
                l(2) =   0
                l(3) =   1
                l(4) =   1
     Q(r) pseudized with 0 coefficients 


     PseudoPot. # 2 for C  read from file:
     /home/simplogic86/Work/QE1/Environ/tests/../..//pseudo/C.pbe-rrkjus.UPF
     MD5 check sum: c9ac5a99bc85b198593446162950cd17
     Pseudo is Ultrasoft, Zval =  4.0
     Generated by new atomic code, or converted to UPF format
     Using radial grid of  627 points,  4 beta functions with: 
                l(1) =   0
                l(2) =   0
                l(3) =   1
                l(4) =   1
     Q(r) pseudized with 0 coefficients 


     PseudoPot. # 3 for H  read from file:
     /home/simplogic86/Work/QE1/Environ/tests/../..//pseudo/H.pbe-rrkjus.UPF
     MD5 check sum: 2d52a7f45632fd764c17cc6affed14c8
     Pseudo is Ultrasoft, Zval =  1.0
     Generated by new atomic code, or converted to UPF format
     Using radial grid of 1061 points,  2 beta functions with: 
                l(1) =   0
                l(2) =   0
     Q(r) pseudized with 0 coefficients 


     atomic species   valence    mass     pseudopotential
        N              5.00    14.00000     N ( 1.00)
        C              4.00    12.00000     C ( 1.00)
        H              1.00     1.00000     H ( 1.00)

     No symmetry found



   Cartesian axes

     site n.     atom                  positions (alat units)
         1           N   tau(   1) = (  -0.1222704   0.0000000   0.0001514  )
         2           C   tau(   2) = (  -0.0616572   0.1123679   0.0001037  )
         3           C   tau(   3) = (   0.0689061   0.1142596   0.0000731  )
         4           C   tau(   4) = (   0.1346968   0.0000000   0.0000659  )
         5           C   tau(   5) = (   0.0689062  -0.1142596   0.0001326  )
         6           C   tau(   6) = (  -0.0616572  -0.1123679   0.0001773  )
         7           H   tau(   7) = (  -0.1206366   0.1969071   0.0000855  )
         8           H   tau(   8) = (   0.1179548   0.2049361   0.0000402  )
         9           H   tau(   9) = (   0.2379293  -0.0000000   0.0000010  )
        10           H   tau(  10) = (   0.1179548  -0.2049361   0.0001604  )
        11           H   tau(  11) = (  -0.1206365  -0.1969070   0.0002440  )

     number of k points=     1
                       cart. coord. in units 2pi/alat
        k(    1) = (   0.0000000   0.0000000   0.0000000), wk =   2.0000000

     Dense  grid:   350738 G-vectors     FFT dimensions: ( 120, 120, 120)

     Smooth grid:    88755 G-vectors     FFT dimensions: (  72,  72,  72)

     Estimated max dynamical RAM per process >     599.84 MB

     Initial potential from superposition of free atoms

     starting charge   29.51871, renormalised to   30.00000

     negative rho (up, down):  4.533E-04 0.000E+00
     Starting wfcs are   29 randomized atomic wfcs

     total cpu time spent up to now is        6.8 secs

     Self-consistent Calculation

     iteration #  1     ecut=    30.00 Ry     beta= 0.70
     Davidson diagonalization with overlap
     ethr =  1.00E-02,  avg # of iterations =  2.0

     negative rho (up, down):  1.343E-04 0.000E+00

     add environment contribution to local potential
     Polarization accuracy = 6.9E-06, # of iterations =  14

     total cpu time spent up to now is       12.5 secs

     total energy              =     -82.29342208 Ry
     estimated scf accuracy    <       2.00743679 Ry
     electrostatic embedding   =       0.00000000 Ry
     electrolyte free energy   =       0.00465756 Ry
     correction to one-el term =       0.00000000 Ry

     iteration #  2     ecut=    30.00 Ry     beta= 0.70
     Davidson diagonalization with overlap
     ethr =  6.69E-03,  avg # of iterations =  3.0

     negative rho (up, down):  8.677E-05 0.000E+00

     add environment contribution to local potential
     Polarization accuracy = 4.6E-06, # of iterations =  16

     total cpu time spent up to now is       20.1 secs

     total energy              =     -82.54646474 Ry
     estimated scf accuracy    <       0.29775004 Ry
     electrostatic embedding   =      -0.02779135 Ry
     electrolyte free energy   =       0.00456665 Ry
     correction to one-el term =       0.08456097 Ry

     iteration #  3     ecut=    30.00 Ry     beta= 0.70
     Davidson diagonalization with overlap
     ethr =  9.93E-04,  avg # of iterations =  4.0

     negative rho (up, down):  6.708E-05 0.000E+00

     add environment contribution to local potential
     Polarization accuracy = 6.2E-06, # of iterations =  16

     total cpu time spent up to now is       26.3 secs

     total energy              =     -82.63127416 Ry
     estimated scf accuracy    <       0.05336656 Ry
     electrostatic embedding   =      -0.01954230 Ry
     electrolyte free energy   =       0.00457487 Ry
     correction to one-el term =       0.62933126 Ry

     iteration #  4     ecut=    30.00 Ry     beta= 0.70
     Davidson diagonalization with overlap
     ethr =  1.78E-04,  avg # of iterations =  3.0

     negative rho (up, down):  4.801E-05 0.000E+00

     add environment contribution to local potential
     Polarization accuracy = 7.8E-06, # of iterations =  15

     total cpu time spent up to now is       32.5 secs

     total energy              =     -82.64510477 Ry
     estimated scf accuracy    <       0.00339622 Ry
     electrostatic embedding   =      -0.01715619 Ry
     electrolyte free energy   =       0.00457521 Ry
     correction to one-el term =       0.87173274 Ry

     iteration #  5     ecut=    30.00 Ry     beta= 0.70
     Davidson diagonalization with overlap
     ethr =  1.13E-05,  avg # of iterations =  2.0

     negative rho (up, down):  1.375E-04 0.000E+00

     the potential shift due to the Gaussian-smeared nuclei is    -0.0801 ev

     total cpu time spent up to now is       34.2 secs

     End of self-consistent calculation

          k = 0.0000 0.0000 0.0000 ( 11060 PWs)   bands (ev):

   -23.3127 -19.6280 -18.8725 -15.4074 -15.2808 -12.8091 -11.6634 -11.2007
   -10.4483  -9.8097  -9.4551  -8.6872  -7.0579  -6.6506  -5.6509

     highest occupied level (ev):    -5.6509

!    total energy              =     -82.64583970 Ry
     estimated scf accuracy    <       0.00046981 Ry

     The total energy is the sum of the following terms:
     one-electron contribution =    -292.42115760 Ry
     hartree contribution      =     149.42898188 Ry
     xc contribution           =     -25.97522302 Ry
     ewald contribution        =      85.35745758 Ry
     electrostatic embedding   =      -0.01753146 Ry
     electrolyte free energy   =       0.00456783 Ry
     correction to one-el term =       0.97706509 Ry

     WARNING: you are using the parabolic pbc correction;
              the potential shift above must be added to 
              band and Fermi energies.

     convergence has been achieved in   5 iterations

     Forces acting on atoms (cartesian axes, Ry/au):

     atom    1 type  1   force =    -0.04643094    0.00022789   -0.00001167
     atom    2 type  2   force =    -0.00576823   -0.06089405    0.00007908
     atom    3 type  2   force =     0.01765272    0.01598616   -0.00004617
     atom    4 type  2   force =     0.00774139    0.00004367    0.00000635
     atom    5 type  2   force =     0.01739599   -0.01618418    0.00000499
     atom    6 type  2   force =    -0.00558484    0.06061971   -0.00001651
     atom    7 type  3   force =     0.00300802   -0.00083507    0.00002521
     atom    8 type  3   force =     0.00584262   -0.00118022   -0.00003935
     atom    9 type  3   force =    -0.00265065   -0.00005509    0.00002924
     atom   10 type  3   force =     0.00575126    0.00138264   -0.00002985
     atom   11 type  3   force =     0.00304266    0.00088853   -0.00000133

     Total force =     0.104366     Total SCF correction =     0.037046
     SCF correction compared to forces is large: reduce conv_thr to get better values

     Writing output data file /home/simplogic86/Work/QE1/Environ/tests/../..//tempdir/pwscf.save/
 
     init_run     :      6.49s CPU      6.74s WALL (       1 calls)
     electrons    :     26.09s CPU     27.41s WALL (       1 calls)
     forces       :     20.12s CPU     20.26s WALL (       1 calls)

     Called by init_run:
     wfcinit      :      0.14s CPU      0.15s WALL (       1 calls)
     potinit      :      1.07s CPU      1.11s WALL (       1 calls)
     hinit0       :      4.81s CPU      4.83s WALL (       1 calls)

     Called by electrons:
     c_bands      :      1.11s CPU      1.17s WALL (       5 calls)
     sum_band     :      1.61s CPU      1.89s WALL (       5 calls)
     v_of_rho     :      2.34s CPU      2.60s WALL (       6 calls)
     newd         :      1.06s CPU      1.26s WALL (       6 calls)
     mix_rho      :      0.23s CPU      0.25s WALL (       5 calls)

     Called by c_bands:
     init_us_2    :      0.03s CPU      0.03s WALL (      11 calls)
     regterg      :      1.03s CPU      1.04s WALL (       5 calls)

     Called by *egterg:
     rdiaghg      :      0.01s CPU      0.01s WALL (      19 calls)
     h_psi        :      1.05s CPU      1.06s WALL (      20 calls)
     s_psi        :      0.03s CPU      0.03s WALL (      20 calls)
     g_psi        :      0.00s CPU      0.00s WALL (      14 calls)

     Called by h_psi:
     h_psi:calbec :      0.03s CPU      0.03s WALL (      20 calls)
     vloc_psi     :      0.99s CPU      1.00s WALL (      20 calls)
     add_vuspsi   :      0.03s CPU      0.03s WALL (      20 calls)

     General routines
     calbec       :      0.04s CPU      0.05s WALL (      29 calls)
     fft          :      1.02s CPU      1.05s WALL (      66 calls)
     ffts         :      0.03s CPU      0.03s WALL (      11 calls)
     fftw         :      0.83s CPU      0.83s WALL (     304 calls)
     interpolate  :      0.13s CPU      0.13s WALL (       6 calls)
 
     Parallel routines
 
     Environ routines
 
     PWSCF        :     52.76s CPU     54.47s WALL

 
   This run was terminated on:  20:34: 0   1Oct2021            

=------------------------------------------------------------------------------=
   JOB DONE.
=------------------------------------------------------------------------------=

%%%% CELL %%%%%%%%%%%%%%%%%%%%%%%%%%%%%%%%%%%%%%%%%%%%%%%%%%%%%%%%%%%%%%%%%%%%%%

 cell label                 = system         

 cell volume                =    8000.000000

%%%% IONS %%%%%%%%%%%%%%%%%%%%%%%%%%%%%%%%%%%%%%%%%%%%%%%%%%%%%%%%%%%%%%%%%%%%%%

 total charge               =    -30.0000000
 center of charge           =      0.1453286     0.0000003     0.0023326
 dipole                     =      0.0000000     0.0000000     0.0000000
 quadrupole (pc)            =   -131.0719083  -146.7987081    -0.0000314
 quadrupole (gauss)         =   -134.8219083  -150.5487081    -3.7500314

   i | type | coordinates
 -----------------------------------------------------------------------
   1 |    1 |                     -2.4454071     0.0000002     0.0030272
   2 |    2 |                     -1.2331440     2.2473584     0.0020749
   3 |    2 |                      1.3781229     2.2851921     0.0014627
   4 |    2 |                      2.6939354     0.0000002     0.0013189
   5 |    2 |                      1.3781232    -2.2851919     0.0026521
   6 |    2 |                     -1.2331437    -2.2473574     0.0035464
   7 |    3 |                     -2.4127312     3.9381412     0.0017094
   8 |    3 |                      2.3590962     4.0987221     0.0008035
   9 |    3 |                      4.7585861    -0.0000002     0.0000199
  10 |    3 |                      2.3590968    -4.0987217     0.0032074
  11 |    3 |                     -2.4127303    -3.9381403     0.0048805

%%%% SYSTEM %%%%%%%%%%%%%%%%%%%%%%%%%%%%%%%%%%%%%%%%%%%%%%%%%%%%%%%%%%%%%%%%%%%%

 system is built from all present ionic types

 system defined dimension   =              0
 system defined axis        =              3

 system center              =      0.1453286     0.0000003     0.0023326
 system width               =      4.6960222

%%%% IONS %%%%%%%%%%%%%%%%%%%%%%%%%%%%%%%%%%%%%%%%%%%%%%%%%%%%%%%%%%%%%%%%%%%%%%

 total charge               =    -30.0000000
 center of charge           =      0.1453286     0.0000003     0.0023326
 dipole                     =      0.0000000     0.0000000     0.0000000
 quadrupole (pc)            =   -131.0719083  -146.7987081    -0.0000314
 quadrupole (gauss)         =   -134.8219083  -150.5487081    -3.7500314

   i | type | coordinates
 -----------------------------------------------------------------------
   1 |    1 |                     -2.4454071     0.0000002     0.0030272
   2 |    2 |                     -1.2331440     2.2473584     0.0020749
   3 |    2 |                      1.3781229     2.2851921     0.0014627
   4 |    2 |                      2.6939354     0.0000002     0.0013189
   5 |    2 |                      1.3781232    -2.2851919     0.0026521
   6 |    2 |                     -1.2331437    -2.2473574     0.0035464
   7 |    3 |                     -2.4127312     3.9381412     0.0017094
   8 |    3 |                      2.3590962     4.0987221     0.0008035
   9 |    3 |                      4.7585861    -0.0000002     0.0000199
  10 |    3 |                      2.3590968    -4.0987217     0.0032074
  11 |    3 |                     -2.4127303    -3.9381403     0.0048805

%%%% SYSTEM %%%%%%%%%%%%%%%%%%%%%%%%%%%%%%%%%%%%%%%%%%%%%%%%%%%%%%%%%%%%%%%%%%%%

 system is built from all present ionic types

 system defined dimension   =              0
 system defined axis        =              3

 system center              =      0.1453286     0.0000003     0.0023326
 system width               =      4.6960222

%%%% BOUNDARY %%%%%%%%%%%%%%%%%%%%%%%%%%%%%%%%%%%%%%%%%%%%%%%%%%%%%%%%%%%%%%%%%%

 boundary label             = electrolyte         
 boundary mode              = ionic               

 boundary is built from soft-spheres centered on ionic positions:
 solvent-dependent scaling  =      1.5000000
 softness parameter         =      0.5000000

 volume of the QM region    =   1716.7618812

 surface of the QM region   =      0.0000000

%%%% ELECTROLYTE %%%%%%%%%%%%%%%%%%%%%%%%%%%%%%%%%%%%%%%%%%%%%%%%%%%%%%%%%%%%%%%%

 number electrolyte species =              2
 solvent temperature        =          300.0
 Debye length / sqrt(eps)   =      0.2301070

 electrolyte flags:
 linearized                 =              T

 total electrolyte charge   =      0.0000000

 species
 =======

   i |  c_bulk (a.u.) | c_bulk (mol/L) | ionic charge
 ----------------------------------------------------
   1 |     0.7139E-03 |      8.0000000 |        -1.00
   2 |     0.7139E-03 |      8.0000000 |         1.00

%%%% CHARGES %%%%%%%%%%%%%%%%%%%%%%%%%%%%%%%%%%%%%%%%%%%%%%%%%%%%%%%%%%%%%%%%%%%

 total number of charges    =             12

 total charge               =    -30.0000000

%%%% CHARGES %%%%%%%%%%%%%%%%%%%%%%%%%%%%%%%%%%%%%%%%%%%%%%%%%%%%%%%%%%%%%%%%%%%

 total number of charges    =             12

 total charge               =    -30.0000000

%%%% CELL %%%%%%%%%%%%%%%%%%%%%%%%%%%%%%%%%%%%%%%%%%%%%%%%%%%%%%%%%%%%%%%%%%%%%%

 cell label                 = system         

 cell volume                =    8000.000000

%%%% ELECTROLYTE %%%%%%%%%%%%%%%%%%%%%%%%%%%%%%%%%%%%%%%%%%%%%%%%%%%%%%%%%%%%%%%%

 number electrolyte species =              2
 solvent temperature        =          300.0
 Debye length / sqrt(eps)   =      0.2301070

 electrolyte flags:
 linearized                 =              T

 total electrolyte charge   =      0.0000000

 species
 =======

   i |  c_bulk (a.u.) | c_bulk (mol/L) | ionic charge
 ----------------------------------------------------
   1 |     0.7139E-03 |      8.0000000 |        -1.00
   2 |     0.7139E-03 |      8.0000000 |         1.00

%%%% ELECTRONS %%%%%%%%%%%%%%%%%%%%%%%%%%%%%%%%%%%%%%%%%%%%%%%%%%%%%%%%%%%%%%%%%

 number of electrons        =             30

 total electronic charge    =     30.0000000

%%%% ELECTRONS %%%%%%%%%%%%%%%%%%%%%%%%%%%%%%%%%%%%%%%%%%%%%%%%%%%%%%%%%%%%%%%%%

 number of electrons        =             30

 total electronic charge    =     30.0000000

%%%% CHARGES %%%%%%%%%%%%%%%%%%%%%%%%%%%%%%%%%%%%%%%%%%%%%%%%%%%%%%%%%%%%%%%%%%%

 total number of charges    =             41

 total charge               =     -0.0000000

%%%% CHARGES %%%%%%%%%%%%%%%%%%%%%%%%%%%%%%%%%%%%%%%%%%%%%%%%%%%%%%%%%%%%%%%%%%%

 total number of charges    =             41

 total charge               =     -0.0000000

%%%% BOUNDARY %%%%%%%%%%%%%%%%%%%%%%%%%%%%%%%%%%%%%%%%%%%%%%%%%%%%%%%%%%%%%%%%%%

 boundary label             = solvent             
 boundary mode              = electronic          

 boundary is built as a type-2 function of a smooth density

 using the modified SCCS function:
 rhomax                     =      0.0050000
 rhomin                     =      0.0001000

 volume of the QM region    =   2407.1059940

 surface of the QM region   =    815.5587045

%%%% DENSITY %%%%%%%%%%%%%%%%%%%%%%%%%%%%%%%%%%%%%%%%%%%%%%%%%%%%%%%%%%%%%%%%%%%

 density label              = dvtot                                             

 integral of density        =    0.000000000    

%%%% DENSITY %%%%%%%%%%%%%%%%%%%%%%%%%%%%%%%%%%%%%%%%%%%%%%%%%%%%%%%%%%%%%%%%%%%

 density label              = vreference                                        

 integral of density        =    0.000000000    

%%%% DENSITY %%%%%%%%%%%%%%%%%%%%%%%%%%%%%%%%%%%%%%%%%%%%%%%%%%%%%%%%%%%%%%%%%%%

 density label              = velectrostatic                                    

 integral of density        =    0.000000000    

%%%% CHARGES %%%%%%%%%%%%%%%%%%%%%%%%%%%%%%%%%%%%%%%%%%%%%%%%%%%%%%%%%%%%%%%%%%%

 total number of charges    =             41

 total charge               =     -0.0000000

%%%% DENSITY %%%%%%%%%%%%%%%%%%%%%%%%%%%%%%%%%%%%%%%%%%%%%%%%%%%%%%%%%%%%%%%%%%%

 density label              = vsoftcavity                                       

 integral of density        =    0.000000000    

%%%% ELECTRONS %%%%%%%%%%%%%%%%%%%%%%%%%%%%%%%%%%%%%%%%%%%%%%%%%%%%%%%%%%%%%%%%%

 number of electrons        =             30

 total electronic charge    =     30.0000000

%%%% ELECTRONS %%%%%%%%%%%%%%%%%%%%%%%%%%%%%%%%%%%%%%%%%%%%%%%%%%%%%%%%%%%%%%%%%

 number of electrons        =             30

 total electronic charge    =     30.0000000

%%%% CHARGES %%%%%%%%%%%%%%%%%%%%%%%%%%%%%%%%%%%%%%%%%%%%%%%%%%%%%%%%%%%%%%%%%%%

 total number of charges    =             41

 total charge               =      0.0000000

%%%% CHARGES %%%%%%%%%%%%%%%%%%%%%%%%%%%%%%%%%%%%%%%%%%%%%%%%%%%%%%%%%%%%%%%%%%%

 total number of charges    =             41

 total charge               =      0.0000000

%%%% BOUNDARY %%%%%%%%%%%%%%%%%%%%%%%%%%%%%%%%%%%%%%%%%%%%%%%%%%%%%%%%%%%%%%%%%%

 boundary label             = solvent             
 boundary mode              = electronic          

 boundary is built as a type-2 function of a smooth density

 using the modified SCCS function:
 rhomax                     =      0.0050000
 rhomin                     =      0.0001000

 volume of the QM region    =   1079.4809383

 surface of the QM region   =    528.9398834

%%%% DENSITY %%%%%%%%%%%%%%%%%%%%%%%%%%%%%%%%%%%%%%%%%%%%%%%%%%%%%%%%%%%%%%%%%%%

 density label              = vreference                                        

 integral of density        =  -0.3510607443E-12

%%%% COMPUTE ELECTROSTATIC POTENTIAL %%%%%%%%%%%%%%%%%%%%%%%%%%%%%%%%%%%%%%%%%%%

   i |      alpha     |       pAp      |      rzold     |    delta_qm    |    delta_en    |       tol
 ---------------------------------------------------------------------------------------------------------
   1 |   0.971254E+00 |   0.124767E+03 |   0.121180E+03 |   0.157498E-01 |   0.428639E+03 |   0.100000E-04
   2 |   0.223919E-01 |   0.625069E+04 |   0.139965E+03 |   0.351370E-02 |   0.213341E+02 |   0.100000E-04
   3 |   0.131970E+00 |   0.101242E+02 |   0.133609E+01 |   0.150420E-02 |   0.390978E+01 |   0.100000E-04
   4 |   0.178718E+00 |   0.751870E+00 |   0.134373E+00 |   0.695707E-03 |   0.836365E+00 |   0.100000E-04
   5 |   0.960086E-01 |   0.454907E+00 |   0.436750E-01 |   0.418820E-03 |   0.303109E+00 |   0.100000E-04
   6 |   0.137744E+00 |   0.858106E-01 |   0.118199E-01 |   0.230890E-03 |   0.921201E-01 |   0.100000E-04
   7 |   0.189040E+00 |   0.102568E-01 |   0.193895E-02 |   0.123937E-03 |   0.265429E-01 |   0.100000E-04
   8 |   0.177560E+00 |   0.142317E-02 |   0.252699E-03 |   0.917059E-04 |   0.145324E-01 |   0.100000E-04
   9 |   0.138307E+00 |   0.210781E-02 |   0.291524E-03 |   0.472318E-04 |   0.385490E-02 |   0.100000E-04
  10 |   0.301413E+00 |   0.113004E-03 |   0.340608E-04 |   0.239530E-04 |   0.991437E-03 |   0.100000E-04
  11 |   0.177127E+00 |   0.891661E-04 |   0.157937E-04 |   0.127318E-04 |   0.280108E-03 |   0.100000E-04
  12 |   0.218364E+00 |   0.183281E-04 |   0.400220E-05 |   0.641109E-05 |   0.710243E-04 |   0.100000E-04
  13 |   0.852858E-01 |   0.202962E-04 |   0.173098E-05 |   0.459130E-05 |   0.364263E-04 |   0.100000E-04
  14 |   0.278022E+00 |   0.141929E-05 |   0.394593E-06 |   0.199287E-05 |   0.686281E-05 |   0.100000E-04

 Charges are converged, EXIT

%%%% DENSITY %%%%%%%%%%%%%%%%%%%%%%%%%%%%%%%%%%%%%%%%%%%%%%%%%%%%%%%%%%%%%%%%%%%

 density label              = velectrostatic                                    

 integral of density        =   -280.0391163    

%%%% CHARGES %%%%%%%%%%%%%%%%%%%%%%%%%%%%%%%%%%%%%%%%%%%%%%%%%%%%%%%%%%%%%%%%%%%

 total number of charges    =             41

 total charge               =      0.0000000

%%%% DENSITY %%%%%%%%%%%%%%%%%%%%%%%%%%%%%%%%%%%%%%%%%%%%%%%%%%%%%%%%%%%%%%%%%%%

 density label              = vsoftcavity                                       

 integral of density        =    16.22090392    

%%%% DENSITY %%%%%%%%%%%%%%%%%%%%%%%%%%%%%%%%%%%%%%%%%%%%%%%%%%%%%%%%%%%%%%%%%%%

 density label              = dvtot                                             

 integral of density        =   -263.8182124    

%%%% ELECTRONS %%%%%%%%%%%%%%%%%%%%%%%%%%%%%%%%%%%%%%%%%%%%%%%%%%%%%%%%%%%%%%%%%

 number of electrons        =             30

 total electronic charge    =     30.0000000

%%%% ELECTRONS %%%%%%%%%%%%%%%%%%%%%%%%%%%%%%%%%%%%%%%%%%%%%%%%%%%%%%%%%%%%%%%%%

 number of electrons        =             30

 total electronic charge    =     30.0000000

%%%% CHARGES %%%%%%%%%%%%%%%%%%%%%%%%%%%%%%%%%%%%%%%%%%%%%%%%%%%%%%%%%%%%%%%%%%%

 total number of charges    =             41

 total charge               =      0.0000000

%%%% CHARGES %%%%%%%%%%%%%%%%%%%%%%%%%%%%%%%%%%%%%%%%%%%%%%%%%%%%%%%%%%%%%%%%%%%

 total number of charges    =             41

 total charge               =      0.0000000

%%%% BOUNDARY %%%%%%%%%%%%%%%%%%%%%%%%%%%%%%%%%%%%%%%%%%%%%%%%%%%%%%%%%%%%%%%%%%

 boundary label             = solvent             
 boundary mode              = electronic          

 boundary is built as a type-2 function of a smooth density

 using the modified SCCS function:
 rhomax                     =      0.0050000
 rhomin                     =      0.0001000

 volume of the QM region    =   1004.0994042

 surface of the QM region   =    509.9887889

%%%% DENSITY %%%%%%%%%%%%%%%%%%%%%%%%%%%%%%%%%%%%%%%%%%%%%%%%%%%%%%%%%%%%%%%%%%%

 density label              = vreference                                        

 integral of density        =  -0.7985710858E-12

%%%% COMPUTE ELECTROSTATIC POTENTIAL %%%%%%%%%%%%%%%%%%%%%%%%%%%%%%%%%%%%%%%%%%%

 Warning: Bad guess with residual norm =   0.243267E+03, reset to no guess

   i |      alpha     |       pAp      |      rzold     |    delta_qm    |    delta_en    |       tol
 ---------------------------------------------------------------------------------------------------------
   1 |   0.985480E+00 |   0.124081E+03 |   0.122279E+03 |   0.117463E-01 |   0.238423E+03 |   0.100000E-04
   2 |   0.219236E-01 |   0.319480E+04 |   0.700414E+02 |   0.330743E-02 |   0.189028E+02 |   0.100000E-04
   3 |   0.929306E-01 |   0.134485E+02 |   0.124977E+01 |   0.175363E-02 |   0.531399E+01 |   0.100000E-04
   4 |   0.105400E+00 |   0.289753E+01 |   0.305399E+00 |   0.890620E-03 |   0.137066E+01 |   0.100000E-04
   5 |   0.158381E+00 |   0.322172E+00 |   0.510260E-01 |   0.353927E-03 |   0.216457E+00 |   0.100000E-04
   6 |   0.186903E+00 |   0.280393E-01 |   0.524062E-02 |   0.179352E-03 |   0.555846E-01 |   0.100000E-04
   7 |   0.185690E+00 |   0.497538E-02 |   0.923879E-03 |   0.112266E-03 |   0.217793E-01 |   0.100000E-04
   8 |   0.256527E+00 |   0.589243E-03 |   0.151157E-03 |   0.716995E-04 |   0.888334E-02 |   0.100000E-04
   9 |   0.987056E-01 |   0.194863E-02 |   0.192341E-03 |   0.436461E-04 |   0.329182E-02 |   0.100000E-04
  10 |   0.296442E+00 |   0.898217E-04 |   0.266269E-04 |   0.205294E-04 |   0.728279E-03 |   0.100000E-04
  11 |   0.153780E+00 |   0.750177E-04 |   0.115362E-04 |   0.123933E-04 |   0.265410E-03 |   0.100000E-04
  12 |   0.194812E+00 |   0.122575E-04 |   0.238790E-05 |   0.827914E-05 |   0.118444E-03 |   0.100000E-04
  13 |   0.103656E+00 |   0.213008E-04 |   0.220796E-05 |   0.541143E-05 |   0.506020E-04 |   0.100000E-04
  14 |   0.339303E+00 |   0.740042E-06 |   0.251099E-06 |   0.361204E-05 |   0.225449E-04 |   0.100000E-04
  15 |   0.386659E-01 |   0.429165E-05 |   0.165940E-06 |   0.319358E-05 |   0.176238E-04 |   0.100000E-04
  16 |   0.278405E+00 |   0.429966E-06 |   0.119705E-06 |   0.162457E-05 |   0.456057E-05 |   0.100000E-04

 Charges are converged, EXIT

%%%% DENSITY %%%%%%%%%%%%%%%%%%%%%%%%%%%%%%%%%%%%%%%%%%%%%%%%%%%%%%%%%%%%%%%%%%%

 density label              = velectrostatic                                    

 integral of density        =   -282.1406649    

%%%% CHARGES %%%%%%%%%%%%%%%%%%%%%%%%%%%%%%%%%%%%%%%%%%%%%%%%%%%%%%%%%%%%%%%%%%%

 total number of charges    =             41

 total charge               =      0.0000000

%%%% DENSITY %%%%%%%%%%%%%%%%%%%%%%%%%%%%%%%%%%%%%%%%%%%%%%%%%%%%%%%%%%%%%%%%%%%

 density label              = vsoftcavity                                       

 integral of density        =    9.376420838    

%%%% DENSITY %%%%%%%%%%%%%%%%%%%%%%%%%%%%%%%%%%%%%%%%%%%%%%%%%%%%%%%%%%%%%%%%%%%

 density label              = dvtot                                             

 integral of density        =   -272.7642441    

%%%% ELECTRONS %%%%%%%%%%%%%%%%%%%%%%%%%%%%%%%%%%%%%%%%%%%%%%%%%%%%%%%%%%%%%%%%%

 number of electrons        =             30

 total electronic charge    =     30.0000000

%%%% ELECTRONS %%%%%%%%%%%%%%%%%%%%%%%%%%%%%%%%%%%%%%%%%%%%%%%%%%%%%%%%%%%%%%%%%

 number of electrons        =             30

 total electronic charge    =     30.0000000

%%%% CHARGES %%%%%%%%%%%%%%%%%%%%%%%%%%%%%%%%%%%%%%%%%%%%%%%%%%%%%%%%%%%%%%%%%%%

 total number of charges    =             41

 total charge               =      0.0000000

%%%% CHARGES %%%%%%%%%%%%%%%%%%%%%%%%%%%%%%%%%%%%%%%%%%%%%%%%%%%%%%%%%%%%%%%%%%%

 total number of charges    =             41

 total charge               =      0.0000000

%%%% BOUNDARY %%%%%%%%%%%%%%%%%%%%%%%%%%%%%%%%%%%%%%%%%%%%%%%%%%%%%%%%%%%%%%%%%%

 boundary label             = solvent             
 boundary mode              = electronic          

 boundary is built as a type-2 function of a smooth density

 using the modified SCCS function:
 rhomax                     =      0.0050000
 rhomin                     =      0.0001000

 volume of the QM region    =    976.6893531

 surface of the QM region   =    504.0766291

%%%% DENSITY %%%%%%%%%%%%%%%%%%%%%%%%%%%%%%%%%%%%%%%%%%%%%%%%%%%%%%%%%%%%%%%%%%%

 density label              = vreference                                        

 integral of density        =  -0.7987026678E-13

%%%% COMPUTE ELECTROSTATIC POTENTIAL %%%%%%%%%%%%%%%%%%%%%%%%%%%%%%%%%%%%%%%%%%%

 Warning: Bad guess with residual norm =   0.167350E+03, reset to no guess

   i |      alpha     |       pAp      |      rzold     |    delta_qm    |    delta_en    |       tol
 ---------------------------------------------------------------------------------------------------------
   1 |   0.990825E+00 |   0.123729E+03 |   0.122594E+03 |   0.977663E-02 |   0.165166E+03 |   0.100000E-04
   2 |   0.217056E-01 |   0.199546E+04 |   0.433128E+02 |   0.312418E-02 |   0.168662E+02 |   0.100000E-04
   3 |   0.923942E-01 |   0.106355E+02 |   0.982659E+00 |   0.162091E-02 |   0.454006E+01 |   0.100000E-04
   4 |   0.106692E+00 |   0.227332E+01 |   0.242545E+00 |   0.826949E-03 |   0.118168E+01 |   0.100000E-04
   5 |   0.155136E+00 |   0.289992E+00 |   0.449884E-01 |   0.337898E-03 |   0.197295E+00 |   0.100000E-04
   6 |   0.194296E+00 |   0.231121E-01 |   0.449057E-02 |   0.163746E-03 |   0.463324E-01 |   0.100000E-04
   7 |   0.183441E+00 |   0.388895E-02 |   0.713392E-03 |   0.110362E-03 |   0.210467E-01 |   0.100000E-04
   8 |   0.300000E+00 |   0.463501E-03 |   0.139050E-03 |   0.620994E-04 |   0.666374E-02 |   0.100000E-04
   9 |   0.854358E-01 |   0.154051E-02 |   0.131614E-03 |   0.429245E-04 |   0.318386E-02 |   0.100000E-04
  10 |   0.292544E+00 |   0.828320E-04 |   0.242320E-04 |   0.209021E-04 |   0.754957E-03 |   0.100000E-04
  11 |   0.154609E+00 |   0.663975E-04 |   0.102657E-04 |   0.137576E-04 |   0.327061E-03 |   0.100000E-04
  12 |   0.256145E+00 |   0.811824E-05 |   0.207944E-05 |   0.843252E-05 |   0.122874E-03 |   0.100000E-04
  13 |   0.854706E-01 |   0.192356E-04 |   0.164408E-05 |   0.651308E-05 |   0.733021E-04 |   0.100000E-04
  14 |   0.386827E+00 |   0.737116E-06 |   0.285136E-06 |   0.419739E-05 |   0.304440E-04 |   0.100000E-04
  15 |   0.139593E+00 |   0.969437E-06 |   0.135327E-06 |   0.315312E-05 |   0.171801E-04 |   0.100000E-04
  16 |   0.675875E-01 |   0.772696E-05 |   0.522245E-06 |   0.189972E-05 |   0.623627E-05 |   0.100000E-04

 Charges are converged, EXIT

%%%% DENSITY %%%%%%%%%%%%%%%%%%%%%%%%%%%%%%%%%%%%%%%%%%%%%%%%%%%%%%%%%%%%%%%%%%%

 density label              = velectrostatic                                    

 integral of density        =   -275.9567020    

%%%% CHARGES %%%%%%%%%%%%%%%%%%%%%%%%%%%%%%%%%%%%%%%%%%%%%%%%%%%%%%%%%%%%%%%%%%%

 total number of charges    =             41

 total charge               =      0.0000000

%%%% DENSITY %%%%%%%%%%%%%%%%%%%%%%%%%%%%%%%%%%%%%%%%%%%%%%%%%%%%%%%%%%%%%%%%%%%

 density label              = vsoftcavity                                       

 integral of density        =    7.850579725    

%%%% DENSITY %%%%%%%%%%%%%%%%%%%%%%%%%%%%%%%%%%%%%%%%%%%%%%%%%%%%%%%%%%%%%%%%%%%

 density label              = dvtot                                             

 integral of density        =   -268.1061222    

%%%% ELECTRONS %%%%%%%%%%%%%%%%%%%%%%%%%%%%%%%%%%%%%%%%%%%%%%%%%%%%%%%%%%%%%%%%%

 number of electrons        =             30

 total electronic charge    =     30.0000000

%%%% ELECTRONS %%%%%%%%%%%%%%%%%%%%%%%%%%%%%%%%%%%%%%%%%%%%%%%%%%%%%%%%%%%%%%%%%

 number of electrons        =             30

 total electronic charge    =     30.0000000

%%%% CHARGES %%%%%%%%%%%%%%%%%%%%%%%%%%%%%%%%%%%%%%%%%%%%%%%%%%%%%%%%%%%%%%%%%%%

 total number of charges    =             41

 total charge               =      0.0000000

%%%% CHARGES %%%%%%%%%%%%%%%%%%%%%%%%%%%%%%%%%%%%%%%%%%%%%%%%%%%%%%%%%%%%%%%%%%%

 total number of charges    =             41

 total charge               =      0.0000000

%%%% BOUNDARY %%%%%%%%%%%%%%%%%%%%%%%%%%%%%%%%%%%%%%%%%%%%%%%%%%%%%%%%%%%%%%%%%%

 boundary label             = solvent             
 boundary mode              = electronic          

 boundary is built as a type-2 function of a smooth density

 using the modified SCCS function:
 rhomax                     =      0.0050000
 rhomin                     =      0.0001000

 volume of the QM region    =    970.6046808

 surface of the QM region   =    503.3753289

%%%% DENSITY %%%%%%%%%%%%%%%%%%%%%%%%%%%%%%%%%%%%%%%%%%%%%%%%%%%%%%%%%%%%%%%%%%%

 density label              = vreference                                        

 integral of density        =  -0.3125072217E-12

%%%% COMPUTE ELECTROSTATIC POTENTIAL %%%%%%%%%%%%%%%%%%%%%%%%%%%%%%%%%%%%%%%%%%%

 Warning: Bad guess with residual norm =   0.145037E+03, reset to no guess

   i |      alpha     |       pAp      |      rzold     |    delta_qm    |    delta_en    |       tol
 ---------------------------------------------------------------------------------------------------------
   1 |   0.992332E+00 |   0.123657E+03 |   0.122709E+03 |   0.911072E-02 |   0.143433E+03 |   0.100000E-04
   2 |   0.217913E-01 |   0.160146E+04 |   0.348979E+02 |   0.319716E-02 |   0.176633E+02 |   0.100000E-04
   3 |   0.861200E-01 |   0.120763E+02 |   0.104001E+01 |   0.167010E-02 |   0.481977E+01 |   0.100000E-04
   4 |   0.112715E+00 |   0.218314E+01 |   0.246072E+00 |   0.816491E-03 |   0.115198E+01 |   0.100000E-04
   5 |   0.153399E+00 |   0.285502E+00 |   0.437957E-01 |   0.337562E-03 |   0.196902E+00 |   0.100000E-04
   6 |   0.200568E+00 |   0.212828E-01 |   0.426866E-02 |   0.158603E-03 |   0.434678E-01 |   0.100000E-04
   7 |   0.183539E+00 |   0.347230E-02 |   0.637303E-03 |   0.111165E-03 |   0.213540E-01 |   0.100000E-04
   8 |   0.309092E+00 |   0.452626E-03 |   0.139903E-03 |   0.597922E-04 |   0.617779E-02 |   0.100000E-04
   9 |   0.850535E-01 |   0.123566E-02 |   0.105097E-03 |   0.436636E-04 |   0.329444E-02 |   0.100000E-04
  10 |   0.282663E+00 |   0.897793E-04 |   0.253773E-04 |   0.215343E-04 |   0.801320E-03 |   0.100000E-04
  11 |   0.154283E+00 |   0.629853E-04 |   0.971759E-05 |   0.148814E-04 |   0.382677E-03 |   0.100000E-04
  12 |   0.278693E+00 |   0.760096E-05 |   0.211834E-05 |   0.898506E-05 |   0.139504E-03 |   0.100000E-04
  13 |   0.844069E-01 |   0.167394E-04 |   0.141292E-05 |   0.736916E-05 |   0.938381E-04 |   0.100000E-04
  14 |   0.402109E+00 |   0.838149E-06 |   0.337027E-06 |   0.454207E-05 |   0.356493E-04 |   0.100000E-04
  15 |   0.401085E+00 |   0.382558E-06 |   0.153438E-06 |   0.212007E-05 |   0.776687E-05 |   0.100000E-04

 Charges are converged, EXIT

%%%% DENSITY %%%%%%%%%%%%%%%%%%%%%%%%%%%%%%%%%%%%%%%%%%%%%%%%%%%%%%%%%%%%%%%%%%%

 density label              = velectrostatic                                    

 integral of density        =   -274.1098698    

%%%% CHARGES %%%%%%%%%%%%%%%%%%%%%%%%%%%%%%%%%%%%%%%%%%%%%%%%%%%%%%%%%%%%%%%%%%%

 total number of charges    =             41

 total charge               =      0.0000000

%%%% DENSITY %%%%%%%%%%%%%%%%%%%%%%%%%%%%%%%%%%%%%%%%%%%%%%%%%%%%%%%%%%%%%%%%%%%

 density label              = vsoftcavity                                       

 integral of density        =    7.604101453    

%%%% DENSITY %%%%%%%%%%%%%%%%%%%%%%%%%%%%%%%%%%%%%%%%%%%%%%%%%%%%%%%%%%%%%%%%%%%

 density label              = dvtot                                             

 integral of density        =   -266.5057684    

%%%% ELECTRONS %%%%%%%%%%%%%%%%%%%%%%%%%%%%%%%%%%%%%%%%%%%%%%%%%%%%%%%%%%%%%%%%%

 number of electrons        =             30

 total electronic charge    =     30.0000000

%%%% ELECTRONS %%%%%%%%%%%%%%%%%%%%%%%%%%%%%%%%%%%%%%%%%%%%%%%%%%%%%%%%%%%%%%%%%

 number of electrons        =             30

 total electronic charge    =     30.0000000

%%%% CHARGES %%%%%%%%%%%%%%%%%%%%%%%%%%%%%%%%%%%%%%%%%%%%%%%%%%%%%%%%%%%%%%%%%%%

 total number of charges    =             41

 total charge               =      0.0000000

%%%% CHARGES %%%%%%%%%%%%%%%%%%%%%%%%%%%%%%%%%%%%%%%%%%%%%%%%%%%%%%%%%%%%%%%%%%%

 total number of charges    =             41

 total charge               =      0.0000000

%%%% BOUNDARY %%%%%%%%%%%%%%%%%%%%%%%%%%%%%%%%%%%%%%%%%%%%%%%%%%%%%%%%%%%%%%%%%%

 boundary label             = solvent             
 boundary mode              = electronic          

 boundary is built as a type-2 function of a smooth density

 using the modified SCCS function:
 rhomax                     =      0.0050000
 rhomin                     =      0.0001000

 volume of the QM region    =    970.6046808

 surface of the QM region   =    503.3753289

%%%% DENSITY %%%%%%%%%%%%%%%%%%%%%%%%%%%%%%%%%%%%%%%%%%%%%%%%%%%%%%%%%%%%%%%%%%%

 density label              = dvtot                                             

 integral of density        =   -266.5057684    

%%%% DENSITY %%%%%%%%%%%%%%%%%%%%%%%%%%%%%%%%%%%%%%%%%%%%%%%%%%%%%%%%%%%%%%%%%%%

 density label              = vreference                                        

 integral of density        =  -0.3125072217E-12

%%%% DENSITY %%%%%%%%%%%%%%%%%%%%%%%%%%%%%%%%%%%%%%%%%%%%%%%%%%%%%%%%%%%%%%%%%%%

 density label              = velectrostatic                                    

 integral of density        =   -274.1098698    

%%%% CHARGES %%%%%%%%%%%%%%%%%%%%%%%%%%%%%%%%%%%%%%%%%%%%%%%%%%%%%%%%%%%%%%%%%%%

 total number of charges    =             41

 total charge               =      0.0000000

%%%% DENSITY %%%%%%%%%%%%%%%%%%%%%%%%%%%%%%%%%%%%%%%%%%%%%%%%%%%%%%%%%%%%%%%%%%%

 density label              = vsoftcavity                                       

 integral of density        =    7.604101453    
