
     Program PWSCF v.6.1 (svn rev. 13369) starts on  1Jan2018 at 14:50:23 

     This program is part of the open-source Quantum ESPRESSO suite
     for quantum simulation of materials; please cite
         "P. Giannozzi et al., J. Phys.:Condens. Matter 21 395502 (2009);
          URL http://www.quantum-espresso.org", 
     in publications or presentations arising from this work. More details at
     http://www.quantum-espresso.org/quote

     Serial version
     Reading input from pw.in

     Current dimensions of program PWSCF are:
     Max number of different atomic species (ntypx) = 10
     Max number of k-points (npk) =  40000
     Max angular momentum in pseudopotentials (lmaxx) =  3
               file N.pbe-rrkjus.UPF: wavefunction(s)  2S renormalized
               file C.pbe-rrkjus.UPF: wavefunction(s)  2S 2P renormalized
               file H.pbe-rrkjus.UPF: wavefunction(s)  1S renormalized

     gamma-point specific algorithms are used

     G-vector sticks info
     --------------------
     sticks:   dense  smooth     PW     G-vecs:    dense   smooth      PW
     Sum        9549    3809    949               701475   177509   22119



     bravais-lattice index     =            1
     lattice parameter (alat)  =      20.0000  a.u.
     unit-cell volume          =    8000.0000 (a.u.)^3
     number of atoms/cell      =           11
     number of atomic types    =            3
     number of electrons       =        30.00
     number of Kohn-Sham states=           15
     kinetic-energy cutoff     =      30.0000  Ry
     charge density cutoff     =     300.0000  Ry
     convergence threshold     =      5.0E-04
     mixing beta               =       0.7000
     number of iterations used =            8  plain     mixing
     Exchange-correlation      =  SLA  PW   PBE  PBE ( 1  4  3  4 0 0)


     Environ Module
     ==============

     Plese cite
         O. Andreussi, I. Dabo and N. Marzari, J. Chem. Phys. 136, 064102 (2012)         
     in publications or presentations arising from this work.

     compensation onset threshold      =               0.1000E+03 
     static permittivity               =                    20.00 
     epsilon calculation mode          =               electronic 

     Electrostatic Setup
     -------------------
     electrostatic problem to solve    = linpb                    
     numerical solver adopted          = cg                       
     type of auxiliary density adopted = none                     
     type of core tool for poisson     = fft                      
     type of core tool for s(r) deriv  = analytic                 



     celldm(1)=  20.000000  celldm(2)=   0.000000  celldm(3)=   0.000000
     celldm(4)=   0.000000  celldm(5)=   0.000000  celldm(6)=   0.000000

     crystal axes: (cart. coord. in units of alat)
               a(1) = (   1.000000   0.000000   0.000000 )  
               a(2) = (   0.000000   1.000000   0.000000 )  
               a(3) = (   0.000000   0.000000   1.000000 )  

     reciprocal axes: (cart. coord. in units 2 pi/alat)
               b(1) = (  1.000000  0.000000  0.000000 )  
               b(2) = (  0.000000  1.000000  0.000000 )  
               b(3) = (  0.000000  0.000000  1.000000 )  


     PseudoPot. # 1 for N  read from file:
     /Users/francesco/Programs/qe-6.1/Environ/tests/../..//pseudo/N.pbe-rrkjus.UPF
     MD5 check sum: 0c3fbe5807a93f9ba59d5a7019aa238b
     Pseudo is Ultrasoft, Zval =  5.0
     Generated by new atomic code, or converted to UPF format
     Using radial grid of 1257 points,  4 beta functions with: 
                l(1) =   0
                l(2) =   0
                l(3) =   1
                l(4) =   1
     Q(r) pseudized with 0 coefficients 


     PseudoPot. # 2 for C  read from file:
     /Users/francesco/Programs/qe-6.1/Environ/tests/../..//pseudo/C.pbe-rrkjus.UPF
     MD5 check sum: 00fb224312de0c5b6853bd333518df6f
     Pseudo is Ultrasoft, Zval =  4.0
     Generated by new atomic code, or converted to UPF format
     Using radial grid of  627 points,  4 beta functions with: 
                l(1) =   0
                l(2) =   0
                l(3) =   1
                l(4) =   1
     Q(r) pseudized with 0 coefficients 


     PseudoPot. # 3 for H  read from file:
     /Users/francesco/Programs/qe-6.1/Environ/tests/../..//pseudo/H.pbe-rrkjus.UPF
     MD5 check sum: 7cc9d459525c9a0585f487a71c3c9563
     Pseudo is Ultrasoft, Zval =  1.0
     Generated by new atomic code, or converted to UPF format
     Using radial grid of 1061 points,  2 beta functions with: 
                l(1) =   0
                l(2) =   0
     Q(r) pseudized with 0 coefficients 


     atomic species   valence    mass     pseudopotential
        N              5.00    14.00000     N ( 1.00)
        C              4.00    12.00000     C ( 1.00)
        H              1.00     1.00000     H ( 1.00)

     No symmetry found



   Cartesian axes

     site n.     atom                  positions (alat units)
         1           N   tau(   1) = (  -0.1222704   0.0000000   0.0001514  )
         2           C   tau(   2) = (  -0.0616572   0.1123679   0.0001037  )
         3           C   tau(   3) = (   0.0689061   0.1142596   0.0000731  )
         4           C   tau(   4) = (   0.1346968   0.0000000   0.0000659  )
         5           C   tau(   5) = (   0.0689062  -0.1142596   0.0001326  )
         6           C   tau(   6) = (  -0.0616572  -0.1123679   0.0001773  )
         7           H   tau(   7) = (  -0.1206366   0.1969071   0.0000855  )
         8           H   tau(   8) = (   0.1179548   0.2049361   0.0000402  )
         9           H   tau(   9) = (   0.2379293  -0.0000000   0.0000010  )
        10           H   tau(  10) = (   0.1179548  -0.2049361   0.0001604  )
        11           H   tau(  11) = (  -0.1206365  -0.1969070   0.0002440  )

     number of k points=     1
                       cart. coord. in units 2pi/alat
        k(    1) = (   0.0000000   0.0000000   0.0000000), wk =   2.0000000

     Dense  grid:   350738 G-vectors     FFT dimensions: ( 120, 120, 120)

     Smooth grid:    88755 G-vectors     FFT dimensions: (  72,  72,  72)

     Estimated max dynamical RAM per process >     300.59MB

     Initial potential from superposition of free atoms
     Check: negative starting charge=   -0.000446

     starting charge   29.51871, renormalised to   30.00000

     negative rho (up, down):  4.533E-04 0.000E+00
     Starting wfc are   29 randomized atomic wfcs

     total cpu time spent up to now is        5.2 secs

     Self-consistent Calculation

     iteration #  1     ecut=    30.00 Ry     beta=0.70
     Davidson diagonalization with overlap
     ethr =  1.00E-02,  avg # of iterations =  2.0

     negative rho (up, down):  1.360E-04 0.000E+00

     add environment contribution to local potential
     polarization accuracy = 8.1E-06, # of iterations =  13

     total cpu time spent up to now is       11.9 secs

     total energy              =     -82.24212427 Ry
     Harris-Foulkes estimate   =     -83.63778213 Ry
     estimated scf accuracy    <       2.07062237 Ry
     electrostatic embedding   =       0.00000000 Ry
     electrolyte free energy   =       0.01609534 Ry
     correction to one-el term =       0.00000000 Ry

     iteration #  2     ecut=    30.00 Ry     beta=0.70
     Davidson diagonalization with overlap
     ethr =  6.90E-03,  avg # of iterations =  3.0

     negative rho (up, down):  1.552E-04 0.000E+00

     add environment contribution to local potential
     polarization accuracy = 2.7E-06, # of iterations =  16

     total cpu time spent up to now is       19.3 secs

     total energy              =     -82.44656702 Ry
     Harris-Foulkes estimate   =     -82.81941425 Ry
     estimated scf accuracy    <       0.49833356 Ry
     electrostatic embedding   =      -0.02763079 Ry
     electrolyte free energy   =       0.01048040 Ry
     correction to one-el term =       0.06931546 Ry

     iteration #  3     ecut=    30.00 Ry     beta=0.70
     Davidson diagonalization with overlap
     ethr =  1.66E-03,  avg # of iterations =  4.0

     negative rho (up, down):  1.955E-04 0.000E+00

     add environment contribution to local potential
     polarization accuracy = 5.0E-06, # of iterations =  16

     total cpu time spent up to now is       26.5 secs

     total energy              =     -82.59348830 Ry
     Harris-Foulkes estimate   =     -83.25968899 Ry
     estimated scf accuracy    <       0.20655474 Ry
     electrostatic embedding   =      -0.02435297 Ry
     electrolyte free energy   =       0.00698445 Ry
     correction to one-el term =       0.58161275 Ry

     iteration #  4     ecut=    30.00 Ry     beta=0.70
     Davidson diagonalization with overlap
     ethr =  6.89E-04,  avg # of iterations =  4.0

     negative rho (up, down):  5.024E-05 0.000E+00

     add environment contribution to local potential
     polarization accuracy = 7.2E-06, # of iterations =  16

     total cpu time spent up to now is       33.6 secs

     total energy              =     -82.64359852 Ry
     Harris-Foulkes estimate   =     -83.44805649 Ry
     estimated scf accuracy    <       0.00853933 Ry
     electrostatic embedding   =      -0.01658382 Ry
     electrolyte free energy   =       0.00490522 Ry
     correction to one-el term =       0.81191743 Ry

     iteration #  5     ecut=    30.00 Ry     beta=0.70
     Davidson diagonalization with overlap
     ethr =  2.85E-05,  avg # of iterations =  4.0

     negative rho (up, down):  5.283E-05 0.000E+00

     add environment contribution to local potential
     polarization accuracy = 7.8E-06, # of iterations =  16

     total cpu time spent up to now is       40.6 secs

     total energy              =     -82.64626007 Ry
     Harris-Foulkes estimate   =     -83.60545937 Ry
     estimated scf accuracy    <       0.00114227 Ry
     electrostatic embedding   =      -0.01813242 Ry
     electrolyte free energy   =       0.00427885 Ry
     correction to one-el term =       0.97261290 Ry

     iteration #  6     ecut=    30.00 Ry     beta=0.70
     Davidson diagonalization with overlap
     ethr =  3.81E-06,  avg # of iterations =  3.0

     negative rho (up, down):  1.399E-04 0.000E+00

     total cpu time spent up to now is       43.5 secs

     End of self-consistent calculation

          k = 0.0000 0.0000 0.0000 ( 11060 PWs)   bands (ev):

   -23.2525 -19.6368 -18.8570 -15.3854 -15.2770 -12.8032 -11.6475 -11.1981
   -10.4394  -9.7795  -9.4586  -8.6848  -7.0458  -6.6427  -5.5802

     highest occupied level (ev):    -5.5802

!    total energy              =     -82.64651003 Ry
     Harris-Foulkes estimate   =     -83.64861581 Ry
     estimated scf accuracy    <       0.00009168 Ry

     The total energy is the sum of the following terms:

     one-electron contribution =    -292.45806899 Ry
     hartree contribution      =     149.42698444 Ry
     xc contribution           =     -25.97494201 Ry
     ewald contribution        =      85.35745671 Ry
     electrostatic embedding   =      -0.01804228 Ry
     electrolyte free energy   =       0.00415363 Ry
     correction to one-el term =       1.01594846 Ry

     convergence has been achieved in   6 iterations

     Forces acting on atoms (cartesian axes, Ry/au):

     atom    1 type  1   force =    -0.04652715    0.00000128    0.00000386
     atom    2 type  2   force =    -0.00612910   -0.06238318    0.00002607
     atom    3 type  2   force =     0.02094313    0.01704338   -0.00004607
     atom    4 type  2   force =     0.00624377   -0.00000367    0.00000560
     atom    5 type  2   force =     0.02095052   -0.01703345    0.00000646
     atom    6 type  2   force =    -0.00614530    0.06238327    0.00001162
     atom    7 type  3   force =     0.00205603    0.00190221    0.00000896
     atom    8 type  3   force =     0.00531102   -0.00373940   -0.00000833
     atom    9 type  3   force =    -0.00407313    0.00000306    0.00002912
     atom   10 type  3   force =     0.00531879    0.00372815   -0.00002498
     atom   11 type  3   force =     0.00205140   -0.00190163   -0.00001232

     Total force =     0.107876     Total SCF correction =     0.015662
     SCF correction compared to forces is large: reduce conv_thr to get better values

     Writing output data file pwscf.save

     init_run     :      4.70s CPU      5.10s WALL (       1 calls)
     electrons    :     35.26s CPU     38.37s WALL (       1 calls)
     forces       :      1.14s CPU      1.32s WALL (       1 calls)

     Called by init_run:
     wfcinit      :      0.15s CPU      0.15s WALL (       1 calls)
     potinit      :      2.36s CPU      2.46s WALL (       1 calls)

     Called by electrons:
     c_bands      :      1.47s CPU      1.41s WALL (       6 calls)
     sum_band     :      3.52s CPU      3.72s WALL (       6 calls)
     v_of_rho     :      4.46s CPU      4.77s WALL (       7 calls)
     newd         :      1.86s CPU      2.76s WALL (       7 calls)
     mix_rho      :      0.39s CPU      0.45s WALL (       6 calls)

     Called by c_bands:
     init_us_2    :      0.04s CPU      0.07s WALL (      13 calls)
     regterg      :      1.40s CPU      1.32s WALL (       6 calls)

     Called by sum_band:
     sum_band:bec :      0.00s CPU      0.00s WALL (       6 calls)
     addusdens    :      2.64s CPU      2.82s WALL (       6 calls)

     Called by *egterg:
     h_psi        :      1.31s CPU      1.26s WALL (      27 calls)
     s_psi        :      0.07s CPU      0.02s WALL (      27 calls)
     g_psi        :      0.01s CPU      0.01s WALL (      20 calls)
     rdiaghg      :      0.01s CPU      0.01s WALL (      26 calls)

     Called by h_psi:
     h_psi:pot    :      1.30s CPU      1.26s WALL (      27 calls)
     h_psi:calbec :      0.04s CPU      0.04s WALL (      27 calls)
     vloc_psi     :      1.19s CPU      1.19s WALL (      27 calls)
     add_vuspsi   :      0.07s CPU      0.02s WALL (      27 calls)

     General routines
     calbec       :      0.06s CPU      0.06s WALL (      37 calls)
     fft          :     11.89s CPU     11.90s WALL (     407 calls)
     ffts         :      0.06s CPU      0.07s WALL (      13 calls)
     fftw         :      1.11s CPU      1.11s WALL (     364 calls)
     interpolate  :      0.52s CPU      0.57s WALL (      13 calls)
     davcio       :      0.00s CPU      0.00s WALL (       1 calls)


     Environ routines
     calc_eelect  :      0.04s CPU      0.04s WALL (      12 calls)
     calc_velect  :     16.03s CPU     17.40s WALL (      10 calls)
     dielectric   :      0.34s CPU      0.42s WALL (       8 calls)
     electrolyte  :      0.03s CPU      0.04s WALL (       8 calls)
     calc_felect  :      0.22s CPU      0.23s WALL (       1 calls)

     PWSCF        :    41.21s CPU        45.00s WALL


   This run was terminated on:  14:51: 8   1Jan2018            

=------------------------------------------------------------------------------=
   JOB DONE.
=------------------------------------------------------------------------------=

%%%% IONS %%%%%%%%%%%%%%%%%%%%%%%%%%%%%%%%%%%%%%%%%%%%%%%%%%%%%%%%%%%%%%%%%%%%%%
 number of ions             =         11
 ionic center of charge     =      0.0072664     0.0000000     0.0001166
 total ionic charge         =    -30.0000000
 ionic dipole               =      0.0000000     0.0000000     0.0000000
 ionic quadrupole (pc)      =   -131.0719095  -146.7987094    -0.0000314
 ionic quadrupole (gauss)   =   -134.8219095  -150.5487094    -3.7500314
 ion   1 type =  1 coordinates =     -2.4454071     0.0000002     0.0030272
 ion   2 type =  2 coordinates =     -1.2331440     2.2473584     0.0020749
 ion   3 type =  2 coordinates =      1.3781229     2.2851921     0.0014627
 ion   4 type =  2 coordinates =      2.6939354     0.0000002     0.0013189
 ion   5 type =  2 coordinates =      1.3781232    -2.2851919     0.0026521
 ion   6 type =  2 coordinates =     -1.2331437    -2.2473574     0.0035464
 ion   7 type =  3 coordinates =     -2.4127312     3.9381412     0.0017094
 ion   8 type =  3 coordinates =      2.3590962     4.0987221     0.0008035
 ion   9 type =  3 coordinates =      4.7585861    -0.0000002     0.0000199
 ion  10 type =  3 coordinates =      2.3590968    -4.0987217     0.0032074
 ion  11 type =  3 coordinates =     -2.4127303    -3.9381403     0.0048805

%%%% SYSTEM %%%%%%%%%%%%%%%%%%%%%%%%%%%%%%%%%%%%%%%%%%%%%%%%%%%%%%%%%%%%%%%%%%%%
 system is built from all present ionic types
 system defined dimension   =  0 
 system defined axis        =  3 
 system center              =      0.0072664     0.0000000     0.0001166 
 system width               =      0.2348011 

%%%% ELECTRONS %%%%%%%%%%%%%%%%%%%%%%%%%%%%%%%%%%%%%%%%%%%%%%%%%%%%%%%%%%%%%%%%%
 number of electrons        =         30
 total electronic charge    =     30.0000000
 number of spin components  =  1

%%%% BOUNDARY %%%%%%%%%%%%%%%%%%%%%%%%%%%%%%%%%%%%%%%%%%%%%%%%%%%%%%%%%%%%%%%%%%
 boundary mode              = electronic           
 boundary is built as a function of a smooth density
 function type              =  2 
 using the modified SCCS function with parameters 
 rhomax                     =      0.0050000 
 rhomin                     =      0.0001000 
 volume of the QM region    =   2407.1059985 
 surface of the QM region   =    815.5587051 

%%%% DIELECTRIC %%%%%%%%%%%%%%%%%%%%%%%%%%%%%%%%%%%%%%%%%%%%%%%%%%%%%%%%%%%%%%%%%
 dielectric build on homogeneous background
 environment bulk permitt.  =     20.0000000 
 dielectric flags
 need gradient              =  F 
 need factor depend. sqrt   =  T 
 total dielectric charge    =      0.0000000

%%%% BOUNDARY %%%%%%%%%%%%%%%%%%%%%%%%%%%%%%%%%%%%%%%%%%%%%%%%%%%%%%%%%%%%%%%%%%
 boundary mode              = electronic           
 boundary is built as a function of a smooth density
 function type              =  2 
 using the modified SCCS function with parameters 
 rhomax                     =      0.0007000 
 rhomin                     =      0.0000150 
 volume of the QM region    =   5932.6916041 
 surface of the QM region   =   1117.5224416 

%%%% ELECTROLYTE %%%%%%%%%%%%%%%%%%%%%%%%%%%%%%%%%%%%%%%%%%%%%%%%%%%%%%%%%%%%%%%%
 number electrol. species   =    2
 solvent temperature        =   300.0
 Debye length / sqrt(eps)   =      0.2301070
 electrolyte species    1
 bulk concentration  (a.u.) =      0.7139E-03
 bulk concentration (mol/L) =      8.0000000
 ionic charge               =   -1.00
 electrolyte species    2
 bulk concentration  (a.u.) =      0.7139E-03
 bulk concentration (mol/L) =      8.0000000
 ionic charge               =    1.00
 electrolyte flags
 linearized                 =  T
 total electrolyte charge   =      0.0000000

%%%% ELECTRONS %%%%%%%%%%%%%%%%%%%%%%%%%%%%%%%%%%%%%%%%%%%%%%%%%%%%%%%%%%%%%%%%%
 number of electrons        =         30
 total electronic charge    =     30.0000000
 number of spin components  =  1

%%%% BOUNDARY %%%%%%%%%%%%%%%%%%%%%%%%%%%%%%%%%%%%%%%%%%%%%%%%%%%%%%%%%%%%%%%%%%
 boundary mode              = electronic           
 boundary is built as a function of a smooth density
 function type              =  2 
 using the modified SCCS function with parameters 
 rhomax                     =      0.0050000 
 rhomin                     =      0.0001000 
 volume of the QM region    =   1074.1872471 
 surface of the QM region   =    527.4241024 

%%%% DIELECTRIC %%%%%%%%%%%%%%%%%%%%%%%%%%%%%%%%%%%%%%%%%%%%%%%%%%%%%%%%%%%%%%%%%
 dielectric build on homogeneous background
 environment bulk permitt.  =     20.0000000 
 dielectric flags
 need gradient              =  F 
 need factor depend. sqrt   =  T 
 total dielectric charge    =      0.0000000

%%%% BOUNDARY %%%%%%%%%%%%%%%%%%%%%%%%%%%%%%%%%%%%%%%%%%%%%%%%%%%%%%%%%%%%%%%%%%
 boundary mode              = electronic           
 boundary is built as a function of a smooth density
 function type              =  2 
 using the modified SCCS function with parameters 
 rhomax                     =      0.0007000 
 rhomin                     =      0.0000150 
 volume of the QM region    =   3892.6005199 
 surface of the QM region   =   1002.4964145 

%%%% ELECTROLYTE %%%%%%%%%%%%%%%%%%%%%%%%%%%%%%%%%%%%%%%%%%%%%%%%%%%%%%%%%%%%%%%%
 number electrol. species   =    2
 solvent temperature        =   300.0
 Debye length / sqrt(eps)   =      0.2301070
 electrolyte species    1
 bulk concentration  (a.u.) =      0.7139E-03
 bulk concentration (mol/L) =      8.0000000
 ionic charge               =   -1.00
 electrolyte species    2
 bulk concentration  (a.u.) =      0.7139E-03
 bulk concentration (mol/L) =      8.0000000
 ionic charge               =    1.00
 electrolyte flags
 linearized                 =  T
 total electrolyte charge   =      0.0000000

%%%% COMPUTE ELECTROSTATIC POTENTIAL %%%%%%%%%%%%%%%%%%%%%%%%%%%%%%%%%%%%%%%%%%%
 Iteration #          1
  pAp =    123.24640331920928       rzold =    120.82064324098198       alpha =   0.98031780228146248     
 delta_qm =   0.113770E-01 delta_en =   0.223666E+03 tol =   0.100000E-04
 Iteration #          2
  pAp =    1831.8427256156183       rzold =    61.148655760976531       alpha =    3.3380952909276972E-002
 delta_qm =   0.340736E-02 delta_en =   0.200622E+02 tol =   0.100000E-04
 Iteration #          3
  pAp =    7.9773118525641893       rzold =    1.1891076159299463       alpha =   0.14906119227966813     
 delta_qm =   0.103088E-02 delta_en =   0.183635E+01 tol =   0.100000E-04
 Iteration #          4
  pAp =   0.30311985516771306       rzold =    6.3986245741292747E-002  alpha =   0.21109222853742068     
 delta_qm =   0.538328E-03 delta_en =   0.500769E+00 tol =   0.100000E-04
 Iteration #          5
  pAp =   0.26528921580991605       rzold =    2.8922369755767278E-002  alpha =   0.10902203343422229     
 delta_qm =   0.267711E-03 delta_en =   0.123844E+00 tol =   0.100000E-04
 Iteration #          6
  pAp =    8.0541976413324740E-003  rzold =    2.1864681874167805E-003  alpha =   0.27146939829192651     
 delta_qm =   0.127041E-03 delta_en =   0.278887E-01 tol =   0.100000E-04
 Iteration #          7
  pAp =    3.9831421995570656E-003  rzold =    4.5812733287111274E-004  alpha =   0.11501656479200204     
 delta_qm =   0.991326E-04 delta_en =   0.169815E-01 tol =   0.100000E-04
 Iteration #          8
  pAp =    5.0796323283568818E-004  rzold =    1.6021146449219078E-004  alpha =   0.31539972607429773     
 delta_qm =   0.457873E-04 delta_en =   0.362271E-02 tol =   0.100000E-04
 Iteration #          9
  pAp =    1.1771322051067233E-004  rzold =    3.2502258465855491E-005  alpha =   0.27611391757741188     
 delta_qm =   0.256109E-04 delta_en =   0.113343E-02 tol =   0.100000E-04
 Iteration #         10
  pAp =    7.8194264141496196E-005  rzold =    1.6541540020463218E-005  alpha =   0.21154416122556668     
 delta_qm =   0.122148E-04 delta_en =   0.257821E-03 tol =   0.100000E-04
 Iteration #         11
  pAp =    5.0101016435834878E-005  rzold =    6.0696619823738016E-006  alpha =   0.12114847989456079     
 delta_qm =   0.814419E-05 delta_en =   0.114615E-03 tol =   0.100000E-04
 Iteration #         12
  pAp =    2.9896731511090835E-006  rzold =    1.1065573131604342E-006  alpha =   0.37012651792719647     
 delta_qm =   0.431628E-05 delta_en =   0.321931E-04 tol =   0.100000E-04
 Iteration #         13
  pAp =    3.0704837195538107E-007  rzold =    1.9015942948971485E-007  alpha =   0.61931424120153933     
 delta_qm =   0.216060E-05 delta_en =   0.806666E-05 tol =   0.100000E-04
 Charges are converged, EXIT

%%%% ELECTRONS %%%%%%%%%%%%%%%%%%%%%%%%%%%%%%%%%%%%%%%%%%%%%%%%%%%%%%%%%%%%%%%%%
 number of electrons        =         30
 total electronic charge    =     30.0000000
 number of spin components  =  1

%%%% BOUNDARY %%%%%%%%%%%%%%%%%%%%%%%%%%%%%%%%%%%%%%%%%%%%%%%%%%%%%%%%%%%%%%%%%%
 boundary mode              = electronic           
 boundary is built as a function of a smooth density
 function type              =  2 
 using the modified SCCS function with parameters 
 rhomax                     =      0.0050000 
 rhomin                     =      0.0001000 
 volume of the QM region    =   1022.9671650 
 surface of the QM region   =    515.5807441 

%%%% DIELECTRIC %%%%%%%%%%%%%%%%%%%%%%%%%%%%%%%%%%%%%%%%%%%%%%%%%%%%%%%%%%%%%%%%%
 dielectric build on homogeneous background
 environment bulk permitt.  =     20.0000000 
 dielectric flags
 need gradient              =  F 
 need factor depend. sqrt   =  T 
 total dielectric charge    =      0.0037321

%%%% BOUNDARY %%%%%%%%%%%%%%%%%%%%%%%%%%%%%%%%%%%%%%%%%%%%%%%%%%%%%%%%%%%%%%%%%%
 boundary mode              = electronic           
 boundary is built as a function of a smooth density
 function type              =  2 
 using the modified SCCS function with parameters 
 rhomax                     =      0.0007000 
 rhomin                     =      0.0000150 
 volume of the QM region    =   2617.1081385 
 surface of the QM region   =    874.0878946 

%%%% ELECTROLYTE %%%%%%%%%%%%%%%%%%%%%%%%%%%%%%%%%%%%%%%%%%%%%%%%%%%%%%%%%%%%%%%%
 number electrol. species   =    2
 solvent temperature        =   300.0
 Debye length / sqrt(eps)   =      0.2301070
 electrolyte species    1
 bulk concentration  (a.u.) =      0.7139E-03
 bulk concentration (mol/L) =      8.0000000
 ionic charge               =   -1.00
 electrolyte species    2
 bulk concentration  (a.u.) =      0.7139E-03
 bulk concentration (mol/L) =      8.0000000
 ionic charge               =    1.00
 electrolyte flags
 linearized                 =  T
 total electrolyte charge   =     -0.0041902

%%%% COMPUTE ELECTROSTATIC POTENTIAL %%%%%%%%%%%%%%%%%%%%%%%%%%%%%%%%%%%%%%%%%%%
 Warning: bad guess with residual norm =   0.199883E+03, reset to no guess
 Iteration #          1
  pAp =    124.05083431053542       rzold =    122.29901129449541       alpha =   0.98587818432841268     
 delta_qm =   0.106591E-01 delta_en =   0.196330E+03 tol =   0.100000E-04
 Iteration #          2
  pAp =    2136.1009953998564       rzold =    55.393595243183249       alpha =    2.5932104971850421E-002
 delta_qm =   0.350158E-02 delta_en =   0.211871E+02 tol =   0.100000E-04
 Iteration #          3
  pAp =    15.313570640988239       rzold =    1.4869894767934375       alpha =    9.7102727486257701E-002
 delta_qm =   0.185052E-02 delta_en =   0.591740E+01 tol =   0.100000E-04
 Iteration #          4
  pAp =    2.9494514472869073       rzold =   0.34264278697634798       alpha =   0.11617169941601600     
 delta_qm =   0.795402E-03 delta_en =   0.109324E+01 tol =   0.100000E-04
 Iteration #          5
  pAp =   0.24792899748246983       rzold =    4.2275895539832450E-002  alpha =   0.17051613957670131     
 delta_qm =   0.306781E-03 delta_en =   0.162630E+00 tol =   0.100000E-04
 Iteration #          6
  pAp =    1.5792862207407186E-002  rzold =    3.4664728099201973E-003  alpha =   0.21949617266301152     
 delta_qm =   0.159154E-03 delta_en =   0.437700E-01 tol =   0.100000E-04
 Iteration #          7
  pAp =    3.9607209538433863E-003  rzold =    7.2879938248202752E-004  alpha =   0.18400674800753597     
 delta_qm =   0.105262E-03 delta_en =   0.191463E-01 tol =   0.100000E-04
 Iteration #          8
  pAp =    8.5109895798614538E-004  rzold =    1.6433791924669466E-004  alpha =   0.19308908524050836     
 delta_qm =   0.753059E-04 delta_en =   0.979946E-02 tol =   0.100000E-04
 Iteration #          9
  pAp =    1.1562075196334181E-003  rzold =    1.6492803311793773E-004  alpha =   0.14264570184617814     
 delta_qm =   0.414018E-04 delta_en =   0.296198E-02 tol =   0.100000E-04
 Iteration #         10
  pAp =    8.0380014928581794E-005  rzold =    2.4802809525684501E-005  alpha =   0.30856935704381205     
 delta_qm =   0.183232E-04 delta_en =   0.580156E-03 tol =   0.100000E-04
 Iteration #         11
  pAp =    9.8254599514379680E-005  rzold =    1.0847395868636482E-005  alpha =   0.11040089646947218     
 delta_qm =   0.131601E-04 delta_en =   0.299269E-03 tol =   0.100000E-04
 Iteration #         12
  pAp =    2.2536599298228314E-005  rzold =    3.6134443681226356E-006  alpha =   0.16033671807825511     
 delta_qm =   0.946541E-05 delta_en =   0.154818E-03 tol =   0.100000E-04
 Iteration #         13
  pAp =    6.0411102794235726E-006  rzold =    1.3888092388048416E-006  alpha =   0.22989304524620569     
 delta_qm =   0.566059E-05 delta_en =   0.553691E-04 tol =   0.100000E-04
 Iteration #         14
  pAp =    5.6805901930767901E-007  rzold =    2.2572851624232005E-007  alpha =   0.39736807016536119     
 delta_qm =   0.323220E-05 delta_en =   0.180526E-04 tol =   0.100000E-04
 Iteration #         15
  pAp =    1.9616201869962664E-005  rzold =    6.6725164359406833E-007  alpha =    3.4015333244291207E-002
 delta_qm =   0.295140E-05 delta_en =   0.150522E-04 tol =   0.100000E-04
 Iteration #         16
  pAp =    1.8516025993355878E-007  rzold =    8.2730823903811096E-008  alpha =   0.44680658762035369     
 delta_qm =   0.124882E-05 delta_en =   0.269492E-05 tol =   0.100000E-04
 Charges are converged, EXIT

%%%% ELECTRONS %%%%%%%%%%%%%%%%%%%%%%%%%%%%%%%%%%%%%%%%%%%%%%%%%%%%%%%%%%%%%%%%%
 number of electrons        =         30
 total electronic charge    =     30.0000000
 number of spin components  =  1

%%%% BOUNDARY %%%%%%%%%%%%%%%%%%%%%%%%%%%%%%%%%%%%%%%%%%%%%%%%%%%%%%%%%%%%%%%%%%
 boundary mode              = electronic           
 boundary is built as a function of a smooth density
 function type              =  2 
 using the modified SCCS function with parameters 
 rhomax                     =      0.0050000 
 rhomin                     =      0.0001000 
 volume of the QM region    =    990.3002216 
 surface of the QM region   =    507.9804762 

%%%% DIELECTRIC %%%%%%%%%%%%%%%%%%%%%%%%%%%%%%%%%%%%%%%%%%%%%%%%%%%%%%%%%%%%%%%%%
 dielectric build on homogeneous background
 environment bulk permitt.  =     20.0000000 
 dielectric flags
 need gradient              =  F 
 need factor depend. sqrt   =  T 
 total dielectric charge    =      0.0012712

%%%% BOUNDARY %%%%%%%%%%%%%%%%%%%%%%%%%%%%%%%%%%%%%%%%%%%%%%%%%%%%%%%%%%%%%%%%%%
 boundary mode              = electronic           
 boundary is built as a function of a smooth density
 function type              =  2 
 using the modified SCCS function with parameters 
 rhomax                     =      0.0007000 
 rhomin                     =      0.0000150 
 volume of the QM region    =   1838.5600856 
 surface of the QM region   =    752.9739281 

%%%% ELECTROLYTE %%%%%%%%%%%%%%%%%%%%%%%%%%%%%%%%%%%%%%%%%%%%%%%%%%%%%%%%%%%%%%%%
 number electrol. species   =    2
 solvent temperature        =   300.0
 Debye length / sqrt(eps)   =      0.2301070
 electrolyte species    1
 bulk concentration  (a.u.) =      0.7139E-03
 bulk concentration (mol/L) =      8.0000000
 ionic charge               =   -1.00
 electrolyte species    2
 bulk concentration  (a.u.) =      0.7139E-03
 bulk concentration (mol/L) =      8.0000000
 ionic charge               =    1.00
 electrolyte flags
 linearized                 =  T
 total electrolyte charge   =     -0.0013598

%%%% COMPUTE ELECTROSTATIC POTENTIAL %%%%%%%%%%%%%%%%%%%%%%%%%%%%%%%%%%%%%%%%%%%
 Warning: bad guess with residual norm =   0.171262E+03, reset to no guess
 Iteration #          1
  pAp =    124.04531420266217       rzold =    122.82011143953871       alpha =   0.99012294199906858     
 delta_qm =   0.988674E-02 delta_en =   0.168908E+03 tol =   0.100000E-04
 Iteration #          2
  pAp =    2086.2580804673307       rzold =    46.295687616717260       alpha =    2.2190776898679203E-002
 delta_qm =   0.304102E-02 delta_en =   0.159802E+02 tol =   0.100000E-04
 Iteration #          3
  pAp =    10.418293980011530       rzold =   0.97427714837145041       alpha =    9.3515996979994243E-002
 delta_qm =   0.157661E-02 delta_en =   0.429529E+01 tol =   0.100000E-04
 Iteration #          4
  pAp =    2.2316671831277533       rzold =   0.23690963048713681       alpha =   0.10615813696516357     
 delta_qm =   0.792843E-03 delta_en =   0.108622E+01 tol =   0.100000E-04
 Iteration #          5
  pAp =   0.25862202993109873       rzold =    4.1217299965334735E-002  alpha =   0.15937273393266504     
 delta_qm =   0.326670E-03 delta_en =   0.184401E+00 tol =   0.100000E-04
 Iteration #          6
  pAp =    2.2008579119603813E-002  rzold =    4.2648660182032453E-003  alpha =   0.19378197906489927     
 delta_qm =   0.163429E-03 delta_en =   0.461530E-01 tol =   0.100000E-04
 Iteration #          7
  pAp =    3.9637427231384841E-003  rzold =    7.3361963968366674E-004  alpha =   0.18508255730149611     
 delta_qm =   0.107760E-03 delta_en =   0.200661E-01 tol =   0.100000E-04
 Iteration #          8
  pAp =    3.8590773218836203E-004  rzold =    1.2801006128286403E-004  alpha =   0.33171157405154600     
 delta_qm =   0.573116E-04 delta_en =   0.567582E-02 tol =   0.100000E-04
 Iteration #          9
  pAp =    1.0513258047881032E-003  rzold =    9.4020854634431717E-005  alpha =    8.9430749446297295E-002
 delta_qm =   0.414584E-04 delta_en =   0.297008E-02 tol =   0.100000E-04
 Iteration #         10
  pAp =    1.0880313994626594E-004  rzold =    2.5791881096176479E-005  alpha =   0.23705088942207170     
 delta_qm =   0.214112E-04 delta_en =   0.792187E-03 tol =   0.100000E-04
 Iteration #         11
  pAp =    7.0630606259119573E-005  rzold =    1.1687236741461587E-005  alpha =   0.16546986300223882     
 delta_qm =   0.126305E-04 delta_en =   0.275665E-03 tol =   0.100000E-04
 Iteration #         12
  pAp =    6.5552976729358280E-006  rzold =    1.8263508571022628E-006  alpha =   0.27860685330012191     
 delta_qm =   0.751564E-05 delta_en =   0.976059E-04 tol =   0.100000E-04
 Iteration #         13
  pAp =    1.4419519062047933E-005  rzold =    1.2204974913460980E-006  alpha =    8.4642038759700264E-002
 delta_qm =   0.609719E-05 delta_en =   0.642397E-04 tol =   0.100000E-04
 Iteration #         14
  pAp =    1.1369577019615815E-006  rzold =    2.7655071185454990E-007  alpha =   0.24323746730192317     
 delta_qm =   0.404468E-05 delta_en =   0.282691E-04 tol =   0.100000E-04
 Iteration #         15
  pAp =    2.6251603693244245E-005  rzold =    8.8277801261894467E-007  alpha =    3.3627584163405770E-002
 delta_qm =   0.366686E-05 delta_en =   0.232344E-04 tol =   0.100000E-04
 Iteration #         16
  pAp =    2.3899473609989073E-007  rzold =    1.0020895959338937E-007  alpha =   0.41929358457294991     
 delta_qm =   0.169771E-05 delta_en =   0.498046E-05 tol =   0.100000E-04
 Charges are converged, EXIT

%%%% ELECTRONS %%%%%%%%%%%%%%%%%%%%%%%%%%%%%%%%%%%%%%%%%%%%%%%%%%%%%%%%%%%%%%%%%
 number of electrons        =         30
 total electronic charge    =     30.0000000
 number of spin components  =  1

%%%% BOUNDARY %%%%%%%%%%%%%%%%%%%%%%%%%%%%%%%%%%%%%%%%%%%%%%%%%%%%%%%%%%%%%%%%%%
 boundary mode              = electronic           
 boundary is built as a function of a smooth density
 function type              =  2 
 using the modified SCCS function with parameters 
 rhomax                     =      0.0050000 
 rhomin                     =      0.0001000 
 volume of the QM region    =    970.6215833 
 surface of the QM region   =    503.1879885 

%%%% DIELECTRIC %%%%%%%%%%%%%%%%%%%%%%%%%%%%%%%%%%%%%%%%%%%%%%%%%%%%%%%%%%%%%%%%%
 dielectric build on homogeneous background
 environment bulk permitt.  =     20.0000000 
 dielectric flags
 need gradient              =  F 
 need factor depend. sqrt   =  T 
 total dielectric charge    =     -0.0001115

%%%% BOUNDARY %%%%%%%%%%%%%%%%%%%%%%%%%%%%%%%%%%%%%%%%%%%%%%%%%%%%%%%%%%%%%%%%%%
 boundary mode              = electronic           
 boundary is built as a function of a smooth density
 function type              =  2 
 using the modified SCCS function with parameters 
 rhomax                     =      0.0007000 
 rhomin                     =      0.0000150 
 volume of the QM region    =   1613.9132981 
 surface of the QM region   =    689.3611059 

%%%% ELECTROLYTE %%%%%%%%%%%%%%%%%%%%%%%%%%%%%%%%%%%%%%%%%%%%%%%%%%%%%%%%%%%%%%%%
 number electrol. species   =    2
 solvent temperature        =   300.0
 Debye length / sqrt(eps)   =      0.2301070
 electrolyte species    1
 bulk concentration  (a.u.) =      0.7139E-03
 bulk concentration (mol/L) =      8.0000000
 ionic charge               =   -1.00
 electrolyte species    2
 bulk concentration  (a.u.) =      0.7139E-03
 bulk concentration (mol/L) =      8.0000000
 ionic charge               =    1.00
 electrolyte flags
 linearized                 =  T
 total electrolyte charge   =      0.0000559

%%%% COMPUTE ELECTROSTATIC POTENTIAL %%%%%%%%%%%%%%%%%%%%%%%%%%%%%%%%%%%%%%%%%%%
 Warning: bad guess with residual norm =   0.150075E+03, reset to no guess
 Iteration #          1
  pAp =    123.58784457959892       rzold =    122.59277903711359       alpha =   0.99194851608691625     
 delta_qm =   0.926531E-02 delta_en =   0.148342E+03 tol =   0.100000E-04
 Iteration #          2
  pAp =    1746.6778765126585       rzold =    37.391490704787991       alpha =    2.1407204618313608E-002
 delta_qm =   0.323712E-02 delta_en =   0.181077E+02 tol =   0.100000E-04
 Iteration #          3
  pAp =    12.980705174351991       rzold =    1.0976708811911962       alpha =    8.4561729616973058E-002
 delta_qm =   0.169258E-02 delta_en =   0.495042E+01 tol =   0.100000E-04
 Iteration #          4
  pAp =    2.2667621284101735       rzold =   0.25457782691955605       alpha =   0.11230901722277666     
 delta_qm =   0.843106E-03 delta_en =   0.122831E+01 tol =   0.100000E-04
 Iteration #          5
  pAp =   0.30839937637792203       rzold =    4.7080683502706507E-002  alpha =   0.15266140955166005     
 delta_qm =   0.346131E-03 delta_en =   0.207025E+00 tol =   0.100000E-04
 Iteration #          6
  pAp =    2.2855143396475441E-002  rzold =    4.5392205283034904E-003  alpha =   0.19860827165072598     
 delta_qm =   0.164501E-03 delta_en =   0.467609E-01 tol =   0.100000E-04
 Iteration #          7
  pAp =    3.7064095980352805E-003  rzold =    6.8208563105486215E-004  alpha =   0.18402867060791847     
 delta_qm =   0.114562E-03 delta_en =   0.226791E-01 tol =   0.100000E-04
 Iteration #          8
  pAp =    4.4754116788705395E-004  rzold =    1.4571422484033444E-004  alpha =   0.32558842693351592     
 delta_qm =   0.575688E-04 delta_en =   0.572689E-02 tol =   0.100000E-04
 Iteration #          9
  pAp =    8.7177722179608303E-004  rzold =    7.8944710827568093E-005  alpha =    9.0556060486326875E-002
 delta_qm =   0.435903E-04 delta_en =   0.328340E-02 tol =   0.100000E-04
 Iteration #         10
  pAp =    1.1906831883919264E-004  rzold =    2.9204000866813799E-005  alpha =   0.24527095999612772     
 delta_qm =   0.209758E-04 delta_en =   0.760291E-03 tol =   0.100000E-04
 Iteration #         11
  pAp =    6.4727863141748659E-005  rzold =    9.9668992234353958E-006  alpha =   0.15398158906634554     
 delta_qm =   0.140524E-04 delta_en =   0.341226E-03 tol =   0.100000E-04
 Iteration #         12
  pAp =    6.9270169926812505E-006  rzold =    2.0956612000465720E-006  alpha =   0.30253443903208926     
 delta_qm =   0.751894E-05 delta_en =   0.976915E-04 tol =   0.100000E-04
 Iteration #         13
  pAp =    1.1466293468546055E-006  rzold =    3.5442282556405983E-007  alpha =   0.30909973352443876     
 delta_qm =   0.518335E-05 delta_en =   0.464263E-04 tol =   0.100000E-04
 Iteration #         14
  pAp =    4.7649449642217320E-006  rzold =    3.8330483280750118E-007  alpha =    8.0442656879691182E-002
 delta_qm =   0.456098E-05 delta_en =   0.359469E-04 tol =   0.100000E-04
 Iteration #         15
  pAp =    6.5503930494585011E-006  rzold =    2.8621521867412874E-007  alpha =    4.3694357958838699E-002
 delta_qm =   0.385851E-05 delta_en =   0.257266E-04 tol =   0.100000E-04
 Iteration #         16
  pAp =    9.9990069271231926E-007  rzold =    1.9997624626645569E-007  alpha =   0.19999610733742207     
 delta_qm =   0.204686E-05 delta_en =   0.723968E-05 tol =   0.100000E-04
 Charges are converged, EXIT

%%%% ELECTRONS %%%%%%%%%%%%%%%%%%%%%%%%%%%%%%%%%%%%%%%%%%%%%%%%%%%%%%%%%%%%%%%%%
 number of electrons        =         30
 total electronic charge    =     30.0000000
 number of spin components  =  1

%%%% BOUNDARY %%%%%%%%%%%%%%%%%%%%%%%%%%%%%%%%%%%%%%%%%%%%%%%%%%%%%%%%%%%%%%%%%%
 boundary mode              = electronic           
 boundary is built as a function of a smooth density
 function type              =  2 
 using the modified SCCS function with parameters 
 rhomax                     =      0.0050000 
 rhomin                     =      0.0001000 
 volume of the QM region    =    968.3195714 
 surface of the QM region   =    502.9937331 

%%%% DIELECTRIC %%%%%%%%%%%%%%%%%%%%%%%%%%%%%%%%%%%%%%%%%%%%%%%%%%%%%%%%%%%%%%%%%
 dielectric build on homogeneous background
 environment bulk permitt.  =     20.0000000 
 dielectric flags
 need gradient              =  F 
 need factor depend. sqrt   =  T 
 total dielectric charge    =      0.0001229

%%%% BOUNDARY %%%%%%%%%%%%%%%%%%%%%%%%%%%%%%%%%%%%%%%%%%%%%%%%%%%%%%%%%%%%%%%%%%
 boundary mode              = electronic           
 boundary is built as a function of a smooth density
 function type              =  2 
 using the modified SCCS function with parameters 
 rhomax                     =      0.0007000 
 rhomin                     =      0.0000150 
 volume of the QM region    =   1568.2696901 
 surface of the QM region   =    678.2001074 

%%%% ELECTROLYTE %%%%%%%%%%%%%%%%%%%%%%%%%%%%%%%%%%%%%%%%%%%%%%%%%%%%%%%%%%%%%%%%
 number electrol. species   =    2
 solvent temperature        =   300.0
 Debye length / sqrt(eps)   =      0.2301070
 electrolyte species    1
 bulk concentration  (a.u.) =      0.7139E-03
 bulk concentration (mol/L) =      8.0000000
 ionic charge               =   -1.00
 electrolyte species    2
 bulk concentration  (a.u.) =      0.7139E-03
 bulk concentration (mol/L) =      8.0000000
 ionic charge               =    1.00
 electrolyte flags
 linearized                 =  T
 total electrolyte charge   =     -0.0002067

%%%% COMPUTE ELECTROSTATIC POTENTIAL %%%%%%%%%%%%%%%%%%%%%%%%%%%%%%%%%%%%%%%%%%%
 Warning: bad guess with residual norm =   0.141963E+03, reset to no guess
 Iteration #          1
  pAp =    123.63748873623342       rzold =    122.71620724738411       alpha =   0.99254852635502189     
 delta_qm =   0.901494E-02 delta_en =   0.140433E+03 tol =   0.100000E-04
 Iteration #          2
  pAp =    1614.8737705796514       rzold =    34.356483444205445       alpha =    2.1275027231306969E-002
 delta_qm =   0.326424E-02 delta_en =   0.184123E+02 tol =   0.100000E-04
 Iteration #          3
  pAp =    13.726588388615928       rzold =    1.1228626564224531       alpha =    8.1802019892553424E-002
 delta_qm =   0.170520E-02 delta_en =   0.502452E+01 tol =   0.100000E-04
 Iteration #          4
  pAp =    2.2116664486763988       rzold =   0.25320110023399206       alpha =   0.11448430679297215     
 delta_qm =   0.838886E-03 delta_en =   0.121605E+01 tol =   0.100000E-04
 Iteration #          5
  pAp =   0.30708981366792476       rzold =    4.6453349613391523E-002  alpha =   0.15126958806788821     
 delta_qm =   0.347280E-03 delta_en =   0.208403E+00 tol =   0.100000E-04
 Iteration #          6
  pAp =    2.2099260272424329E-002  rzold =    4.4507704145029438E-003  alpha =   0.20139906764466042     
 delta_qm =   0.163222E-03 delta_en =   0.460363E-01 tol =   0.100000E-04
 Iteration #          7
  pAp =    3.5309556355289777E-003  rzold =    6.5091183717749671E-004  alpha =   0.18434438275800727     
 delta_qm =   0.115329E-03 delta_en =   0.229837E-01 tol =   0.100000E-04
 Iteration #          8
  pAp =    4.7917932805496556E-004  rzold =    1.4941118398258452E-004  alpha =   0.31180640573344165     
 delta_qm =   0.589468E-04 delta_en =   0.600432E-02 tol =   0.100000E-04
 Iteration #          9
  pAp =    1.0070419306630681E-003  rzold =    8.7491375877778833E-005  alpha =    8.6879575928056701E-002
 delta_qm =   0.443607E-04 delta_en =   0.340048E-02 tol =   0.100000E-04
 Iteration #         10
  pAp =    1.0675692234211458E-004  rzold =    2.8132642858917501E-005  alpha =   0.26352054969103811     
 delta_qm =   0.208593E-04 delta_en =   0.751874E-03 tol =   0.100000E-04
 Iteration #         11
  pAp =    5.9795934163137049E-005  rzold =    9.2521429429332796E-006  alpha =   0.15472862950332555     
 delta_qm =   0.142784E-04 delta_en =   0.352291E-03 tol =   0.100000E-04
 Iteration #         12
  pAp =    7.2822862233054488E-006  rzold =    2.1442449820435405E-006  alpha =   0.29444667736092667     
 delta_qm =   0.767856E-05 delta_en =   0.101883E-03 tol =   0.100000E-04
 Iteration #         13
  pAp =    1.3705993989571131E-006  rzold =    3.6209508909987505E-007  alpha =   0.26418739813791881     
 delta_qm =   0.594595E-05 delta_en =   0.610923E-04 tol =   0.100000E-04
 Iteration #         14
  pAp =    1.8937415461698510E-005  rzold =    7.4480059567988909E-007  alpha =    3.9329579962285276E-002
 delta_qm =   0.482174E-05 delta_en =   0.401746E-04 tol =   0.100000E-04
 Iteration #         15
  pAp =    5.2752861106365045E-006  rzold =    3.6457240669688453E-007  alpha =    6.9109504025156282E-002
 delta_qm =   0.419799E-05 delta_en =   0.304527E-04 tol =   0.100000E-04
 Iteration #         16
  pAp =    4.9145945305615782E-007  rzold =    1.4315424324866798E-007  alpha =   0.29128393473451025     
 delta_qm =   0.212721E-05 delta_en =   0.781923E-05 tol =   0.100000E-04
 Charges are converged, EXIT

%%%% ELECTRONS %%%%%%%%%%%%%%%%%%%%%%%%%%%%%%%%%%%%%%%%%%%%%%%%%%%%%%%%%%%%%%%%%
 number of electrons        =         30
 total electronic charge    =     30.0000000
 number of spin components  =  1

%%%% BOUNDARY %%%%%%%%%%%%%%%%%%%%%%%%%%%%%%%%%%%%%%%%%%%%%%%%%%%%%%%%%%%%%%%%%%
 boundary mode              = electronic           
 boundary is built as a function of a smooth density
 function type              =  2 
 using the modified SCCS function with parameters 
 rhomax                     =      0.0050000 
 rhomin                     =      0.0001000 
 volume of the QM region    =    968.3195714 
 surface of the QM region   =    502.9937331 

%%%% DIELECTRIC %%%%%%%%%%%%%%%%%%%%%%%%%%%%%%%%%%%%%%%%%%%%%%%%%%%%%%%%%%%%%%%%%
 dielectric build on homogeneous background
 environment bulk permitt.  =     20.0000000 
 dielectric flags
 need gradient              =  F 
 need factor depend. sqrt   =  T 
 total dielectric charge    =      0.0000526

%%%% BOUNDARY %%%%%%%%%%%%%%%%%%%%%%%%%%%%%%%%%%%%%%%%%%%%%%%%%%%%%%%%%%%%%%%%%%
 boundary mode              = electronic           
 boundary is built as a function of a smooth density
 function type              =  2 
 using the modified SCCS function with parameters 
 rhomax                     =      0.0007000 
 rhomin                     =      0.0000150 
 volume of the QM region    =   1568.2696901 
 surface of the QM region   =    678.2001074 

%%%% ELECTROLYTE %%%%%%%%%%%%%%%%%%%%%%%%%%%%%%%%%%%%%%%%%%%%%%%%%%%%%%%%%%%%%%%%
 number electrol. species   =    2
 solvent temperature        =   300.0
 Debye length / sqrt(eps)   =      0.2301070
 electrolyte species    1
 bulk concentration  (a.u.) =      0.7139E-03
 bulk concentration (mol/L) =      8.0000000
 ionic charge               =   -1.00
 electrolyte species    2
 bulk concentration  (a.u.) =      0.7139E-03
 bulk concentration (mol/L) =      8.0000000
 ionic charge               =    1.00
 electrolyte flags
 linearized                 =  T
 total electrolyte charge   =     -0.0001360
