
     Program PWSCF v.6.1 (svn rev. 13369) starts on 15Dec2017 at 11: 8:19 

     This program is part of the open-source Quantum ESPRESSO suite
     for quantum simulation of materials; please cite
         "P. Giannozzi et al., J. Phys.:Condens. Matter 21 395502 (2009);
          URL http://www.quantum-espresso.org", 
     in publications or presentations arising from this work. More details at
     http://www.quantum-espresso.org/quote

     Parallel version (MPI), running on     1 processors
     Reading input from pw.in

     Current dimensions of program PWSCF are:
     Max number of different atomic species (ntypx) = 10
     Max number of k-points (npk) =  40000
     Max angular momentum in pseudopotentials (lmaxx) =  3
               file N.pbe-rrkjus.UPF: wavefunction(s)  2S renormalized
               file C.pbe-rrkjus.UPF: wavefunction(s)  2S 2P renormalized
               file H.pbe-rrkjus.UPF: wavefunction(s)  1S renormalized

     gamma-point specific algorithms are used

     Subspace diagonalization in iterative solution of the eigenvalue problem:
     a serial algorithm will be used

 
     G-vector sticks info
     --------------------
     sticks:   dense  smooth     PW     G-vecs:    dense   smooth      PW
     Sum        9549    3809    949               701475   177509   22119
 


     bravais-lattice index     =            1
     lattice parameter (alat)  =      20.0000  a.u.
     unit-cell volume          =    8000.0000 (a.u.)^3
     number of atoms/cell      =           11
     number of atomic types    =            3
     number of electrons       =        30.00
     number of Kohn-Sham states=           15
     kinetic-energy cutoff     =      30.0000  Ry
     charge density cutoff     =     300.0000  Ry
     convergence threshold     =      5.0E-04
     mixing beta               =       0.7000
     number of iterations used =            8  plain     mixing
     Exchange-correlation      =  SLA  PW   PBE  PBE ( 1  4  3  4 0 0)
 

     Environ Module
     ==============

     Plese cite
         O. Andreussi, I. Dabo and N. Marzari, J. Chem. Phys. 136, 064102 (2012)         
     in publications or presentations arising from this work.

     compensation onset threshold      =               0.1000E+03 
     static permittivity               =                    20.00 
     epsilon calculation mode          =               electronic 

     Electrostatic Setup
     -------------------
     electrostatic problem to solve    = linmodpb                 
     numerical solver adopted          = cg                       
     type of auxiliary density adopted = none                     
     type of core tool for poisson     = fft                      
     type of core tool for s(r) deriv  = analytic                 



     celldm(1)=  20.000000  celldm(2)=   0.000000  celldm(3)=   0.000000
     celldm(4)=   0.000000  celldm(5)=   0.000000  celldm(6)=   0.000000

     crystal axes: (cart. coord. in units of alat)
               a(1) = (   1.000000   0.000000   0.000000 )  
               a(2) = (   0.000000   1.000000   0.000000 )  
               a(3) = (   0.000000   0.000000   1.000000 )  

     reciprocal axes: (cart. coord. in units 2 pi/alat)
               b(1) = (  1.000000  0.000000  0.000000 )  
               b(2) = (  0.000000  1.000000  0.000000 )  
               b(3) = (  0.000000  0.000000  1.000000 )  


     PseudoPot. # 1 for N  read from file:
     /home/fnattino/Programs/qe-6.1/Environ/tests/../..//pseudo/N.pbe-rrkjus.UPF
     MD5 check sum: 0c3fbe5807a93f9ba59d5a7019aa238b
     Pseudo is Ultrasoft, Zval =  5.0
     Generated by new atomic code, or converted to UPF format
     Using radial grid of 1257 points,  4 beta functions with: 
                l(1) =   0
                l(2) =   0
                l(3) =   1
                l(4) =   1
     Q(r) pseudized with 0 coefficients 


     PseudoPot. # 2 for C  read from file:
     /home/fnattino/Programs/qe-6.1/Environ/tests/../..//pseudo/C.pbe-rrkjus.UPF
     MD5 check sum: 00fb224312de0c5b6853bd333518df6f
     Pseudo is Ultrasoft, Zval =  4.0
     Generated by new atomic code, or converted to UPF format
     Using radial grid of  627 points,  4 beta functions with: 
                l(1) =   0
                l(2) =   0
                l(3) =   1
                l(4) =   1
     Q(r) pseudized with 0 coefficients 


     PseudoPot. # 3 for H  read from file:
     /home/fnattino/Programs/qe-6.1/Environ/tests/../..//pseudo/H.pbe-rrkjus.UPF
     MD5 check sum: 7cc9d459525c9a0585f487a71c3c9563
     Pseudo is Ultrasoft, Zval =  1.0
     Generated by new atomic code, or converted to UPF format
     Using radial grid of 1061 points,  2 beta functions with: 
                l(1) =   0
                l(2) =   0
     Q(r) pseudized with 0 coefficients 


     atomic species   valence    mass     pseudopotential
        N              5.00    14.00000     N ( 1.00)
        C              4.00    12.00000     C ( 1.00)
        H              1.00     1.00000     H ( 1.00)

     No symmetry found



   Cartesian axes

     site n.     atom                  positions (alat units)
         1           N   tau(   1) = (  -0.1222704   0.0000000   0.0001514  )
         2           C   tau(   2) = (  -0.0616572   0.1123679   0.0001037  )
         3           C   tau(   3) = (   0.0689061   0.1142596   0.0000731  )
         4           C   tau(   4) = (   0.1346968   0.0000000   0.0000659  )
         5           C   tau(   5) = (   0.0689062  -0.1142596   0.0001326  )
         6           C   tau(   6) = (  -0.0616572  -0.1123679   0.0001773  )
         7           H   tau(   7) = (  -0.1206366   0.1969071   0.0000855  )
         8           H   tau(   8) = (   0.1179548   0.2049361   0.0000402  )
         9           H   tau(   9) = (   0.2379293  -0.0000000   0.0000010  )
        10           H   tau(  10) = (   0.1179548  -0.2049361   0.0001604  )
        11           H   tau(  11) = (  -0.1206365  -0.1969070   0.0002440  )

     number of k points=     1
                       cart. coord. in units 2pi/alat
        k(    1) = (   0.0000000   0.0000000   0.0000000), wk =   2.0000000

     Dense  grid:   350738 G-vectors     FFT dimensions: ( 120, 120, 120)

     Smooth grid:    88755 G-vectors     FFT dimensions: (  72,  72,  72)

     Estimated max dynamical RAM per process >     300.59MB

     Initial potential from superposition of free atoms
     Check: negative starting charge=   -0.000446

     starting charge   29.51871, renormalised to   30.00000

     negative rho (up, down):  4.533E-04 0.000E+00
     Starting wfc are   29 randomized atomic wfcs

     total cpu time spent up to now is        2.9 secs

     per-process dynamical memory:   873.1 Mb

     Self-consistent Calculation

     iteration #  1     ecut=    30.00 Ry     beta=0.70
     Davidson diagonalization with overlap
     ethr =  1.00E-02,  avg # of iterations =  2.0

     negative rho (up, down):  1.360E-04 0.000E+00

     add environment contribution to local potential
     polarization accuracy = 7.6E-06, # of iterations =  17

     total cpu time spent up to now is        9.5 secs

     total energy              =     -82.24712738 Ry
     Harris-Foulkes estimate   =     -83.63778213 Ry
     estimated scf accuracy    <       2.07062237 Ry
     electrostatic embedding   =       0.00000000 Ry
     electrolyte free energy   =       0.01109223 Ry
     correction to one-el term =       0.00000000 Ry

     iteration #  2     ecut=    30.00 Ry     beta=0.70
     Davidson diagonalization with overlap
     ethr =  6.90E-03,  avg # of iterations =  3.0

     negative rho (up, down):  1.552E-04 0.000E+00

     add environment contribution to local potential
     polarization accuracy = 3.3E-06, # of iterations =  19

     total cpu time spent up to now is       16.5 secs

     total energy              =     -82.45757389 Ry
     Harris-Foulkes estimate   =     -82.81791547 Ry
     estimated scf accuracy    <       0.49814066 Ry
     electrostatic embedding   =      -0.01905680 Ry
     electrolyte free energy   =       0.00739842 Ry
     correction to one-el term =       0.05142854 Ry

     iteration #  3     ecut=    30.00 Ry     beta=0.70
     Davidson diagonalization with overlap
     ethr =  1.66E-03,  avg # of iterations =  4.0

     negative rho (up, down):  1.952E-04 0.000E+00

     add environment contribution to local potential
     polarization accuracy = 3.8E-06, # of iterations =  19

     total cpu time spent up to now is       23.3 secs

     total energy              =     -82.59828457 Ry
     Harris-Foulkes estimate   =     -83.25963555 Ry
     estimated scf accuracy    <       0.20614586 Ry
     electrostatic embedding   =      -0.01978247 Ry
     electrolyte free energy   =       0.00512203 Ry
     correction to one-el term =       0.57423581 Ry

     iteration #  4     ecut=    30.00 Ry     beta=0.70
     Davidson diagonalization with overlap
     ethr =  6.87E-04,  avg # of iterations =  4.0

     negative rho (up, down):  5.023E-05 0.000E+00

     add environment contribution to local potential
     polarization accuracy = 8.1E-06, # of iterations =  19

     total cpu time spent up to now is       30.1 secs

     total energy              =     -82.64264117 Ry
     Harris-Foulkes estimate   =     -83.44912429 Ry
     estimated scf accuracy    <       0.00853308 Ry
     electrostatic embedding   =      -0.01729788 Ry
     electrolyte free energy   =       0.00449551 Ry
     correction to one-el term =       0.81506947 Ry

     iteration #  5     ecut=    30.00 Ry     beta=0.70
     Davidson diagonalization with overlap
     ethr =  2.84E-05,  avg # of iterations =  4.0

     negative rho (up, down):  5.286E-05 0.000E+00

     add environment contribution to local potential
     polarization accuracy = 8.8E-06, # of iterations =  19

     total cpu time spent up to now is       37.0 secs

     total energy              =     -82.64624827 Ry
     Harris-Foulkes estimate   =     -83.60722985 Ry
     estimated scf accuracy    <       0.00114095 Ry
     electrostatic embedding   =      -0.01824054 Ry
     electrolyte free energy   =       0.00434914 Ry
     correction to one-el term =       0.97443358 Ry

     iteration #  6     ecut=    30.00 Ry     beta=0.70
     Davidson diagonalization with overlap
     ethr =  3.80E-06,  avg # of iterations =  3.0

     negative rho (up, down):  1.400E-04 0.000E+00

     total cpu time spent up to now is       39.4 secs

     End of self-consistent calculation

          k = 0.0000 0.0000 0.0000 ( 11060 PWs)   bands (ev):

   -23.2527 -19.6364 -18.8568 -15.3851 -15.2764 -12.8027 -11.6471 -11.1973
   -10.4388  -9.7799  -9.4579  -8.6840  -7.0460  -6.6427  -5.5808

     highest occupied level (ev):    -5.5808

!    total energy              =     -82.64639164 Ry
     Harris-Foulkes estimate   =     -83.65052394 Ry
     estimated scf accuracy    <       0.00009154 Ry

     The total energy is the sum of the following terms:

     one-electron contribution =    -292.46224031 Ry
     hartree contribution      =     149.42942556 Ry
     xc contribution           =     -25.97511998 Ry
     ewald contribution        =      85.35745671 Ry
     electrostatic embedding   =      -0.01814936 Ry
     electrolyte free energy   =       0.00434887 Ry
     correction to one-el term =       1.01788687 Ry

     convergence has been achieved in   6 iterations

     Forces acting on atoms (cartesian axes, Ry/au):

     atom    1 type  1   force =    -0.04654935    0.00000270    0.00000254
     atom    2 type  2   force =    -0.00611835   -0.06235348    0.00002530
     atom    3 type  2   force =     0.02095402    0.01705164   -0.00004681
     atom    4 type  2   force =     0.00627381   -0.00000273    0.00000480
     atom    5 type  2   force =     0.02096102   -0.01704118    0.00000570
     atom    6 type  2   force =    -0.00613421    0.06235421    0.00001088
     atom    7 type  3   force =     0.00205602    0.00189480    0.00000998
     atom    8 type  3   force =     0.00529274   -0.00375406   -0.00000729
     atom    9 type  3   force =    -0.00408758    0.00000262    0.00003014
     atom   10 type  3   force =     0.00530026    0.00374121   -0.00002394
     atom   11 type  3   force =     0.00205163   -0.00189572   -0.00001130

     Total force =     0.107858     Total SCF correction =     0.015649
     SCF correction compared to forces is large: reduce conv_thr to get better values

     Writing output data file pwscf.save
 
     init_run     :      2.68s CPU      2.83s WALL (       1 calls)
     electrons    :     35.23s CPU     36.54s WALL (       1 calls)
     forces       :      0.89s CPU      0.93s WALL (       1 calls)

     Called by init_run:
     wfcinit      :      0.13s CPU      0.14s WALL (       1 calls)
     potinit      :      0.79s CPU      0.82s WALL (       1 calls)

     Called by electrons:
     c_bands      :      1.36s CPU      1.38s WALL (       6 calls)
     sum_band     :      2.47s CPU      2.72s WALL (       6 calls)
     v_of_rho     :      3.74s CPU      3.87s WALL (       7 calls)
     newd         :      1.35s CPU      1.57s WALL (       7 calls)
     mix_rho      :      0.34s CPU      0.34s WALL (       6 calls)

     Called by c_bands:
     init_us_2    :      0.05s CPU      0.05s WALL (      13 calls)
     regterg      :      1.26s CPU      1.28s WALL (       6 calls)

     Called by sum_band:
     sum_band:bec :      0.00s CPU      0.00s WALL (       6 calls)
     addusdens    :      1.67s CPU      1.90s WALL (       6 calls)

     Called by *egterg:
     h_psi        :      1.20s CPU      1.20s WALL (      27 calls)
     s_psi        :      0.05s CPU      0.05s WALL (      27 calls)
     g_psi        :      0.01s CPU      0.01s WALL (      20 calls)
     rdiaghg      :      0.00s CPU      0.01s WALL (      26 calls)

     Called by h_psi:
     h_psi:pot    :      1.19s CPU      1.19s WALL (      27 calls)
     h_psi:calbec :      0.06s CPU      0.05s WALL (      27 calls)
     vloc_psi     :      1.10s CPU      1.10s WALL (      27 calls)
     add_vuspsi   :      0.04s CPU      0.05s WALL (      27 calls)

     General routines
     calbec       :      0.08s CPU      0.07s WALL (      37 calls)
     fft          :      9.56s CPU      9.91s WALL (     427 calls)
     ffts         :      0.05s CPU      0.05s WALL (      13 calls)
     fftw         :      0.89s CPU      0.86s WALL (     364 calls)
     interpolate  :      0.41s CPU      0.45s WALL (      13 calls)
     davcio       :      0.00s CPU      0.00s WALL (       1 calls)
 
     Parallel routines
     fft_scatter  :      2.63s CPU      2.85s WALL (     804 calls)
 
     Environ routines
     calc_eelect  :      0.02s CPU      0.03s WALL (      12 calls)
     calc_velect  :     18.63s CPU     19.12s WALL (      10 calls)
     dielectric   :      0.33s CPU      0.33s WALL (       7 calls)
     electrolyte  :      0.03s CPU      0.03s WALL (       7 calls)
     calc_felect  :      0.22s CPU      0.22s WALL (       1 calls)
 
     PWSCF        :    38.92s CPU        40.44s WALL

 
   This run was terminated on:  11: 9: 0  15Dec2017            

=------------------------------------------------------------------------------=
   JOB DONE.
=------------------------------------------------------------------------------=

%%%% IONS %%%%%%%%%%%%%%%%%%%%%%%%%%%%%%%%%%%%%%%%%%%%%%%%%%%%%%%%%%%%%%%%%%%%%%
 number of ions             =         11
 ionic center of charge     =      0.0072664     0.0000000     0.0001166
 total ionic charge         =    -30.0000000
 ionic dipole               =      0.0000000     0.0000000     0.0000000
 ionic quadrupole (pc)      =   -131.0719095  -146.7987094    -0.0000314
 ionic quadrupole (gauss)   =   -134.8219095  -150.5487094    -3.7500314
 ion   1 type =  1 coordinates =     -2.4454071     0.0000002     0.0030272
 ion   2 type =  2 coordinates =     -1.2331440     2.2473584     0.0020749
 ion   3 type =  2 coordinates =      1.3781229     2.2851921     0.0014627
 ion   4 type =  2 coordinates =      2.6939354     0.0000002     0.0013189
 ion   5 type =  2 coordinates =      1.3781232    -2.2851919     0.0026521
 ion   6 type =  2 coordinates =     -1.2331437    -2.2473574     0.0035464
 ion   7 type =  3 coordinates =     -2.4127312     3.9381412     0.0017094
 ion   8 type =  3 coordinates =      2.3590962     4.0987221     0.0008035
 ion   9 type =  3 coordinates =      4.7585861    -0.0000002     0.0000199
 ion  10 type =  3 coordinates =      2.3590968    -4.0987217     0.0032074
 ion  11 type =  3 coordinates =     -2.4127303    -3.9381403     0.0048805

%%%% SYSTEM %%%%%%%%%%%%%%%%%%%%%%%%%%%%%%%%%%%%%%%%%%%%%%%%%%%%%%%%%%%%%%%%%%%%
 system is built from all present ionic types
 system defined dimension   =  0 
 system defined axis        =  3 
 system center              =      0.0072664     0.0000000     0.0001166 
 system width               =      0.2348011 

%%%% ELECTRONS %%%%%%%%%%%%%%%%%%%%%%%%%%%%%%%%%%%%%%%%%%%%%%%%%%%%%%%%%%%%%%%%%
 number of electrons        =         30
 total electronic charge    =     30.0000000
 number of spin components  =  1

%%%% BOUNDARY %%%%%%%%%%%%%%%%%%%%%%%%%%%%%%%%%%%%%%%%%%%%%%%%%%%%%%%%%%%%%%%%%%
 boundary mode              = electronic           
 boundary is built as a function of a smooth density
 function type              =  2 
 using the modified SCCS function with parameters 
 rhomax                     =      0.0050000 
 rhomin                     =      0.0001000 
 volume of the QM region    =   1074.1872471 
 surface of the QM region   =    527.4241024 

%%%% DIELECTRIC %%%%%%%%%%%%%%%%%%%%%%%%%%%%%%%%%%%%%%%%%%%%%%%%%%%%%%%%%%%%%%%%%
 dielectric build on homogeneous background
 environment bulk permitt.  =     20.0000000 
 dielectric flags
 need gradient              =  F 
 need factor depend. sqrt   =  T 
 total dielectric charge    =      0.0000000

%%%% BOUNDARY %%%%%%%%%%%%%%%%%%%%%%%%%%%%%%%%%%%%%%%%%%%%%%%%%%%%%%%%%%%%%%%%%%
 boundary mode              = electronic           
 boundary is built as a function of a smooth density
 function type              =  2 
 using the modified SCCS function with parameters 
 rhomax                     =      0.0007071 
 rhomin                     =      0.0000141 
 volume of the QM region    =   3961.6572593 
 surface of the QM region   =   1007.0653042 

%%%% ELECTROLYTE %%%%%%%%%%%%%%%%%%%%%%%%%%%%%%%%%%%%%%%%%%%%%%%%%%%%%%%%%%%%%%%%
 number electrol. species   =    2
 solvent temperature        =   300.0
 Debye length / sqrt(eps)   =      0.2301070
 modified Poisson-Boltzmann 
 maximum concentration      =      0.0190986
 electrolyte species    1
 bulk concentration  (a.u.) =      0.7139E-03
 bulk concentration (mol/L) =      8.0000000
 ionic charge               =    1.00
 electrolyte species    2
 bulk concentration  (a.u.) =      0.7139E-03
 bulk concentration (mol/L) =      8.0000000
 ionic charge               =   -1.00
 electrolyte flags
 linearized                 =  T
 total electrolyte charge   =      0.0000000

%%%% COMPUTE ELECTROSTATIC POTENTIAL %%%%%%%%%%%%%%%%%%%%%%%%%%%%%%%%%%%%%%%%%%%
 Iteration #          1
  pAp =    124.381424805855       rzold =    120.820643240974       alpha = 
  0.971372079308157     
 delta_qm =   0.184635E-01 delta_en =   0.589080E+03 tol =   0.100000E-04
 Iteration #          2
  pAp =    8509.45829297235       rzold =    159.640277490666       alpha = 
  1.876033373622701E-002
 delta_qm =   0.494982E-02 delta_en =   0.423372E+02 tol =   0.100000E-04
 Iteration #          3
  pAp =    24.6125427777551       rzold =    2.60361967369976       alpha = 
  0.105784262000468     
 delta_qm =   0.214496E-02 delta_en =   0.795027E+01 tol =   0.100000E-04
 Iteration #          4
  pAp =    2.64394821467893       rzold =   0.279170721480408       alpha = 
  0.105588573910215     
 delta_qm =   0.130766E-02 delta_en =   0.295482E+01 tol =   0.100000E-04
 Iteration #          5
  pAp =    2.36750086291837       rzold =   0.165994080395965       alpha = 
  7.011363036689566E-002
 delta_qm =   0.684277E-03 delta_en =   0.809111E+00 tol =   0.100000E-04
 Iteration #          6
  pAp =   0.126411771666069       rzold =   2.153253724451902E-002  alpha = 
  0.170336488134979     
 delta_qm =   0.440137E-03 delta_en =   0.334749E+00 tol =   0.100000E-04
 Iteration #          7
  pAp =   0.217608079857229       rzold =   1.455420843401276E-002  alpha = 
  6.688266558650598E-002
 delta_qm =   0.248970E-03 delta_en =   0.107112E+00 tol =   0.100000E-04
 Iteration #          8
  pAp =   3.595896892559107E-002  rzold =   2.992654085820093E-003  alpha = 
  8.322413504160010E-002
 delta_qm =   0.173183E-03 delta_en =   0.518266E-01 tol =   0.100000E-04
 Iteration #          9
  pAp =   2.654831525757907E-003  rzold =   6.027119578773147E-004  alpha = 
  0.227024559573607     
 delta_qm =   0.963408E-04 delta_en =   0.160385E-01 tol =   0.100000E-04
 Iteration #         10
  pAp =   1.157415979069261E-003  rzold =   1.528997655772557E-004  alpha = 
  0.132104419104539     
 delta_qm =   0.757752E-04 delta_en =   0.992197E-02 tol =   0.100000E-04
 Iteration #         11
  pAp =   1.712551418983317E-003  rzold =   1.843115026501344E-004  alpha = 
  0.107623923350315     
 delta_qm =   0.472365E-04 delta_en =   0.385567E-02 tol =   0.100000E-04
 Iteration #         12
  pAp =   1.768205760594794E-004  rzold =   3.851692606350926E-005  alpha = 
  0.217830565434607     
 delta_qm =   0.239140E-04 delta_en =   0.988212E-03 tol =   0.100000E-04
 Iteration #         13
  pAp =   5.249942637617568E-005  rzold =   9.800536933861582E-006  alpha = 
  0.186678933663722     
 delta_qm =   0.164020E-04 delta_en =   0.464875E-03 tol =   0.100000E-04
 Iteration #         14
  pAp =   4.632900492102664E-005  rzold =   7.493628500861019E-006  alpha = 
  0.161748099568182     
 delta_qm =   0.624328E-05 delta_en =   0.673549E-04 tol =   0.100000E-04
 Iteration #         15
  pAp =   1.715386315399619E-006  rzold =   4.750674159845498E-007  alpha = 
  0.276944855931113     
 delta_qm =   0.385532E-05 delta_en =   0.256841E-04 tol =   0.100000E-04
 Iteration #         16
  pAp =   1.341265257685363E-006  rzold =   2.022326608192113E-007  alpha = 
  0.150777528650974     
 delta_qm =   0.282386E-05 delta_en =   0.137793E-04 tol =   0.100000E-04
 Iteration #         17
  pAp =   2.010731921097134E-005  rzold =   7.386610691829225E-007  alpha = 
  3.673592990854196E-002
 delta_qm =   0.209552E-05 delta_en =   0.758802E-05 tol =   0.100000E-04
 Charges are converged, exit!

%%%% ELECTRONS %%%%%%%%%%%%%%%%%%%%%%%%%%%%%%%%%%%%%%%%%%%%%%%%%%%%%%%%%%%%%%%%%
 number of electrons        =         30
 total electronic charge    =     30.0000000
 number of spin components  =  1

%%%% BOUNDARY %%%%%%%%%%%%%%%%%%%%%%%%%%%%%%%%%%%%%%%%%%%%%%%%%%%%%%%%%%%%%%%%%%
 boundary mode              = electronic           
 boundary is built as a function of a smooth density
 function type              =  2 
 using the modified SCCS function with parameters 
 rhomax                     =      0.0050000 
 rhomin                     =      0.0001000 
 volume of the QM region    =   1022.9152530 
 surface of the QM region   =    515.5568024 

%%%% DIELECTRIC %%%%%%%%%%%%%%%%%%%%%%%%%%%%%%%%%%%%%%%%%%%%%%%%%%%%%%%%%%%%%%%%%
 dielectric build on homogeneous background
 environment bulk permitt.  =     20.0000000 
 dielectric flags
 need gradient              =  F 
 need factor depend. sqrt   =  T 
 total dielectric charge    =      0.0024804

%%%% BOUNDARY %%%%%%%%%%%%%%%%%%%%%%%%%%%%%%%%%%%%%%%%%%%%%%%%%%%%%%%%%%%%%%%%%%
 boundary mode              = electronic           
 boundary is built as a function of a smooth density
 function type              =  2 
 using the modified SCCS function with parameters 
 rhomax                     =      0.0007071 
 rhomin                     =      0.0000141 
 volume of the QM region    =   2679.4507814 
 surface of the QM region   =    882.9029232 

%%%% ELECTROLYTE %%%%%%%%%%%%%%%%%%%%%%%%%%%%%%%%%%%%%%%%%%%%%%%%%%%%%%%%%%%%%%%%
 number electrol. species   =    2
 solvent temperature        =   300.0
 Debye length / sqrt(eps)   =      0.2301070
 modified Poisson-Boltzmann 
 maximum concentration      =      0.0190986
 electrolyte species    1
 bulk concentration  (a.u.) =      0.7139E-03
 bulk concentration (mol/L) =      8.0000000
 ionic charge               =    1.00
 electrolyte species    2
 bulk concentration  (a.u.) =      0.7139E-03
 bulk concentration (mol/L) =      8.0000000
 ionic charge               =   -1.00
 electrolyte flags
 linearized                 =  T
 total electrolyte charge   =     -0.0027721

%%%% COMPUTE ELECTROSTATIC POTENTIAL %%%%%%%%%%%%%%%%%%%%%%%%%%%%%%%%%%%%%%%%%%%
 Warning: bad guess with residual norm =   0.558854E+03, reset to no guess
 Iteration #          1
  pAp =    124.969625464928       rzold =    122.298386829497       alpha = 
  0.978624896845992     
 delta_qm =   0.176756E-01 delta_en =   0.539874E+03 tol =   0.100000E-04
 Iteration #          2
  pAp =    10789.6285261065       rzold =    155.116281121053       alpha = 
  1.437642461422414E-002
 delta_qm =   0.503938E-02 delta_en =   0.438831E+02 tol =   0.100000E-04
 Iteration #          3
  pAp =    65.9904901444622       rzold =    3.41622348402037       alpha = 
  5.176842112464677E-002
 delta_qm =   0.316965E-02 delta_en =   0.173607E+02 tol =   0.100000E-04
 Iteration #          4
  pAp =    12.8146812929727       rzold =    1.01062959158781       alpha = 
  7.886498060174259E-002
 delta_qm =   0.179000E-02 delta_en =   0.553671E+01 tol =   0.100000E-04
 Iteration #          5
  pAp =    1.93375558639249       rzold =   0.212292327766966       alpha = 
  0.109782399213650     
 delta_qm =   0.846086E-03 delta_en =   0.123701E+01 tol =   0.100000E-04
 Iteration #          6
  pAp =   0.294777202125403       rzold =   3.511426662481385E-002  alpha = 
  0.119121378355018     
 delta_qm =   0.496057E-03 delta_en =   0.425213E+00 tol =   0.100000E-04
 Iteration #          7
  pAp =   9.653238024723160E-002  rzold =   1.080351880908690E-002  alpha = 
  0.111916009751523     
 delta_qm =   0.271359E-03 delta_en =   0.127242E+00 tol =   0.100000E-04
 Iteration #          8
  pAp =   7.198521935713507E-002  rzold =   3.698656945308702E-003  alpha = 
  5.138078314325642E-002
 delta_qm =   0.212579E-03 delta_en =   0.780878E-01 tol =   0.100000E-04
 Iteration #          9
  pAp =   7.845375955056588E-003  rzold =   1.188594103086556E-003  alpha = 
  0.151502504136908     
 delta_qm =   0.124336E-03 delta_en =   0.267141E-01 tol =   0.100000E-04
 Iteration #         10
  pAp =   3.010014961879927E-003  rzold =   2.986171105957265E-004  alpha = 
  9.920784925574687E-002
 delta_qm =   0.997655E-04 delta_en =   0.171991E-01 tol =   0.100000E-04
 Iteration #         11
  pAp =   2.773515050172248E-003  rzold =   2.507310325815461E-004  alpha = 
  9.040190085356650E-002
 delta_qm =   0.745292E-04 delta_en =   0.959835E-02 tol =   0.100000E-04
 Iteration #         12
  pAp =   1.295478047228434E-003  rzold =   1.422839566707887E-004  alpha = 
  0.109831237183211     
 delta_qm =   0.513585E-04 delta_en =   0.455794E-02 tol =   0.100000E-04
 Iteration #         13
  pAp =   2.694863585982799E-004  rzold =   4.969587276405798E-005  alpha = 
  0.184409604339710     
 delta_qm =   0.254585E-04 delta_en =   0.111997E-02 tol =   0.100000E-04
 Iteration #         14
  pAp =   2.956483336869333E-005  rzold =   8.445543652252627E-006  alpha = 
  0.285661804581512     
 delta_qm =   0.121462E-04 delta_en =   0.254933E-03 tol =   0.100000E-04
 Iteration #         15
  pAp =   1.116464960104282E-005  rzold =   2.264169060348224E-006  alpha = 
  0.202798040355583     
 delta_qm =   0.703197E-05 delta_en =   0.854473E-04 tol =   0.100000E-04
 Iteration #         16
  pAp =   4.364938497711108E-005  rzold =   1.065888440802079E-006  alpha = 
  2.441932323584882E-002
 delta_qm =   0.633463E-05 delta_en =   0.693404E-04 tol =   0.100000E-04
 Iteration #         17
  pAp =   4.667213297756733E-006  rzold =   7.251269594339431E-007  alpha = 
  0.155366149599906     
 delta_qm =   0.360250E-05 delta_en =   0.224259E-04 tol =   0.100000E-04
 Iteration #         18
  pAp =   4.862541298613504E-007  rzold =   1.232832095125723E-007  alpha = 
  0.253536580856856     
 delta_qm =   0.249591E-05 delta_en =   0.107647E-04 tol =   0.100000E-04
 Iteration #         19
  pAp =   1.116687486255332E-007  rzold =   4.197158460811779E-008  alpha = 
  0.375857929140624     
 delta_qm =   0.138446E-05 delta_en =   0.331210E-05 tol =   0.100000E-04
 Charges are converged, exit!

%%%% ELECTRONS %%%%%%%%%%%%%%%%%%%%%%%%%%%%%%%%%%%%%%%%%%%%%%%%%%%%%%%%%%%%%%%%%
 number of electrons        =         30
 total electronic charge    =     30.0000000
 number of spin components  =  1

%%%% BOUNDARY %%%%%%%%%%%%%%%%%%%%%%%%%%%%%%%%%%%%%%%%%%%%%%%%%%%%%%%%%%%%%%%%%%
 boundary mode              = electronic           
 boundary is built as a function of a smooth density
 function type              =  2 
 using the modified SCCS function with parameters 
 rhomax                     =      0.0050000 
 rhomin                     =      0.0001000 
 volume of the QM region    =    990.2293081 
 surface of the QM region   =    507.9472213 

%%%% DIELECTRIC %%%%%%%%%%%%%%%%%%%%%%%%%%%%%%%%%%%%%%%%%%%%%%%%%%%%%%%%%%%%%%%%%
 dielectric build on homogeneous background
 environment bulk permitt.  =     20.0000000 
 dielectric flags
 need gradient              =  F 
 need factor depend. sqrt   =  T 
 total dielectric charge    =     -0.0000458

%%%% BOUNDARY %%%%%%%%%%%%%%%%%%%%%%%%%%%%%%%%%%%%%%%%%%%%%%%%%%%%%%%%%%%%%%%%%%
 boundary mode              = electronic           
 boundary is built as a function of a smooth density
 function type              =  2 
 using the modified SCCS function with parameters 
 rhomax                     =      0.0007071 
 rhomin                     =      0.0000141 
 volume of the QM region    =   1867.9722385 
 surface of the QM region   =    761.3602190 

%%%% ELECTROLYTE %%%%%%%%%%%%%%%%%%%%%%%%%%%%%%%%%%%%%%%%%%%%%%%%%%%%%%%%%%%%%%%%
 number electrol. species   =    2
 solvent temperature        =   300.0
 Debye length / sqrt(eps)   =      0.2301070
 modified Poisson-Boltzmann 
 maximum concentration      =      0.0190986
 electrolyte species    1
 bulk concentration  (a.u.) =      0.7139E-03
 bulk concentration (mol/L) =      8.0000000
 ionic charge               =    1.00
 electrolyte species    2
 bulk concentration  (a.u.) =      0.7139E-03
 bulk concentration (mol/L) =      8.0000000
 ionic charge               =   -1.00
 electrolyte flags
 linearized                 =  T
 total electrolyte charge   =     -0.0000036

%%%% COMPUTE ELECTROSTATIC POTENTIAL %%%%%%%%%%%%%%%%%%%%%%%%%%%%%%%%%%%%%%%%%%%
 Warning: bad guess with residual norm =   0.480565E+03, reset to no guess
 Iteration #          1
  pAp =    124.742716657151       rzold =    122.819391570765       alpha = 
  0.984581664261238     
 delta_qm =   0.164622E-01 delta_en =   0.468295E+03 tol =   0.100000E-04
 Iteration #          2
  pAp =    11032.1500691807       rzold =    134.875243524898       alpha = 
  1.222565344734421E-002
 delta_qm =   0.442094E-02 delta_en =   0.337733E+02 tol =   0.100000E-04
 Iteration #          3
  pAp =    47.6633261503788       rzold =    2.32971806548658       alpha = 
  4.887862962262170E-002
 delta_qm =   0.262016E-02 delta_en =   0.118631E+02 tol =   0.100000E-04
 Iteration #          4
  pAp =    9.77683208193869       rzold =   0.658425758741098       alpha = 
  6.734551163637621E-002
 delta_qm =   0.167537E-02 delta_en =   0.485024E+01 tol =   0.100000E-04
 Iteration #          5
  pAp =    1.76796515407758       rzold =   0.182287248040940       alpha = 
  0.103105679215747     
 delta_qm =   0.867569E-03 delta_en =   0.130062E+01 tol =   0.100000E-04
 Iteration #          6
  pAp =   0.327284438005500       rzold =   3.709739292226470E-002  alpha = 
  0.113349089093082     
 delta_qm =   0.479889E-03 delta_en =   0.397947E+00 tol =   0.100000E-04
 Iteration #          7
  pAp =   7.897556491539554E-002  rzold =   9.133463847205063E-003  alpha = 
  0.115649237292440     
 delta_qm =   0.269238E-03 delta_en =   0.125262E+00 tol =   0.100000E-04
 Iteration #          8
  pAp =   4.649250975784751E-002  rzold =   2.670747949448458E-003  alpha = 
  5.744469299159871E-002
 delta_qm =   0.217756E-03 delta_en =   0.819377E-01 tol =   0.100000E-04
 Iteration #          9
  pAp =   1.440020394189046E-002  rzold =   1.537424141671088E-003  alpha = 
  0.106764053333904     
 delta_qm =   0.128880E-03 delta_en =   0.287020E-01 tol =   0.100000E-04
 Iteration #         10
  pAp =   2.563055785011340E-003  rzold =   2.911869209048857E-004  alpha = 
  0.113609279442038     
 delta_qm =   0.973681E-04 delta_en =   0.163824E-01 tol =   0.100000E-04
 Iteration #         11
  pAp =   1.156536106375360E-003  rzold =   1.813256545426285E-004  alpha = 
  0.156783392704368     
 delta_qm =   0.633272E-04 delta_en =   0.692985E-02 tol =   0.100000E-04
 Iteration #         12
  pAp =   1.990384662412655E-003  rzold =   1.104902044659841E-004  alpha = 
  5.551198547322651E-002
 delta_qm =   0.514542E-04 delta_en =   0.457495E-02 tol =   0.100000E-04
 Iteration #         13
  pAp =   3.989805186731972E-004  rzold =   5.245391792529829E-005  alpha = 
  0.131469872513407     
 delta_qm =   0.309467E-04 delta_en =   0.165490E-02 tol =   0.100000E-04
 Iteration #         14
  pAp =   3.823196202674688E-005  rzold =   1.118642349722831E-005  alpha = 
  0.292593497801718     
 delta_qm =   0.135889E-04 delta_en =   0.319092E-03 tol =   0.100000E-04
 Iteration #         15
  pAp =   1.792500595955492E-005  rzold =   2.953963724071303E-006  alpha = 
  0.164795689928164     
 delta_qm =   0.835249E-05 delta_en =   0.120552E-03 tol =   0.100000E-04
 Iteration #         16
  pAp =   1.914001554083633E-004  rzold =   3.070240089075158E-006  alpha = 
  1.604094877835717E-002
 delta_qm =   0.797884E-05 delta_en =   0.110008E-03 tol =   0.100000E-04
 Iteration #         17
  pAp =   3.948629134891774E-006  rzold =   7.894969900015798E-007  alpha = 
  0.199942046475129     
 delta_qm =   0.414242E-05 delta_en =   0.296519E-04 tol =   0.100000E-04
 Iteration #         18
  pAp =   2.358020994253428E-007  rzold =   9.708908115056538E-008  alpha = 
  0.411739680805110     
 delta_qm =   0.246380E-05 delta_en =   0.104895E-04 tol =   0.100000E-04
 Iteration #         19
  pAp =   1.003008198675866E-007  rzold =   3.263250464374655E-008  alpha = 
  0.325346340008255     
 delta_qm =   0.148180E-05 delta_en =   0.379421E-05 tol =   0.100000E-04
 Charges are converged, exit!

%%%% ELECTRONS %%%%%%%%%%%%%%%%%%%%%%%%%%%%%%%%%%%%%%%%%%%%%%%%%%%%%%%%%%%%%%%%%
 number of electrons        =         30
 total electronic charge    =     30.0000000
 number of spin components  =  1

%%%% BOUNDARY %%%%%%%%%%%%%%%%%%%%%%%%%%%%%%%%%%%%%%%%%%%%%%%%%%%%%%%%%%%%%%%%%%
 boundary mode              = electronic           
 boundary is built as a function of a smooth density
 function type              =  2 
 using the modified SCCS function with parameters 
 rhomax                     =      0.0050000 
 rhomin                     =      0.0001000 
 volume of the QM region    =    970.5442965 
 surface of the QM region   =    503.1517340 

%%%% DIELECTRIC %%%%%%%%%%%%%%%%%%%%%%%%%%%%%%%%%%%%%%%%%%%%%%%%%%%%%%%%%%%%%%%%%
 dielectric build on homogeneous background
 environment bulk permitt.  =     20.0000000 
 dielectric flags
 need gradient              =  F 
 need factor depend. sqrt   =  T 
 total dielectric charge    =     -0.0002880

%%%% BOUNDARY %%%%%%%%%%%%%%%%%%%%%%%%%%%%%%%%%%%%%%%%%%%%%%%%%%%%%%%%%%%%%%%%%%
 boundary mode              = electronic           
 boundary is built as a function of a smooth density
 function type              =  2 
 using the modified SCCS function with parameters 
 rhomax                     =      0.0007071 
 rhomin                     =      0.0000141 
 volume of the QM region    =   1628.7021522 
 surface of the QM region   =    693.2805627 

%%%% ELECTROLYTE %%%%%%%%%%%%%%%%%%%%%%%%%%%%%%%%%%%%%%%%%%%%%%%%%%%%%%%%%%%%%%%%
 number electrol. species   =    2
 solvent temperature        =   300.0
 Debye length / sqrt(eps)   =      0.2301070
 modified Poisson-Boltzmann 
 maximum concentration      =      0.0190986
 electrolyte species    1
 bulk concentration  (a.u.) =      0.7139E-03
 bulk concentration (mol/L) =      8.0000000
 ionic charge               =    1.00
 electrolyte species    2
 bulk concentration  (a.u.) =      0.7139E-03
 bulk concentration (mol/L) =      8.0000000
 ionic charge               =   -1.00
 electrolyte flags
 linearized                 =  T
 total electrolyte charge   =      0.0002884

%%%% COMPUTE ELECTROSTATIC POTENTIAL %%%%%%%%%%%%%%%%%%%%%%%%%%%%%%%%%%%%%%%%%%%
 Warning: bad guess with residual norm =   0.407514E+03, reset to no guess
 Iteration #          1
  pAp =    124.148161873173       rzold =    122.592293137078       alpha = 
  0.987467645814330     
 delta_qm =   0.151950E-01 delta_en =   0.398973E+03 tol =   0.100000E-04
 Iteration #          2
  pAp =    9331.22845240607       rzold =    109.743873107943       alpha = 
  1.176092447716733E-002
 delta_qm =   0.471532E-02 delta_en =   0.384207E+02 tol =   0.100000E-04
 Iteration #          3
  pAp =    61.9050072067334       rzold =    2.68929231415536       alpha = 
  4.344224216264764E-002
 delta_qm =   0.270398E-02 delta_en =   0.126343E+02 tol =   0.100000E-04
 Iteration #          4
  pAp =    9.15141770417835       rzold =   0.644368979715496       alpha = 
  7.041192966432847E-002
 delta_qm =   0.174761E-02 delta_en =   0.527758E+01 tol =   0.100000E-04
 Iteration #          5
  pAp =    1.94426901256755       rzold =   0.199314060503926       alpha = 
  0.102513622968623     
 delta_qm =   0.918767E-03 delta_en =   0.145866E+01 tol =   0.100000E-04
 Iteration #          6
  pAp =   0.333204668855425       rzold =   3.890215797676265E-002  alpha = 
  0.116751539257819     
 delta_qm =   0.487774E-03 delta_en =   0.411131E+00 tol =   0.100000E-04
 Iteration #          7
  pAp =   7.895694782541328E-002  rzold =   8.872097082710383E-003  alpha = 
  0.112366261957441     
 delta_qm =   0.285071E-03 delta_en =   0.140426E+00 tol =   0.100000E-04
 Iteration #          8
  pAp =   4.409130003912049E-002  rzold =   2.698618665924679E-003  alpha = 
  6.120524147689680E-002
 delta_qm =   0.227678E-03 delta_en =   0.895747E-01 tol =   0.100000E-04
 Iteration #          9
  pAp =   1.920516550979175E-002  rzold =   1.775245456911666E-003  alpha = 
  9.243583222474999E-002
 delta_qm =   0.136569E-03 delta_en =   0.322292E-01 tol =   0.100000E-04
 Iteration #         10
  pAp =   2.080632023618568E-003  rzold =   2.807933467671377E-004  alpha = 
  0.134955793998975     
 delta_qm =   0.100122E-03 delta_en =   0.173221E-01 tol =   0.100000E-04
 Iteration #         11
  pAp =   1.618894211896897E-003  rzold =   2.228901909462165E-004  alpha = 
  0.137680516310606     
 delta_qm =   0.623608E-04 delta_en =   0.671997E-02 tol =   0.100000E-04
 Iteration #         12
  pAp =   3.489938072949214E-004  rzold =   5.187283785604443E-005  alpha = 
  0.148635410634117     
 delta_qm =   0.431492E-04 delta_en =   0.321728E-02 tol =   0.100000E-04
 Iteration #         13
  pAp =   1.182390924742466E-003  rzold =   6.083164007773109E-005  alpha = 
  5.144799304932141E-002
 delta_qm =   0.332802E-04 delta_en =   0.191388E-02 tol =   0.100000E-04
 Iteration #         14
  pAp =   7.105887164432848E-005  rzold =   1.616269109015957E-005  alpha = 
  0.227454935832064     
 delta_qm =   0.150467E-04 delta_en =   0.391227E-03 tol =   0.100000E-04
 Iteration #         15
  pAp =   2.689820334488038E-004  rzold =   5.981212312798419E-006  alpha = 
  2.223647518798628E-002
 delta_qm =   0.145199E-04 delta_en =   0.364308E-03 tol =   0.100000E-04
 Iteration #         16
  pAp =   4.990873153354501E-005  rzold =   5.066672066223622E-006  alpha = 
  0.101518750538033     
 delta_qm =   0.887027E-05 delta_en =   0.135962E-03 tol =   0.100000E-04
 Iteration #         17
  pAp =   3.692961858269918E-006  rzold =   8.138074360473729E-007  alpha = 
  0.220367138161732     
 delta_qm =   0.484129E-05 delta_en =   0.405010E-04 tol =   0.100000E-04
 Iteration #         18
  pAp =   4.007837263956575E-007  rzold =   1.354299508478599E-007  alpha = 
  0.337912799169301     
 delta_qm =   0.304406E-05 delta_en =   0.160122E-04 tol =   0.100000E-04
 Iteration #         19
  pAp =   2.693118311001578E-007  rzold =   5.802206334530554E-008  alpha = 
  0.215445653123672     
 delta_qm =   0.217101E-05 delta_en =   0.814458E-05 tol =   0.100000E-04
 Charges are converged, exit!

%%%% ELECTRONS %%%%%%%%%%%%%%%%%%%%%%%%%%%%%%%%%%%%%%%%%%%%%%%%%%%%%%%%%%%%%%%%%
 number of electrons        =         30
 total electronic charge    =     30.0000000
 number of spin components  =  1

%%%% BOUNDARY %%%%%%%%%%%%%%%%%%%%%%%%%%%%%%%%%%%%%%%%%%%%%%%%%%%%%%%%%%%%%%%%%%
 boundary mode              = electronic           
 boundary is built as a function of a smooth density
 function type              =  2 
 using the modified SCCS function with parameters 
 rhomax                     =      0.0050000 
 rhomin                     =      0.0001000 
 volume of the QM region    =    968.2258137 
 surface of the QM region   =    502.9513708 

%%%% DIELECTRIC %%%%%%%%%%%%%%%%%%%%%%%%%%%%%%%%%%%%%%%%%%%%%%%%%%%%%%%%%%%%%%%%%
 dielectric build on homogeneous background
 environment bulk permitt.  =     20.0000000 
 dielectric flags
 need gradient              =  F 
 need factor depend. sqrt   =  T 
 total dielectric charge    =     -0.0005630

%%%% BOUNDARY %%%%%%%%%%%%%%%%%%%%%%%%%%%%%%%%%%%%%%%%%%%%%%%%%%%%%%%%%%%%%%%%%%
 boundary mode              = electronic           
 boundary is built as a function of a smooth density
 function type              =  2 
 using the modified SCCS function with parameters 
 rhomax                     =      0.0007071 
 rhomin                     =      0.0000141 
 volume of the QM region    =   1580.7751736 
 surface of the QM region   =    681.5583326 

%%%% ELECTROLYTE %%%%%%%%%%%%%%%%%%%%%%%%%%%%%%%%%%%%%%%%%%%%%%%%%%%%%%%%%%%%%%%%
 number electrol. species   =    2
 solvent temperature        =   300.0
 Debye length / sqrt(eps)   =      0.2301070
 modified Poisson-Boltzmann 
 maximum concentration      =      0.0190986
 electrolyte species    1
 bulk concentration  (a.u.) =      0.7139E-03
 bulk concentration (mol/L) =      8.0000000
 ionic charge               =    1.00
 electrolyte species    2
 bulk concentration  (a.u.) =      0.7139E-03
 bulk concentration (mol/L) =      8.0000000
 ionic charge               =   -1.00
 electrolyte flags
 linearized                 =  T
 total electrolyte charge   =      0.0004836

%%%% COMPUTE ELECTROSTATIC POTENTIAL %%%%%%%%%%%%%%%%%%%%%%%%%%%%%%%%%%%%%%%%%%%
 Warning: bad guess with residual norm =   0.380172E+03, reset to no guess
 Iteration #          1
  pAp =    124.152907107883       rzold =    122.715675770847       alpha = 
  0.988423699690032     
 delta_qm =   0.146880E-01 delta_en =   0.372795E+03 tol =   0.100000E-04
 Iteration #          2
  pAp =    8633.67570219122       rzold =    100.876048591277       alpha = 
  1.168402104397720E-002
 delta_qm =   0.475502E-02 delta_en =   0.390705E+02 tol =   0.100000E-04
 Iteration #          3
  pAp =    65.9811172988349       rzold =    2.76806708725479       alpha = 
  4.195241306263341E-002
 delta_qm =   0.270593E-02 delta_en =   0.126525E+02 tol =   0.100000E-04
 Iteration #          4
  pAp =    8.76926172558851       rzold =   0.629742278819948       alpha = 
  7.181246249982183E-002
 delta_qm =   0.173498E-02 delta_en =   0.520153E+01 tol =   0.100000E-04
 Iteration #          5
  pAp =    1.93031134104089       rzold =   0.196791152515564       alpha = 
  0.101947881842443     
 delta_qm =   0.916015E-03 delta_en =   0.144994E+01 tol =   0.100000E-04
 Iteration #          6
  pAp =   0.317963561391703       rzold =   3.764219236524790E-002  alpha = 
  0.118385239492509     
 delta_qm =   0.483835E-03 delta_en =   0.404518E+00 tol =   0.100000E-04
 Iteration #          7
  pAp =   7.724246087316936E-002  rzold =   8.594126127352041E-003  alpha = 
  0.111261682113720     
 delta_qm =   0.286579E-03 delta_en =   0.141917E+00 tol =   0.100000E-04
 Iteration #          8
  pAp =   4.366476778134040E-002  rzold =   2.685093765578140E-003  alpha = 
  6.149337101766478E-002
 delta_qm =   0.228190E-03 delta_en =   0.899785E-01 tol =   0.100000E-04
 Iteration #          9
  pAp =   1.965582843788668E-002  rzold =   1.781732381282516E-003  alpha = 
  9.064651672723292E-002
 delta_qm =   0.137469E-03 delta_en =   0.326554E-01 tol =   0.100000E-04
 Iteration #         10
  pAp =   1.978702104064956E-003  rzold =   2.758201268598166E-004  alpha = 
  0.139394467865165     
 delta_qm =   0.998334E-04 delta_en =   0.172225E-01 tol =   0.100000E-04
 Iteration #         11
  pAp =   1.712493037290294E-003  rzold =   2.270822474457905E-004  alpha = 
  0.132603311371769     
 delta_qm =   0.620454E-04 delta_en =   0.665216E-02 tol =   0.100000E-04
 Iteration #         12
  pAp =   2.477699075738556E-004  rzold =   4.732047129121444E-005  alpha = 
  0.190985546851000     
 delta_qm =   0.383868E-04 delta_en =   0.254629E-02 tol =   0.100000E-04
 Iteration #         13
  pAp =   4.121295168409459E-004  rzold =   2.782991796921499E-005  alpha = 
  6.752711667569165E-002
 delta_qm =   0.316826E-04 delta_en =   0.173454E-02 tol =   0.100000E-04
 Iteration #         14
  pAp =   1.911747750856799E-004  rzold =   2.493625249053214E-005  alpha = 
  0.130436939075023     
 delta_qm =   0.153213E-04 delta_en =   0.405636E-03 tol =   0.100000E-04
 Iteration #         15
  pAp =   3.143195600091972E-004  rzold =   6.447979679169347E-006  alpha = 
  2.051408979759540E-002
 delta_qm =   0.148297E-04 delta_en =   0.380023E-03 tol =   0.100000E-04
 Iteration #         16
  pAp =   4.182348875952144E-005  rzold =   4.724402062398860E-006  alpha = 
  0.112960496661659     
 delta_qm =   0.898066E-05 delta_en =   0.139367E-03 tol =   0.100000E-04
 Iteration #         17
  pAp =   3.857952192339941E-006  rzold =   8.258455353638506E-007  alpha = 
  0.214063185387208     
 delta_qm =   0.497025E-05 delta_en =   0.426874E-04 tol =   0.100000E-04
 Iteration #         18
  pAp =   4.336026499587537E-007  rzold =   1.415216832450786E-007  alpha = 
  0.326385651145215     
 delta_qm =   0.315262E-05 delta_en =   0.171746E-04 tol =   0.100000E-04
 Iteration #         19
  pAp =   2.798696531912254E-007  rzold =   5.984512721291427E-008  alpha = 
  0.213832141250499     
 delta_qm =   0.225991E-05 delta_en =   0.882522E-05 tol =   0.100000E-04
 Charges are converged, exit!

%%%% ELECTRONS %%%%%%%%%%%%%%%%%%%%%%%%%%%%%%%%%%%%%%%%%%%%%%%%%%%%%%%%%%%%%%%%%
 number of electrons        =         30
 total electronic charge    =     30.0000000
 number of spin components  =  1

%%%% BOUNDARY %%%%%%%%%%%%%%%%%%%%%%%%%%%%%%%%%%%%%%%%%%%%%%%%%%%%%%%%%%%%%%%%%%
 boundary mode              = electronic           
 boundary is built as a function of a smooth density
 function type              =  2 
 using the modified SCCS function with parameters 
 rhomax                     =      0.0050000 
 rhomin                     =      0.0001000 
 volume of the QM region    =    968.2258137 
 surface of the QM region   =    502.9513708 

%%%% DIELECTRIC %%%%%%%%%%%%%%%%%%%%%%%%%%%%%%%%%%%%%%%%%%%%%%%%%%%%%%%%%%%%%%%%%
 dielectric build on homogeneous background
 environment bulk permitt.  =     20.0000000 
 dielectric flags
 need gradient              =  F 
 need factor depend. sqrt   =  T 
 total dielectric charge    =     -0.0006199

%%%% BOUNDARY %%%%%%%%%%%%%%%%%%%%%%%%%%%%%%%%%%%%%%%%%%%%%%%%%%%%%%%%%%%%%%%%%%
 boundary mode              = electronic           
 boundary is built as a function of a smooth density
 function type              =  2 
 using the modified SCCS function with parameters 
 rhomax                     =      0.0007071 
 rhomin                     =      0.0000141 
 volume of the QM region    =   1580.7751736 
 surface of the QM region   =    681.5583326 

%%%% ELECTROLYTE %%%%%%%%%%%%%%%%%%%%%%%%%%%%%%%%%%%%%%%%%%%%%%%%%%%%%%%%%%%%%%%%
 number electrol. species   =    2
 solvent temperature        =   300.0
 Debye length / sqrt(eps)   =      0.2301070
 modified Poisson-Boltzmann 
 maximum concentration      =      0.0190986
 electrolyte species    1
 bulk concentration  (a.u.) =      0.7139E-03
 bulk concentration (mol/L) =      8.0000000
 ionic charge               =    1.00
 electrolyte species    2
 bulk concentration  (a.u.) =      0.7139E-03
 bulk concentration (mol/L) =      8.0000000
 ionic charge               =   -1.00
 electrolyte flags
 linearized                 =  T
 total electrolyte charge   =      0.0005348
