
     Program PWSCF v.6.1 (svn rev. 13369) starts on  1Jan2018 at 14:48: 9 

     This program is part of the open-source Quantum ESPRESSO suite
     for quantum simulation of materials; please cite
         "P. Giannozzi et al., J. Phys.:Condens. Matter 21 395502 (2009);
          URL http://www.quantum-espresso.org", 
     in publications or presentations arising from this work. More details at
     http://www.quantum-espresso.org/quote

     Serial version
     Reading input from pw.in

     Current dimensions of program PWSCF are:
     Max number of different atomic species (ntypx) = 10
     Max number of k-points (npk) =  40000
     Max angular momentum in pseudopotentials (lmaxx) =  3
               file N.pbe-rrkjus.UPF: wavefunction(s)  2S renormalized
               file C.pbe-rrkjus.UPF: wavefunction(s)  2S 2P renormalized
               file H.pbe-rrkjus.UPF: wavefunction(s)  1S renormalized

     gamma-point specific algorithms are used

     G-vector sticks info
     --------------------
     sticks:   dense  smooth     PW     G-vecs:    dense   smooth      PW
     Sum        9549    3809    949               701475   177509   22119



     bravais-lattice index     =            1
     lattice parameter (alat)  =      20.0000  a.u.
     unit-cell volume          =    8000.0000 (a.u.)^3
     number of atoms/cell      =           11
     number of atomic types    =            3
     number of electrons       =        30.00
     number of Kohn-Sham states=           15
     kinetic-energy cutoff     =      30.0000  Ry
     charge density cutoff     =     300.0000  Ry
     convergence threshold     =      5.0E-04
     mixing beta               =       0.7000
     number of iterations used =            8  plain     mixing
     Exchange-correlation      =  SLA  PW   PBE  PBE ( 1  4  3  4 0 0)


     Environ Module
     ==============

     Plese cite
         O. Andreussi, I. Dabo and N. Marzari, J. Chem. Phys. 136, 064102 (2012)         
     in publications or presentations arising from this work.

     compensation onset threshold      =               0.1000E+03 
     static permittivity               =                    20.00 
     epsilon calculation mode          =               electronic 

     Electrostatic Setup
     -------------------
     electrostatic problem to solve    = linmodpb                 
     numerical solver adopted          = cg                       
     type of auxiliary density adopted = none                     
     type of core tool for poisson     = fft                      
     type of core tool for s(r) deriv  = analytic                 



     celldm(1)=  20.000000  celldm(2)=   0.000000  celldm(3)=   0.000000
     celldm(4)=   0.000000  celldm(5)=   0.000000  celldm(6)=   0.000000

     crystal axes: (cart. coord. in units of alat)
               a(1) = (   1.000000   0.000000   0.000000 )  
               a(2) = (   0.000000   1.000000   0.000000 )  
               a(3) = (   0.000000   0.000000   1.000000 )  

     reciprocal axes: (cart. coord. in units 2 pi/alat)
               b(1) = (  1.000000  0.000000  0.000000 )  
               b(2) = (  0.000000  1.000000  0.000000 )  
               b(3) = (  0.000000  0.000000  1.000000 )  


     PseudoPot. # 1 for N  read from file:
     /Users/francesco/Programs/qe-6.1/Environ/tests/../..//pseudo/N.pbe-rrkjus.UPF
     MD5 check sum: 0c3fbe5807a93f9ba59d5a7019aa238b
     Pseudo is Ultrasoft, Zval =  5.0
     Generated by new atomic code, or converted to UPF format
     Using radial grid of 1257 points,  4 beta functions with: 
                l(1) =   0
                l(2) =   0
                l(3) =   1
                l(4) =   1
     Q(r) pseudized with 0 coefficients 


     PseudoPot. # 2 for C  read from file:
     /Users/francesco/Programs/qe-6.1/Environ/tests/../..//pseudo/C.pbe-rrkjus.UPF
     MD5 check sum: 00fb224312de0c5b6853bd333518df6f
     Pseudo is Ultrasoft, Zval =  4.0
     Generated by new atomic code, or converted to UPF format
     Using radial grid of  627 points,  4 beta functions with: 
                l(1) =   0
                l(2) =   0
                l(3) =   1
                l(4) =   1
     Q(r) pseudized with 0 coefficients 


     PseudoPot. # 3 for H  read from file:
     /Users/francesco/Programs/qe-6.1/Environ/tests/../..//pseudo/H.pbe-rrkjus.UPF
     MD5 check sum: 7cc9d459525c9a0585f487a71c3c9563
     Pseudo is Ultrasoft, Zval =  1.0
     Generated by new atomic code, or converted to UPF format
     Using radial grid of 1061 points,  2 beta functions with: 
                l(1) =   0
                l(2) =   0
     Q(r) pseudized with 0 coefficients 


     atomic species   valence    mass     pseudopotential
        N              5.00    14.00000     N ( 1.00)
        C              4.00    12.00000     C ( 1.00)
        H              1.00     1.00000     H ( 1.00)

     No symmetry found



   Cartesian axes

     site n.     atom                  positions (alat units)
         1           N   tau(   1) = (  -0.1222704   0.0000000   0.0001514  )
         2           C   tau(   2) = (  -0.0616572   0.1123679   0.0001037  )
         3           C   tau(   3) = (   0.0689061   0.1142596   0.0000731  )
         4           C   tau(   4) = (   0.1346968   0.0000000   0.0000659  )
         5           C   tau(   5) = (   0.0689062  -0.1142596   0.0001326  )
         6           C   tau(   6) = (  -0.0616572  -0.1123679   0.0001773  )
         7           H   tau(   7) = (  -0.1206366   0.1969071   0.0000855  )
         8           H   tau(   8) = (   0.1179548   0.2049361   0.0000402  )
         9           H   tau(   9) = (   0.2379293  -0.0000000   0.0000010  )
        10           H   tau(  10) = (   0.1179548  -0.2049361   0.0001604  )
        11           H   tau(  11) = (  -0.1206365  -0.1969070   0.0002440  )

     number of k points=     1
                       cart. coord. in units 2pi/alat
        k(    1) = (   0.0000000   0.0000000   0.0000000), wk =   2.0000000

     Dense  grid:   350738 G-vectors     FFT dimensions: ( 120, 120, 120)

     Smooth grid:    88755 G-vectors     FFT dimensions: (  72,  72,  72)

     Estimated max dynamical RAM per process >     300.59MB

     Initial potential from superposition of free atoms
     Check: negative starting charge=   -0.000446

     starting charge   29.51871, renormalised to   30.00000

     negative rho (up, down):  4.533E-04 0.000E+00
     Starting wfc are   29 randomized atomic wfcs

     total cpu time spent up to now is       13.5 secs

     Self-consistent Calculation

     iteration #  1     ecut=    30.00 Ry     beta=0.70
     Davidson diagonalization with overlap
     ethr =  1.00E-02,  avg # of iterations =  2.0

     negative rho (up, down):  1.360E-04 0.000E+00

     add environment contribution to local potential
     polarization accuracy = 6.7E-06, # of iterations =  15

     total cpu time spent up to now is       19.9 secs

     total energy              =     -82.25337875 Ry
     Harris-Foulkes estimate   =     -83.63778213 Ry
     estimated scf accuracy    <       2.07062237 Ry
     electrostatic embedding   =       0.00000000 Ry
     electrolyte free energy   =       0.00484086 Ry
     correction to one-el term =       0.00000000 Ry

     iteration #  2     ecut=    30.00 Ry     beta=0.70
     Davidson diagonalization with overlap
     ethr =  6.90E-03,  avg # of iterations =  3.0

     negative rho (up, down):  1.551E-04 0.000E+00

     add environment contribution to local potential
     polarization accuracy = 4.6E-06, # of iterations =  16

     total cpu time spent up to now is       26.7 secs

     total energy              =     -82.44711391 Ry
     Harris-Foulkes estimate   =     -82.81768632 Ry
     estimated scf accuracy    <       0.49787437 Ry
     electrostatic embedding   =      -0.02775031 Ry
     electrolyte free energy   =       0.00475093 Ry
     correction to one-el term =       0.07318107 Ry

     iteration #  3     ecut=    30.00 Ry     beta=0.70
     Davidson diagonalization with overlap
     ethr =  1.66E-03,  avg # of iterations =  4.0

     negative rho (up, down):  1.952E-04 0.000E+00

     add environment contribution to local potential
     polarization accuracy = 5.3E-06, # of iterations =  16

     total cpu time spent up to now is       33.5 secs

     total energy              =     -82.59186269 Ry
     Harris-Foulkes estimate   =     -83.25883034 Ry
     estimated scf accuracy    <       0.20621520 Ry
     electrostatic embedding   =      -0.02444513 Ry
     electrolyte free energy   =       0.00473305 Ry
     correction to one-el term =       0.58486942 Ry

     iteration #  4     ecut=    30.00 Ry     beta=0.70
     Davidson diagonalization with overlap
     ethr =  6.87E-04,  avg # of iterations =  4.0

     negative rho (up, down):  5.008E-05 0.000E+00

     add environment contribution to local potential
     polarization accuracy = 7.3E-06, # of iterations =  16

     total cpu time spent up to now is       40.4 secs

     total energy              =     -82.64259488 Ry
     Harris-Foulkes estimate   =     -83.44766231 Ry
     estimated scf accuracy    <       0.00852720 Ry
     electrostatic embedding   =      -0.01663720 Ry
     electrolyte free energy   =       0.00476213 Ry
     correction to one-el term =       0.81273181 Ry

     iteration #  5     ecut=    30.00 Ry     beta=0.70
     Davidson diagonalization with overlap
     ethr =  2.84E-05,  avg # of iterations =  4.0

     negative rho (up, down):  5.255E-05 0.000E+00

     add environment contribution to local potential
     polarization accuracy = 7.7E-06, # of iterations =  16

     total cpu time spent up to now is       47.2 secs

     total energy              =     -82.64559687 Ry
     Harris-Foulkes estimate   =     -83.60328474 Ry
     estimated scf accuracy    <       0.00114818 Ry
     electrostatic embedding   =      -0.01813991 Ry
     electrolyte free energy   =       0.00474770 Ry
     correction to one-el term =       0.97063617 Ry

     iteration #  6     ecut=    30.00 Ry     beta=0.70
     Davidson diagonalization with overlap
     ethr =  3.83E-06,  avg # of iterations =  3.0

     negative rho (up, down):  1.385E-04 0.000E+00

     total cpu time spent up to now is       49.7 secs

     End of self-consistent calculation

          k = 0.0000 0.0000 0.0000 ( 11060 PWs)   bands (ev):

   -23.2619 -19.6456 -18.8659 -15.3941 -15.2857 -12.8118 -11.6567 -11.2064
   -10.4484  -9.7879  -9.4676  -8.6937  -7.0545  -6.6514  -5.5905

     highest occupied level (ev):    -5.5905

!    total energy              =     -82.64586760 Ry
     Harris-Foulkes estimate   =     -83.64577798 Ry
     estimated scf accuracy    <       0.00008910 Ry

     The total energy is the sum of the following terms:

     one-electron contribution =    -292.43620871 Ry
     hartree contribution      =     149.40555595 Ry
     xc contribution           =     -25.97253856 Ry
     ewald contribution        =      85.35745671 Ry
     electrostatic embedding   =      -0.01802992 Ry
     electrolyte free energy   =       0.00474644 Ry
     correction to one-el term =       1.01315050 Ry

     convergence has been achieved in   6 iterations

     Forces acting on atoms (cartesian axes, Ry/au):

     atom    1 type  1   force =    -0.04642383    0.00000172    0.00000357
     atom    2 type  2   force =    -0.00609694   -0.06242610    0.00002609
     atom    3 type  2   force =     0.02085289    0.01692359   -0.00004607
     atom    4 type  2   force =     0.00615157   -0.00000312    0.00000578
     atom    5 type  2   force =     0.02086065   -0.01691295    0.00000644
     atom    6 type  2   force =    -0.00611348    0.06242714    0.00001167
     atom    7 type  3   force =     0.00204050    0.00194951    0.00000898
     atom    8 type  3   force =     0.00533206   -0.00365879   -0.00000835
     atom    9 type  3   force =    -0.00397899    0.00000266    0.00002916
     atom   10 type  3   force =     0.00533997    0.00364642   -0.00002496
     atom   11 type  3   force =     0.00203561   -0.00195008   -0.00001230

     Total force =     0.107794     Total SCF correction =     0.015458
     SCF correction compared to forces is large: reduce conv_thr to get better values

     Writing output data file pwscf.save

     init_run     :     12.64s CPU     13.42s WALL (       1 calls)
     electrons    :     32.97s CPU     36.24s WALL (       1 calls)
     forces       :     17.05s CPU     17.49s WALL (       1 calls)

     Called by init_run:
     wfcinit      :      0.15s CPU      0.15s WALL (       1 calls)
     potinit      :      1.69s CPU      1.77s WALL (       1 calls)

     Called by electrons:
     c_bands      :      1.48s CPU      1.43s WALL (       6 calls)
     sum_band     :      3.58s CPU      3.80s WALL (       6 calls)
     v_of_rho     :      4.61s CPU      5.00s WALL (       7 calls)
     newd         :      1.90s CPU      2.85s WALL (       7 calls)
     mix_rho      :      0.39s CPU      0.45s WALL (       6 calls)

     Called by c_bands:
     init_us_2    :      0.04s CPU      0.07s WALL (      13 calls)
     regterg      :      1.40s CPU      1.34s WALL (       6 calls)

     Called by sum_band:
     sum_band:bec :      0.00s CPU      0.00s WALL (       6 calls)
     addusdens    :      2.69s CPU      2.89s WALL (       6 calls)

     Called by *egterg:
     h_psi        :      1.31s CPU      1.28s WALL (      27 calls)
     s_psi        :      0.06s CPU      0.02s WALL (      27 calls)
     g_psi        :      0.01s CPU      0.01s WALL (      20 calls)
     rdiaghg      :      0.01s CPU      0.01s WALL (      26 calls)

     Called by h_psi:
     h_psi:pot    :      1.30s CPU      1.27s WALL (      27 calls)
     h_psi:calbec :      0.04s CPU      0.04s WALL (      27 calls)
     vloc_psi     :      1.20s CPU      1.21s WALL (      27 calls)
     add_vuspsi   :      0.06s CPU      0.02s WALL (      27 calls)

     General routines
     calbec       :      0.06s CPU      0.06s WALL (      37 calls)
     fft          :     11.00s CPU     11.06s WALL (     369 calls)
     ffts         :      0.07s CPU      0.07s WALL (      13 calls)
     fftw         :      1.11s CPU      1.12s WALL (     364 calls)
     interpolate  :      0.53s CPU      0.57s WALL (      13 calls)
     davcio       :      0.00s CPU      0.00s WALL (       1 calls)


     Environ routines
     calc_eelect  :      0.04s CPU      0.04s WALL (      12 calls)
     calc_velect  :     16.61s CPU     18.07s WALL (      10 calls)
     dielectric   :      0.34s CPU      0.42s WALL (       9 calls)
     electrolyte  :      0.01s CPU      0.01s WALL (       2 calls)
     calc_felect  :      0.23s CPU      0.24s WALL (       1 calls)

     PWSCF        :  1m 2.79s CPU     1m 7.37s WALL


   This run was terminated on:  14:49:17   1Jan2018            

=------------------------------------------------------------------------------=
   JOB DONE.
=------------------------------------------------------------------------------=

%%%% IONS %%%%%%%%%%%%%%%%%%%%%%%%%%%%%%%%%%%%%%%%%%%%%%%%%%%%%%%%%%%%%%%%%%%%%%
 number of ions             =         11
 ionic center of charge     =      0.0072664     0.0000000     0.0001166
 total ionic charge         =    -30.0000000
 ionic dipole               =      0.0000000     0.0000000     0.0000000
 ionic quadrupole (pc)      =   -131.0719095  -146.7987094    -0.0000314
 ionic quadrupole (gauss)   =   -134.8219095  -150.5487094    -3.7500314
 ion   1 type =  1 coordinates =     -2.4454071     0.0000002     0.0030272
 ion   2 type =  2 coordinates =     -1.2331440     2.2473584     0.0020749
 ion   3 type =  2 coordinates =      1.3781229     2.2851921     0.0014627
 ion   4 type =  2 coordinates =      2.6939354     0.0000002     0.0013189
 ion   5 type =  2 coordinates =      1.3781232    -2.2851919     0.0026521
 ion   6 type =  2 coordinates =     -1.2331437    -2.2473574     0.0035464
 ion   7 type =  3 coordinates =     -2.4127312     3.9381412     0.0017094
 ion   8 type =  3 coordinates =      2.3590962     4.0987221     0.0008035
 ion   9 type =  3 coordinates =      4.7585861    -0.0000002     0.0000199
 ion  10 type =  3 coordinates =      2.3590968    -4.0987217     0.0032074
 ion  11 type =  3 coordinates =     -2.4127303    -3.9381403     0.0048805

%%%% SYSTEM %%%%%%%%%%%%%%%%%%%%%%%%%%%%%%%%%%%%%%%%%%%%%%%%%%%%%%%%%%%%%%%%%%%%
 system is built from all present ionic types
 system defined dimension   =  0 
 system defined axis        =  3 
 system center              =      0.0072664     0.0000000     0.0001166 
 system width               =      0.2348011 

%%%% DIELECTRIC %%%%%%%%%%%%%%%%%%%%%%%%%%%%%%%%%%%%%%%%%%%%%%%%%%%%%%%%%%%%%%%%%
 dielectric build on homogeneous background
 environment bulk permitt.  =     20.0000000 
 dielectric flags
 need gradient              =  F 
 need factor depend. sqrt   =  T 
 total dielectric charge    =      0.0000000

%%%% BOUNDARY %%%%%%%%%%%%%%%%%%%%%%%%%%%%%%%%%%%%%%%%%%%%%%%%%%%%%%%%%%%%%%%%%%
 boundary mode              = ionic                
 boundary is built from soft-spheres centered on ionic positions
 solvent-dependent scaling  =      1.5000000 
 softness parameter         =      0.5000000 
 volume of the QM region    =   1716.7618872 
 surface of the QM region   =    717.2136638 

%%%% ELECTROLYTE %%%%%%%%%%%%%%%%%%%%%%%%%%%%%%%%%%%%%%%%%%%%%%%%%%%%%%%%%%%%%%%%
 number electrol. species   =    2
 solvent temperature        =   300.0
 Debye length / sqrt(eps)   =      0.2301070
 modified Poisson-Boltzmann 
 maximum concentration      =      0.0190986
 electrolyte species    1
 bulk concentration  (a.u.) =      0.7139E-03
 bulk concentration (mol/L) =      8.0000000
 ionic charge               =   -1.00
 electrolyte species    2
 bulk concentration  (a.u.) =      0.7139E-03
 bulk concentration (mol/L) =      8.0000000
 ionic charge               =    1.00
 electrolyte flags
 linearized                 =  T
 total electrolyte charge   =      0.0000000

%%%% ELECTRONS %%%%%%%%%%%%%%%%%%%%%%%%%%%%%%%%%%%%%%%%%%%%%%%%%%%%%%%%%%%%%%%%%
 number of electrons        =         30
 total electronic charge    =     30.0000000
 number of spin components  =  1

%%%% BOUNDARY %%%%%%%%%%%%%%%%%%%%%%%%%%%%%%%%%%%%%%%%%%%%%%%%%%%%%%%%%%%%%%%%%%
 boundary mode              = electronic           
 boundary is built as a function of a smooth density
 function type              =  2 
 using the modified SCCS function with parameters 
 rhomax                     =      0.0050000 
 rhomin                     =      0.0001000 
 volume of the QM region    =   2407.1059985 
 surface of the QM region   =    815.5587051 

%%%% DIELECTRIC %%%%%%%%%%%%%%%%%%%%%%%%%%%%%%%%%%%%%%%%%%%%%%%%%%%%%%%%%%%%%%%%%
 dielectric build on homogeneous background
 environment bulk permitt.  =     20.0000000 
 dielectric flags
 need gradient              =  F 
 need factor depend. sqrt   =  T 
 total dielectric charge    =      0.0000000

%%%% ELECTRONS %%%%%%%%%%%%%%%%%%%%%%%%%%%%%%%%%%%%%%%%%%%%%%%%%%%%%%%%%%%%%%%%%
 number of electrons        =         30
 total electronic charge    =     30.0000000
 number of spin components  =  1

%%%% BOUNDARY %%%%%%%%%%%%%%%%%%%%%%%%%%%%%%%%%%%%%%%%%%%%%%%%%%%%%%%%%%%%%%%%%%
 boundary mode              = electronic           
 boundary is built as a function of a smooth density
 function type              =  2 
 using the modified SCCS function with parameters 
 rhomax                     =      0.0050000 
 rhomin                     =      0.0001000 
 volume of the QM region    =   1074.1872471 
 surface of the QM region   =    527.4241024 

%%%% DIELECTRIC %%%%%%%%%%%%%%%%%%%%%%%%%%%%%%%%%%%%%%%%%%%%%%%%%%%%%%%%%%%%%%%%%
 dielectric build on homogeneous background
 environment bulk permitt.  =     20.0000000 
 dielectric flags
 need gradient              =  F 
 need factor depend. sqrt   =  T 
 total dielectric charge    =      0.0000000

%%%% COMPUTE ELECTROSTATIC POTENTIAL %%%%%%%%%%%%%%%%%%%%%%%%%%%%%%%%%%%%%%%%%%%
 Iteration #          1
  pAp =    124.40171064683689       rzold =    120.82064324098198       alpha =   0.97121368036472444     
 delta_qm =   0.157493E-01 delta_en =   0.428616E+03 tol =   0.100000E-04
 Iteration #          2
  pAp =    6239.4095061335329       rzold =    139.72553889477814       alpha =    2.2394032441278876E-002
 delta_qm =   0.351751E-02 delta_en =   0.213803E+02 tol =   0.100000E-04
 Iteration #          3
  pAp =    10.122031699899283       rzold =    1.3357980279701793       alpha =   0.13196935828441150     
 delta_qm =   0.150401E-02 delta_en =   0.390881E+01 tol =   0.100000E-04
 Iteration #          4
  pAp =   0.75346275707658250       rzold =   0.13421357823172891       alpha =   0.17812901430254416     
 delta_qm =   0.697615E-03 delta_en =   0.840961E+00 tol =   0.100000E-04
 Iteration #          5
  pAp =   0.46065337193755751       rzold =    4.4108569048461235E-002  alpha =    9.5752189684264896E-002
 delta_qm =   0.418858E-03 delta_en =   0.303163E+00 tol =   0.100000E-04
 Iteration #          6
  pAp =    8.4920571188124627E-002  rzold =    1.1768669081092359E-002  alpha =   0.13858443150389574     
 delta_qm =   0.230552E-03 delta_en =   0.918507E-01 tol =   0.100000E-04
 Iteration #          7
  pAp =    1.0247555815425986E-002  rzold =    1.9348423835205020E-003  alpha =   0.18881013369138419     
 delta_qm =   0.123808E-03 delta_en =   0.264873E-01 tol =   0.100000E-04
 Iteration #          8
  pAp =    1.4313192290846674E-003  rzold =    2.5234933856706270E-004  alpha =   0.17630542050946998     
 delta_qm =   0.918146E-04 delta_en =   0.145669E-01 tol =   0.100000E-04
 Iteration #          9
  pAp =    2.0830852165900967E-003  rzold =    2.8984015640909989E-004  alpha =   0.13913984608059066     
 delta_qm =   0.472557E-04 delta_en =   0.385879E-02 tol =   0.100000E-04
 Iteration #         10
  pAp =    1.1153794963986208E-004  rzold =    3.3765896624303408E-005  alpha =   0.30273011771623920     
 delta_qm =   0.239286E-04 delta_en =   0.989416E-03 tol =   0.100000E-04
 Iteration #         11
  pAp =    8.8124359332963258E-005  rzold =    1.5626760423558132E-005  alpha =   0.17732623013479182     
 delta_qm =   0.127448E-04 delta_en =   0.280678E-03 tol =   0.100000E-04
 Iteration #         12
  pAp =    1.8361630240523648E-005  rzold =    3.9986102128807198E-006  alpha =   0.21776989082678996     
 delta_qm =   0.639886E-05 delta_en =   0.707537E-04 tol =   0.100000E-04
 Iteration #         13
  pAp =    2.0657724350389249E-005  rzold =    1.7326715757970860E-006  alpha =    8.3875239421734166E-002
 delta_qm =   0.469481E-05 delta_en =   0.380873E-04 tol =   0.100000E-04
 Iteration #         14
  pAp =    4.9399191075662287E-006  rzold =    4.7345338424966136E-007  alpha =    9.5842335459399797E-002
 delta_qm =   0.345908E-05 delta_en =   0.206759E-04 tol =   0.100000E-04
 Iteration #         15
  pAp =    1.6161407997732231E-005  rzold =    1.0495496084355924E-006  alpha =    6.4941718480398813E-002
 delta_qm =   0.197367E-05 delta_en =   0.673120E-05 tol =   0.100000E-04
 Charges are converged, EXIT

%%%% ELECTRONS %%%%%%%%%%%%%%%%%%%%%%%%%%%%%%%%%%%%%%%%%%%%%%%%%%%%%%%%%%%%%%%%%
 number of electrons        =         30
 total electronic charge    =     30.0000000
 number of spin components  =  1

%%%% BOUNDARY %%%%%%%%%%%%%%%%%%%%%%%%%%%%%%%%%%%%%%%%%%%%%%%%%%%%%%%%%%%%%%%%%%
 boundary mode              = electronic           
 boundary is built as a function of a smooth density
 function type              =  2 
 using the modified SCCS function with parameters 
 rhomax                     =      0.0050000 
 rhomin                     =      0.0001000 
 volume of the QM region    =   1023.3606699 
 surface of the QM region   =    515.6942849 

%%%% DIELECTRIC %%%%%%%%%%%%%%%%%%%%%%%%%%%%%%%%%%%%%%%%%%%%%%%%%%%%%%%%%%%%%%%%%
 dielectric build on homogeneous background
 environment bulk permitt.  =     20.0000000 
 dielectric flags
 need gradient              =  F 
 need factor depend. sqrt   =  T 
 total dielectric charge    =     -0.0023817

%%%% COMPUTE ELECTROSTATIC POTENTIAL %%%%%%%%%%%%%%%%%%%%%%%%%%%%%%%%%%%%%%%%%%%
 Warning: bad guess with residual norm =   0.271154E+03, reset to no guess
 Iteration #          1
  pAp =    124.37253656688328       rzold =    122.30140258912357       alpha =   0.98334733667954155     
 delta_qm =   0.123847E-01 delta_en =   0.265043E+03 tol =   0.100000E-04
 Iteration #          2
  pAp =    3545.4684283881047       rzold =    78.529501489025193       alpha =    2.2149259843988366E-002
 delta_qm =   0.363617E-02 delta_en =   0.228471E+02 tol =   0.100000E-04
 Iteration #          3
  pAp =    19.352322625397850       rzold =    1.6650003120173671       alpha =    8.6036200628044124E-002
 delta_qm =   0.197996E-02 delta_en =   0.677417E+01 tol =   0.100000E-04
 Iteration #          4
  pAp =    3.4234945294795587       rzold =   0.39146345127274673       alpha =   0.11434615942916584     
 delta_qm =   0.955370E-03 delta_en =   0.157720E+01 tol =   0.100000E-04
 Iteration #          5
  pAp =   0.37741018172961954       rzold =    5.9380975991715365E-002  alpha =   0.15733803396500970     
 delta_qm =   0.380387E-03 delta_en =   0.250032E+00 tol =   0.100000E-04
 Iteration #          6
  pAp =    3.1626208722600128E-002  rzold =    6.0046307809294049E-003  alpha =   0.18986249137850306     
 delta_qm =   0.191850E-03 delta_en =   0.636013E-01 tol =   0.100000E-04
 Iteration #          7
  pAp =    5.9516347880085602E-003  rzold =    1.1020304892603026E-003  alpha =   0.18516433358456227     
 delta_qm =   0.117828E-03 delta_en =   0.239904E-01 tol =   0.100000E-04
 Iteration #          8
  pAp =    7.0788945555521688E-004  rzold =    1.7929407119541901E-004  alpha =   0.25327975969749938     
 delta_qm =   0.748981E-04 delta_en =   0.969361E-02 tol =   0.100000E-04
 Iteration #          9
  pAp =    2.2142072742959698E-003  rzold =    2.1655224135197815E-004  alpha =    9.7801250978562154E-002
 delta_qm =   0.467211E-04 delta_en =   0.377198E-02 tol =   0.100000E-04
 Iteration #         10
  pAp =    1.0534559141709427E-004  rzold =    3.1872136380975533E-005  alpha =   0.30254836440933103     
 delta_qm =   0.212327E-04 delta_en =   0.779031E-03 tol =   0.100000E-04
 Iteration #         11
  pAp =    8.6893956374395025E-005  rzold =    1.2904594486700722E-005  alpha =   0.14850968957034749     
 delta_qm =   0.129215E-04 delta_en =   0.288514E-03 tol =   0.100000E-04
 Iteration #         12
  pAp =    1.6531660195047605E-005  rzold =    2.8611320178200334E-006  alpha =   0.17306985408985986     
 delta_qm =   0.894438E-05 delta_en =   0.138243E-03 tol =   0.100000E-04
 Iteration #         13
  pAp =    2.2115929301781568E-005  rzold =    2.6005887446576444E-006  alpha =   0.11758894275576073     
 delta_qm =   0.531677E-05 delta_en =   0.488472E-04 tol =   0.100000E-04
 Iteration #         14
  pAp =    2.4410857660013159E-006  rzold =    3.0436368138567074E-007  alpha =   0.12468373115961492     
 delta_qm =   0.488492E-05 delta_en =   0.412344E-04 tol =   0.100000E-04
 Iteration #         15
  pAp =    1.5716460789903189E-005  rzold =    9.3351560424325791E-007  alpha =    5.9397317037368960E-002
 delta_qm =   0.324125E-05 delta_en =   0.181538E-04 tol =   0.100000E-04
 Iteration #         16
  pAp =    1.4037678223567097E-007  rzold =    6.4863375713428217E-008  alpha =   0.46206626680281510     
 delta_qm =   0.163590E-05 delta_en =   0.462442E-05 tol =   0.100000E-04
 Charges are converged, EXIT

%%%% ELECTRONS %%%%%%%%%%%%%%%%%%%%%%%%%%%%%%%%%%%%%%%%%%%%%%%%%%%%%%%%%%%%%%%%%
 number of electrons        =         30
 total electronic charge    =     30.0000000
 number of spin components  =  1

%%%% BOUNDARY %%%%%%%%%%%%%%%%%%%%%%%%%%%%%%%%%%%%%%%%%%%%%%%%%%%%%%%%%%%%%%%%%%
 boundary mode              = electronic           
 boundary is built as a function of a smooth density
 function type              =  2 
 using the modified SCCS function with parameters 
 rhomax                     =      0.0050000 
 rhomin                     =      0.0001000 
 volume of the QM region    =    991.2035920 
 surface of the QM region   =    508.2821751 

%%%% DIELECTRIC %%%%%%%%%%%%%%%%%%%%%%%%%%%%%%%%%%%%%%%%%%%%%%%%%%%%%%%%%%%%%%%%%
 dielectric build on homogeneous background
 environment bulk permitt.  =     20.0000000 
 dielectric flags
 need gradient              =  F 
 need factor depend. sqrt   =  T 
 total dielectric charge    =     -0.0008393

%%%% COMPUTE ELECTROSTATIC POTENTIAL %%%%%%%%%%%%%%%%%%%%%%%%%%%%%%%%%%%%%%%%%%%
 Warning: bad guess with residual norm =   0.181627E+03, reset to no guess
 Iteration #          1
  pAp =    124.08060883111214       rzold =    122.82589644025143       alpha =   0.98988792525535940     
 delta_qm =   0.101787E-01 delta_en =   0.179032E+03 tol =   0.100000E-04
 Iteration #          2
  pAp =    2232.0379829327162       rzold =    48.513842047907666       alpha =    2.1735222437462478E-002
 delta_qm =   0.308331E-02 delta_en =   0.164277E+02 tol =   0.100000E-04
 Iteration #          3
  pAp =    10.869256465318909       rzold =   0.99852052045787165       alpha =    9.1866497367497219E-002
 delta_qm =   0.160058E-02 delta_en =   0.442691E+01 tol =   0.100000E-04
 Iteration #          4
  pAp =    2.2830343503997610       rzold =   0.24267165730340623       alpha =   0.10629347616294701     
 delta_qm =   0.811946E-03 delta_en =   0.113919E+01 tol =   0.100000E-04
 Iteration #          5
  pAp =   0.27334568606517806       rzold =    4.3047141982513921E-002  alpha =   0.15748242674753435     
 delta_qm =   0.335366E-03 delta_en =   0.194349E+00 tol =   0.100000E-04
 Iteration #          6
  pAp =    2.3358300166222805E-002  rzold =    4.4947221577662268E-003  alpha =   0.19242505344056693     
 delta_qm =   0.166556E-03 delta_en =   0.479364E-01 tol =   0.100000E-04
 Iteration #          7
  pAp =    4.1168056198280460E-003  rzold =    7.5863959832948608E-004  alpha =   0.18427870256385182     
 delta_qm =   0.108913E-03 delta_en =   0.204977E-01 tol =   0.100000E-04
 Iteration #          8
  pAp =    4.7672005192990377E-004  rzold =    1.3748382824286861E-004  alpha =   0.28839531227246140     
 delta_qm =   0.634137E-04 delta_en =   0.694880E-02 tol =   0.100000E-04
 Iteration #          9
  pAp =    1.6612240001279434E-003  rzold =    1.4537716428037506E-004  alpha =    8.7512078003435093E-002
 delta_qm =   0.421839E-04 delta_en =   0.307494E-02 tol =   0.100000E-04
 Iteration #         10
  pAp =    7.8540749655000772E-005  rzold =    2.3362989225861335E-005  alpha =   0.29746328279887752     
 delta_qm =   0.202934E-04 delta_en =   0.711629E-03 tol =   0.100000E-04
 Iteration #         11
  pAp =    6.4184705287283702E-005  rzold =    9.9536894706608748E-006  alpha =   0.15507883733530056     
 delta_qm =   0.129253E-04 delta_en =   0.288688E-03 tol =   0.100000E-04
 Iteration #         12
  pAp =    8.6681836973146727E-006  rzold =    2.0640155464927969E-006  alpha =   0.23811396003665805     
 delta_qm =   0.793546E-05 delta_en =   0.108815E-03 tol =   0.100000E-04
 Iteration #         13
  pAp =    1.9436985251350908E-005  rzold =    1.6997113579270916E-006  alpha =    8.7447273121172855E-002
 delta_qm =   0.583437E-05 delta_en =   0.588210E-04 tol =   0.100000E-04
 Iteration #         14
  pAp =    6.8775360421498061E-007  rzold =    2.4760704917034666E-007  alpha =   0.36002290304675555     
 delta_qm =   0.388455E-05 delta_en =   0.260751E-04 tol =   0.100000E-04
 Iteration #         15
  pAp =    2.2111818728429973E-006  rzold =    1.3572960439090780E-007  alpha =    6.1383283780449632E-002
 delta_qm =   0.333057E-05 delta_en =   0.191681E-04 tol =   0.100000E-04
 Iteration #         16
  pAp =    1.3665913317566037E-006  rzold =    2.2302704199110591E-007  alpha =   0.16319951459404403     
 delta_qm =   0.174819E-05 delta_en =   0.528105E-05 tol =   0.100000E-04
 Charges are converged, EXIT

%%%% ELECTRONS %%%%%%%%%%%%%%%%%%%%%%%%%%%%%%%%%%%%%%%%%%%%%%%%%%%%%%%%%%%%%%%%%
 number of electrons        =         30
 total electronic charge    =     30.0000000
 number of spin components  =  1

%%%% BOUNDARY %%%%%%%%%%%%%%%%%%%%%%%%%%%%%%%%%%%%%%%%%%%%%%%%%%%%%%%%%%%%%%%%%%
 boundary mode              = electronic           
 boundary is built as a function of a smooth density
 function type              =  2 
 using the modified SCCS function with parameters 
 rhomax                     =      0.0050000 
 rhomin                     =      0.0001000 
 volume of the QM region    =    971.9612296 
 surface of the QM region   =    503.6576055 

%%%% DIELECTRIC %%%%%%%%%%%%%%%%%%%%%%%%%%%%%%%%%%%%%%%%%%%%%%%%%%%%%%%%%%%%%%%%%
 dielectric build on homogeneous background
 environment bulk permitt.  =     20.0000000 
 dielectric flags
 need gradient              =  F 
 need factor depend. sqrt   =  T 
 total dielectric charge    =      0.0000631

%%%% COMPUTE ELECTROSTATIC POTENTIAL %%%%%%%%%%%%%%%%%%%%%%%%%%%%%%%%%%%%%%%%%%%
 Warning: bad guess with residual norm =   0.148996E+03, reset to no guess
 Iteration #          1
  pAp =    123.57749834870963       rzold =    122.60018742308658       alpha =   0.99209151391893957     
 delta_qm =   0.923266E-02 delta_en =   0.147298E+03 tol =   0.100000E-04
 Iteration #          2
  pAp =    1643.6501380331777       rzold =    35.871762376725854       alpha =    2.1824451290863318E-002
 delta_qm =   0.324607E-02 delta_en =   0.182079E+02 tol =   0.100000E-04
 Iteration #          3
  pAp =    12.634623830986369       rzold =    1.0825233757496913       alpha =    8.5679114014839658E-002
 delta_qm =   0.169671E-02 delta_en =   0.497460E+01 tol =   0.100000E-04
 Iteration #          4
  pAp =    2.2491733502737508       rzold =   0.25452717990488494       alpha =   0.11316476779075565     
 delta_qm =   0.826099E-03 delta_en =   0.117926E+01 tol =   0.100000E-04
 Iteration #          5
  pAp =   0.29334909442066115       rzold =    4.5041346914420861E-002  alpha =   0.15354179634804596     
 delta_qm =   0.341559E-03 delta_en =   0.201593E+00 tol =   0.100000E-04
 Iteration #          6
  pAp =    2.1970986644366974E-002  rzold =    4.4071300882528638E-003  alpha =   0.20058862897642263     
 delta_qm =   0.160249E-03 delta_en =   0.443746E-01 tol =   0.100000E-04
 Iteration #          7
  pAp =    3.5917365985330177E-003  rzold =    6.5795478053442191E-004  alpha =   0.18318569930856068     
 delta_qm =   0.111897E-03 delta_en =   0.216362E-01 tol =   0.100000E-04
 Iteration #          8
  pAp =    4.6506707960061218E-004  rzold =    1.4296799035717962E-004  alpha =   0.30741369713796324     
 delta_qm =   0.605011E-04 delta_en =   0.632514E-02 tol =   0.100000E-04
 Iteration #          9
  pAp =    1.3000231806527211E-003  rzold =    1.1051392541357924E-004  alpha =    8.5009196034559892E-002
 delta_qm =   0.438923E-04 delta_en =   0.332905E-02 tol =   0.100000E-04
 Iteration #         10
  pAp =    9.1124769991747097E-005  rzold =    2.5836994243455094E-005  alpha =   0.28353426017750250     
 delta_qm =   0.215649E-04 delta_en =   0.803601E-03 tol =   0.100000E-04
 Iteration #         11
  pAp =    6.4496159334746162E-005  rzold =    9.9520272811362282E-006  alpha =   0.15430418467995116     
 delta_qm =   0.148065E-04 delta_en =   0.378836E-03 tol =   0.100000E-04
 Iteration #         12
  pAp =    7.7869423577574924E-006  rzold =    2.1533316445446178E-006  alpha =   0.27653108827747130     
 delta_qm =   0.888690E-05 delta_en =   0.136472E-03 tol =   0.100000E-04
 Iteration #         13
  pAp =    1.7721519201456112E-005  rzold =    1.4644908217785082E-006  alpha =    8.2639123944756171E-002
 delta_qm =   0.740196E-05 delta_en =   0.946755E-04 tol =   0.100000E-04
 Iteration #         14
  pAp =    3.8605398913696720E-006  rzold =    3.9622496062908409E-007  alpha =   0.10263459821121246     
 delta_qm =   0.612187E-05 delta_en =   0.647607E-04 tol =   0.100000E-04
 Iteration #         15
  pAp =    1.3092682706785071E-005  rzold =    1.1402062170386041E-006  alpha =    8.7087287042227846E-002
 delta_qm =   0.432493E-05 delta_en =   0.323223E-04 tol =   0.100000E-04
 Iteration #         16
  pAp =    3.5544341348043222E-007  rzold =    1.4195160112106791E-007  alpha =   0.39936483765757724     
 delta_qm =   0.205004E-05 delta_en =   0.726224E-05 tol =   0.100000E-04
 Charges are converged, EXIT

%%%% ELECTRONS %%%%%%%%%%%%%%%%%%%%%%%%%%%%%%%%%%%%%%%%%%%%%%%%%%%%%%%%%%%%%%%%%
 number of electrons        =         30
 total electronic charge    =     30.0000000
 number of spin components  =  1

%%%% BOUNDARY %%%%%%%%%%%%%%%%%%%%%%%%%%%%%%%%%%%%%%%%%%%%%%%%%%%%%%%%%%%%%%%%%%
 boundary mode              = electronic           
 boundary is built as a function of a smooth density
 function type              =  2 
 using the modified SCCS function with parameters 
 rhomax                     =      0.0050000 
 rhomin                     =      0.0001000 
 volume of the QM region    =    969.9396942 
 surface of the QM region   =    503.5556997 

%%%% DIELECTRIC %%%%%%%%%%%%%%%%%%%%%%%%%%%%%%%%%%%%%%%%%%%%%%%%%%%%%%%%%%%%%%%%%
 dielectric build on homogeneous background
 environment bulk permitt.  =     20.0000000 
 dielectric flags
 need gradient              =  F 
 need factor depend. sqrt   =  T 
 total dielectric charge    =      0.0006201

%%%% COMPUTE ELECTROSTATIC POTENTIAL %%%%%%%%%%%%%%%%%%%%%%%%%%%%%%%%%%%%%%%%%%%
 Warning: bad guess with residual norm =   0.139318E+03, reset to no guess
 Iteration #          1
  pAp =    123.62105230758904       rzold =    122.72309526587779       alpha =   0.99273621260335987     
 delta_qm =   0.893165E-02 delta_en =   0.137850E+03 tol =   0.100000E-04
 Iteration #          2
  pAp =    1480.9895399880013       rzold =    32.393751225441768       alpha =    2.1873045251693146E-002
 delta_qm =   0.325983E-02 delta_en =   0.183626E+02 tol =   0.100000E-04
 Iteration #          3
  pAp =    13.130102663704879       rzold =    1.0950017195111792       alpha =    8.3396280102063278E-002
 delta_qm =   0.170447E-02 delta_en =   0.502022E+01 tol =   0.100000E-04
 Iteration #          4
  pAp =    2.1765356418431825       rzold =   0.25162663872278473       alpha =   0.11560878392494260     
 delta_qm =   0.815870E-03 delta_en =   0.115023E+01 tol =   0.100000E-04
 Iteration #          5
  pAp =   0.28709228377317381       rzold =    4.3760519545665774E-002  alpha =   0.15242666563703305     
 delta_qm =   0.339717E-03 delta_en =   0.199424E+00 tol =   0.100000E-04
 Iteration #          6
  pAp =    2.0927303727691797E-002  rzold =    4.2582135451340814E-003  alpha =   0.20347645356240771     
 delta_qm =   0.157603E-03 delta_en =   0.429213E-01 tol =   0.100000E-04
 Iteration #          7
  pAp =    3.3628668431595595E-003  rzold =    6.1916588128931071E-004  alpha =   0.18411846503787746     
 delta_qm =   0.111927E-03 delta_en =   0.216478E-01 tol =   0.100000E-04
 Iteration #          8
  pAp =    4.6293029559597561E-004  rzold =    1.4302452180177418E-004  alpha =   0.30895476740757416     
 delta_qm =   0.594814E-04 delta_en =   0.611374E-02 tol =   0.100000E-04
 Iteration #          9
  pAp =    1.1388678879845455E-003  rzold =    9.7855560946726708E-005  alpha =    8.5923540367708232E-002
 delta_qm =   0.440916E-04 delta_en =   0.335935E-02 tol =   0.100000E-04
 Iteration #         10
  pAp =    9.5082314009451276E-005  rzold =    2.6327916467377245E-005  alpha =   0.27689604256749811     
 delta_qm =   0.218400E-04 delta_en =   0.824233E-03 tol =   0.100000E-04
 Iteration #         11
  pAp =    6.2093262487913665E-005  rzold =    9.5993013212275458E-006  alpha =   0.15459489381953528     
 delta_qm =   0.153159E-04 delta_en =   0.405349E-03 tol =   0.100000E-04
 Iteration #         12
  pAp =    7.6939250492831325E-006  rzold =    2.1798805828832112E-006  alpha =   0.28332490489835455     
 delta_qm =   0.922319E-05 delta_en =   0.146996E-03 tol =   0.100000E-04
 Iteration #         13
  pAp =    1.6039445236785120E-005  rzold =    1.3591983396969765E-006  alpha =    8.4740981974848431E-002
 delta_qm =   0.770736E-05 delta_en =   0.102649E-03 tol =   0.100000E-04
 Iteration #         14
  pAp =    1.0765434000644434E-006  rzold =    3.6293032477373579E-007  alpha =   0.33712558616030741     
 delta_qm =   0.480969E-05 delta_en =   0.399740E-04 tol =   0.100000E-04
 Iteration #         15
  pAp =    3.3838823615493050E-005  rzold =    9.8880232919836584E-007  alpha =    2.9220942797362620E-002
 delta_qm =   0.451028E-05 delta_en =   0.351520E-04 tol =   0.100000E-04
 Iteration #         16
  pAp =    4.9219246844505400E-007  rzold =    1.7220048040980686E-007  alpha =   0.34986411099265019     
 delta_qm =   0.211710E-05 delta_en =   0.774511E-05 tol =   0.100000E-04
 Charges are converged, EXIT

%%%% ELECTRONS %%%%%%%%%%%%%%%%%%%%%%%%%%%%%%%%%%%%%%%%%%%%%%%%%%%%%%%%%%%%%%%%%
 number of electrons        =         30
 total electronic charge    =     30.0000000
 number of spin components  =  1

%%%% BOUNDARY %%%%%%%%%%%%%%%%%%%%%%%%%%%%%%%%%%%%%%%%%%%%%%%%%%%%%%%%%%%%%%%%%%
 boundary mode              = electronic           
 boundary is built as a function of a smooth density
 function type              =  2 
 using the modified SCCS function with parameters 
 rhomax                     =      0.0050000 
 rhomin                     =      0.0001000 
 volume of the QM region    =    969.9396942 
 surface of the QM region   =    503.5556997 

%%%% DIELECTRIC %%%%%%%%%%%%%%%%%%%%%%%%%%%%%%%%%%%%%%%%%%%%%%%%%%%%%%%%%%%%%%%%%
 dielectric build on homogeneous background
 environment bulk permitt.  =     20.0000000 
 dielectric flags
 need gradient              =  F 
 need factor depend. sqrt   =  T 
 total dielectric charge    =      0.0006822
