
     Program PWSCF v.6.7MaX starts on  1Oct2021 at 20:31:31 

     This program is part of the open-source Quantum ESPRESSO suite
     for quantum simulation of materials; please cite
         "P. Giannozzi et al., J. Phys.:Condens. Matter 21 395502 (2009);
         "P. Giannozzi et al., J. Phys.:Condens. Matter 29 465901 (2017);
          URL http://www.quantum-espresso.org", 
     in publications or presentations arising from this work. More details at
     http://www.quantum-espresso.org/quote

     Parallel version (MPI), running on     1 processors

     MPI processes distributed on     1 nodes
     Reading input from pw.in

     Current dimensions of program PWSCF are:
     Max number of different atomic species (ntypx) = 10
     Max number of k-points (npk) =  40000
     Max angular momentum in pseudopotentials (lmaxx) =  3

     Reading input from environ.in

     ================================================================================

     Reading ENVIRON namelist

     Reading BOUNDARY namelist

     Checking boundary derivatives
     derivatives               = chain          ! SCCS default

     Reading ELECTROSTATIC namelist

     Setting up electrostatic problem
     problem                   = linmodpb       
     solver                    = cg             

     Checking PBC correction

     ================================================================================
 
     file N.pbe-rrkjus.UPF: wavefunction(s)  2S renormalized
     file C.pbe-rrkjus.UPF: wavefunction(s)  2S 2P renormalized
     file H.pbe-rrkjus.UPF: wavefunction(s)  1S renormalized

     gamma-point specific algorithms are used

     Subspace diagonalization in iterative solution of the eigenvalue problem:
     a serial algorithm will be used

 
     G-vector sticks info
     --------------------
     sticks:   dense  smooth     PW     G-vecs:    dense   smooth      PW
     Sum        9549    3809    949               701475   177509   22119
 


     bravais-lattice index     =            1
     lattice parameter (alat)  =      20.0000  a.u.
     unit-cell volume          =    8000.0000 (a.u.)^3
     number of atoms/cell      =           11
     number of atomic types    =            3
     number of electrons       =        30.00
     number of Kohn-Sham states=           15
     kinetic-energy cutoff     =      30.0000  Ry
     charge density cutoff     =     300.0000  Ry
     scf convergence threshold =      5.0E-04
     mixing beta               =       0.7000
     number of iterations used =            8  plain     mixing
     Exchange-correlation= SLA  PW   PBE  PBE
                           (   1   4   3   4   0   0   0)
 

     Environ Module
     ==============

     Please cite
         O. Andreussi, I. Dabo and N. Marzari, J. Chem. Phys. 136, 064102 (2012)         
     in publications or presentations arising from this work.

     compensation onset threshold      =               0.1000E+03
     static permittivity               =                    20.00
     epsilon calculation mode          =               electronic

     Electrostatic Setup
     -------------------
     electrostatic problem to solve    = linmodpb                
     numerical solver adopted          = cg                      
     type of auxiliary density adopted = none                    
     type of core tool for poisson     = fft                     
     type of core tool for correction  = 1d-analytic             



     celldm(1)=  20.000000  celldm(2)=   0.000000  celldm(3)=   0.000000
     celldm(4)=   0.000000  celldm(5)=   0.000000  celldm(6)=   0.000000

     crystal axes: (cart. coord. in units of alat)
               a(1) = (   1.000000   0.000000   0.000000 )  
               a(2) = (   0.000000   1.000000   0.000000 )  
               a(3) = (   0.000000   0.000000   1.000000 )  

     reciprocal axes: (cart. coord. in units 2 pi/alat)
               b(1) = (  1.000000  0.000000  0.000000 )  
               b(2) = (  0.000000  1.000000  0.000000 )  
               b(3) = (  0.000000  0.000000  1.000000 )  


     PseudoPot. # 1 for N  read from file:
     /home/simplogic86/Work/QE1/Environ/tests/../..//pseudo/N.pbe-rrkjus.UPF
     MD5 check sum: 28c76d763763edb36c62a6ca2be9aebd
     Pseudo is Ultrasoft, Zval =  5.0
     Generated by new atomic code, or converted to UPF format
     Using radial grid of 1257 points,  4 beta functions with: 
                l(1) =   0
                l(2) =   0
                l(3) =   1
                l(4) =   1
     Q(r) pseudized with 0 coefficients 


     PseudoPot. # 2 for C  read from file:
     /home/simplogic86/Work/QE1/Environ/tests/../..//pseudo/C.pbe-rrkjus.UPF
     MD5 check sum: c9ac5a99bc85b198593446162950cd17
     Pseudo is Ultrasoft, Zval =  4.0
     Generated by new atomic code, or converted to UPF format
     Using radial grid of  627 points,  4 beta functions with: 
                l(1) =   0
                l(2) =   0
                l(3) =   1
                l(4) =   1
     Q(r) pseudized with 0 coefficients 


     PseudoPot. # 3 for H  read from file:
     /home/simplogic86/Work/QE1/Environ/tests/../..//pseudo/H.pbe-rrkjus.UPF
     MD5 check sum: 2d52a7f45632fd764c17cc6affed14c8
     Pseudo is Ultrasoft, Zval =  1.0
     Generated by new atomic code, or converted to UPF format
     Using radial grid of 1061 points,  2 beta functions with: 
                l(1) =   0
                l(2) =   0
     Q(r) pseudized with 0 coefficients 


     atomic species   valence    mass     pseudopotential
        N              5.00    14.00000     N ( 1.00)
        C              4.00    12.00000     C ( 1.00)
        H              1.00     1.00000     H ( 1.00)

     No symmetry found



   Cartesian axes

     site n.     atom                  positions (alat units)
         1           N   tau(   1) = (  -0.1222704   0.0000000   0.0001514  )
         2           C   tau(   2) = (  -0.0616572   0.1123679   0.0001037  )
         3           C   tau(   3) = (   0.0689061   0.1142596   0.0000731  )
         4           C   tau(   4) = (   0.1346968   0.0000000   0.0000659  )
         5           C   tau(   5) = (   0.0689062  -0.1142596   0.0001326  )
         6           C   tau(   6) = (  -0.0616572  -0.1123679   0.0001773  )
         7           H   tau(   7) = (  -0.1206366   0.1969071   0.0000855  )
         8           H   tau(   8) = (   0.1179548   0.2049361   0.0000402  )
         9           H   tau(   9) = (   0.2379293  -0.0000000   0.0000010  )
        10           H   tau(  10) = (   0.1179548  -0.2049361   0.0001604  )
        11           H   tau(  11) = (  -0.1206365  -0.1969070   0.0002440  )

     number of k points=     1
                       cart. coord. in units 2pi/alat
        k(    1) = (   0.0000000   0.0000000   0.0000000), wk =   2.0000000

     Dense  grid:   350738 G-vectors     FFT dimensions: ( 120, 120, 120)

     Smooth grid:    88755 G-vectors     FFT dimensions: (  72,  72,  72)

     Estimated max dynamical RAM per process >     599.84 MB

     Initial potential from superposition of free atoms

     starting charge   29.51871, renormalised to   30.00000

     negative rho (up, down):  4.533E-04 0.000E+00
     Starting wfcs are   29 randomized atomic wfcs

     total cpu time spent up to now is        7.3 secs

     Self-consistent Calculation

     iteration #  1     ecut=    30.00 Ry     beta= 0.70
     Davidson diagonalization with overlap
     ethr =  1.00E-02,  avg # of iterations =  2.0

     negative rho (up, down):  1.343E-04 0.000E+00

     add environment contribution to local potential
     Polarization accuracy = 7.0E-06, # of iterations =  14

     total cpu time spent up to now is       13.0 secs

     total energy              =     -82.29325249 Ry
     estimated scf accuracy    <       2.00743679 Ry
     electrostatic embedding   =       0.00000000 Ry
     electrolyte free energy   =       0.00482715 Ry
     correction to one-el term =       0.00000000 Ry

     iteration #  2     ecut=    30.00 Ry     beta= 0.70
     Davidson diagonalization with overlap
     ethr =  6.69E-03,  avg # of iterations =  3.0

     negative rho (up, down):  8.677E-05 0.000E+00

     add environment contribution to local potential
     Polarization accuracy = 4.5E-06, # of iterations =  16

     total cpu time spent up to now is       19.2 secs

     total energy              =     -82.54629668 Ry
     estimated scf accuracy    <       0.29774609 Ry
     electrostatic embedding   =      -0.02779324 Ry
     electrolyte free energy   =       0.00473537 Ry
     correction to one-el term =       0.08448267 Ry

     iteration #  3     ecut=    30.00 Ry     beta= 0.70
     Davidson diagonalization with overlap
     ethr =  9.92E-04,  avg # of iterations =  4.0

     negative rho (up, down):  6.708E-05 0.000E+00

     add environment contribution to local potential
     Polarization accuracy = 6.2E-06, # of iterations =  16

     total cpu time spent up to now is       25.4 secs

     total energy              =     -82.63110785 Ry
     estimated scf accuracy    <       0.05336290 Ry
     electrostatic embedding   =      -0.01954410 Ry
     electrolyte free energy   =       0.00474385 Ry
     correction to one-el term =       0.62934724 Ry

     iteration #  4     ecut=    30.00 Ry     beta= 0.70
     Davidson diagonalization with overlap
     ethr =  1.78E-04,  avg # of iterations =  3.0

     negative rho (up, down):  4.801E-05 0.000E+00

     add environment contribution to local potential
     Polarization accuracy = 7.3E-06, # of iterations =  16

     total cpu time spent up to now is       33.5 secs

     total energy              =     -82.64493754 Ry
     estimated scf accuracy    <       0.00339623 Ry
     electrostatic embedding   =      -0.01715841 Ry
     electrolyte free energy   =       0.00474420 Ry
     correction to one-el term =       0.87178537 Ry

     iteration #  5     ecut=    30.00 Ry     beta= 0.70
     Davidson diagonalization with overlap
     ethr =  1.13E-05,  avg # of iterations =  2.0

     negative rho (up, down):  1.375E-04 0.000E+00

     the potential shift due to the Gaussian-smeared nuclei is    -0.0801 ev

     total cpu time spent up to now is       35.6 secs

     End of self-consistent calculation

          k = 0.0000 0.0000 0.0000 ( 11060 PWs)   bands (ev):

   -23.3127 -19.6280 -18.8725 -15.4074 -15.2808 -12.8091 -11.6634 -11.2006
   -10.4483  -9.8097  -9.4551  -8.6872  -7.0579  -6.6506  -5.6509

     highest occupied level (ev):    -5.6509

!    total energy              =     -82.64567273 Ry
     estimated scf accuracy    <       0.00046982 Ry

     The total energy is the sum of the following terms:
     one-electron contribution =    -292.42118109 Ry
     hartree contribution      =     149.42900208 Ry
     xc contribution           =     -25.97522240 Ry
     ewald contribution        =      85.35745758 Ry
     electrostatic embedding   =      -0.01753433 Ry
     electrolyte free energy   =       0.00473678 Ry
     correction to one-el term =       0.97706866 Ry

     WARNING: you are using the parabolic pbc correction;
              the potential shift above must be added to 
              band and Fermi energies.

     convergence has been achieved in   5 iterations

     Forces acting on atoms (cartesian axes, Ry/au):

     atom    1 type  1   force =    -0.04642764    0.00022795   -0.00001179
     atom    2 type  2   force =    -0.00576600   -0.06089488    0.00007902
     atom    3 type  2   force =     0.01765134    0.01598413   -0.00004622
     atom    4 type  2   force =     0.00773906    0.00004372    0.00000630
     atom    5 type  2   force =     0.01739462   -0.01618208    0.00000494
     atom    6 type  2   force =    -0.00558261    0.06062063   -0.00001656
     atom    7 type  3   force =     0.00300966   -0.00083706    0.00002528
     atom    8 type  3   force =     0.00584095   -0.00118284   -0.00003926
     atom    9 type  3   force =    -0.00265330   -0.00005510    0.00002932
     atom   10 type  3   force =     0.00574961    0.00138512   -0.00002977
     atom   11 type  3   force =     0.00304431    0.00089040   -0.00000126

     Total force =     0.104364     Total SCF correction =     0.037047
     SCF correction compared to forces is large: reduce conv_thr to get better values

     Writing output data file /home/simplogic86/Work/QE1/Environ/tests/../..//tempdir/pwscf.save/
 
     init_run     :      6.99s CPU      7.25s WALL (       1 calls)
     electrons    :     26.67s CPU     28.28s WALL (       1 calls)
     forces       :     21.26s CPU     21.46s WALL (       1 calls)

     Called by init_run:
     wfcinit      :      0.15s CPU      0.15s WALL (       1 calls)
     potinit      :      1.10s CPU      1.13s WALL (       1 calls)
     hinit0       :      5.22s CPU      5.26s WALL (       1 calls)

     Called by electrons:
     c_bands      :      1.11s CPU      1.16s WALL (       5 calls)
     sum_band     :      1.42s CPU      1.78s WALL (       5 calls)
     v_of_rho     :      2.31s CPU      2.63s WALL (       6 calls)
     newd         :      1.14s CPU      1.46s WALL (       6 calls)
     mix_rho      :      0.20s CPU      0.21s WALL (       5 calls)

     Called by c_bands:
     init_us_2    :      0.03s CPU      0.03s WALL (      11 calls)
     regterg      :      1.04s CPU      1.06s WALL (       5 calls)

     Called by *egterg:
     rdiaghg      :      0.01s CPU      0.01s WALL (      19 calls)
     h_psi        :      1.05s CPU      1.07s WALL (      20 calls)
     s_psi        :      0.03s CPU      0.03s WALL (      20 calls)
     g_psi        :      0.00s CPU      0.00s WALL (      14 calls)

     Called by h_psi:
     h_psi:calbec :      0.03s CPU      0.03s WALL (      20 calls)
     vloc_psi     :      0.99s CPU      1.00s WALL (      20 calls)
     add_vuspsi   :      0.03s CPU      0.03s WALL (      20 calls)

     General routines
     calbec       :      0.04s CPU      0.04s WALL (      29 calls)
     fft          :      1.06s CPU      1.06s WALL (      66 calls)
     ffts         :      0.03s CPU      0.03s WALL (      11 calls)
     fftw         :      0.82s CPU      0.82s WALL (     304 calls)
     interpolate  :      0.15s CPU      0.15s WALL (       6 calls)
 
     Parallel routines
 
     Environ routines
 
     PWSCF        :     54.97s CPU     57.06s WALL

 
   This run was terminated on:  20:32:28   1Oct2021            

=------------------------------------------------------------------------------=
   JOB DONE.
=------------------------------------------------------------------------------=

%%%% CELL %%%%%%%%%%%%%%%%%%%%%%%%%%%%%%%%%%%%%%%%%%%%%%%%%%%%%%%%%%%%%%%%%%%%%%

 cell label                 = system         

 cell volume                =    8000.000000

%%%% IONS %%%%%%%%%%%%%%%%%%%%%%%%%%%%%%%%%%%%%%%%%%%%%%%%%%%%%%%%%%%%%%%%%%%%%%

 total charge               =    -30.0000000
 center of charge           =      0.1453286     0.0000003     0.0023326
 dipole                     =      0.0000000     0.0000000     0.0000000
 quadrupole (pc)            =   -131.0719083  -146.7987081    -0.0000314
 quadrupole (gauss)         =   -134.8219083  -150.5487081    -3.7500314

   i | type | coordinates
 -----------------------------------------------------------------------
   1 |    1 |                     -2.4454071     0.0000002     0.0030272
   2 |    2 |                     -1.2331440     2.2473584     0.0020749
   3 |    2 |                      1.3781229     2.2851921     0.0014627
   4 |    2 |                      2.6939354     0.0000002     0.0013189
   5 |    2 |                      1.3781232    -2.2851919     0.0026521
   6 |    2 |                     -1.2331437    -2.2473574     0.0035464
   7 |    3 |                     -2.4127312     3.9381412     0.0017094
   8 |    3 |                      2.3590962     4.0987221     0.0008035
   9 |    3 |                      4.7585861    -0.0000002     0.0000199
  10 |    3 |                      2.3590968    -4.0987217     0.0032074
  11 |    3 |                     -2.4127303    -3.9381403     0.0048805

%%%% SYSTEM %%%%%%%%%%%%%%%%%%%%%%%%%%%%%%%%%%%%%%%%%%%%%%%%%%%%%%%%%%%%%%%%%%%%

 system is built from all present ionic types

 system defined dimension   =              0
 system defined axis        =              3

 system center              =      0.1453286     0.0000003     0.0023326
 system width               =      4.6960222

%%%% IONS %%%%%%%%%%%%%%%%%%%%%%%%%%%%%%%%%%%%%%%%%%%%%%%%%%%%%%%%%%%%%%%%%%%%%%

 total charge               =    -30.0000000
 center of charge           =      0.1453286     0.0000003     0.0023326
 dipole                     =      0.0000000     0.0000000     0.0000000
 quadrupole (pc)            =   -131.0719083  -146.7987081    -0.0000314
 quadrupole (gauss)         =   -134.8219083  -150.5487081    -3.7500314

   i | type | coordinates
 -----------------------------------------------------------------------
   1 |    1 |                     -2.4454071     0.0000002     0.0030272
   2 |    2 |                     -1.2331440     2.2473584     0.0020749
   3 |    2 |                      1.3781229     2.2851921     0.0014627
   4 |    2 |                      2.6939354     0.0000002     0.0013189
   5 |    2 |                      1.3781232    -2.2851919     0.0026521
   6 |    2 |                     -1.2331437    -2.2473574     0.0035464
   7 |    3 |                     -2.4127312     3.9381412     0.0017094
   8 |    3 |                      2.3590962     4.0987221     0.0008035
   9 |    3 |                      4.7585861    -0.0000002     0.0000199
  10 |    3 |                      2.3590968    -4.0987217     0.0032074
  11 |    3 |                     -2.4127303    -3.9381403     0.0048805

%%%% SYSTEM %%%%%%%%%%%%%%%%%%%%%%%%%%%%%%%%%%%%%%%%%%%%%%%%%%%%%%%%%%%%%%%%%%%%

 system is built from all present ionic types

 system defined dimension   =              0
 system defined axis        =              3

 system center              =      0.1453286     0.0000003     0.0023326
 system width               =      4.6960222

%%%% BOUNDARY %%%%%%%%%%%%%%%%%%%%%%%%%%%%%%%%%%%%%%%%%%%%%%%%%%%%%%%%%%%%%%%%%%

 boundary label             = electrolyte         
 boundary mode              = ionic               

 boundary is built from soft-spheres centered on ionic positions:
 solvent-dependent scaling  =      1.5000000
 softness parameter         =      0.5000000

 volume of the QM region    =   1716.7618812

 surface of the QM region   =      0.0000000

%%%% ELECTROLYTE %%%%%%%%%%%%%%%%%%%%%%%%%%%%%%%%%%%%%%%%%%%%%%%%%%%%%%%%%%%%%%%%

 number electrolyte species =              2
 solvent temperature        =          300.0
 Debye length / sqrt(eps)   =      0.2301070

 modified Poisson-Boltzmann:
 maximum concentration      =      0.0190986

 electrolyte flags:
 linearized                 =              T

 total electrolyte charge   =      0.0000000

 species
 =======

   i |  c_bulk (a.u.) | c_bulk (mol/L) | ionic charge
 ----------------------------------------------------
   1 |     0.7139E-03 |      8.0000000 |        -1.00
   2 |     0.7139E-03 |      8.0000000 |         1.00

%%%% CHARGES %%%%%%%%%%%%%%%%%%%%%%%%%%%%%%%%%%%%%%%%%%%%%%%%%%%%%%%%%%%%%%%%%%%

 total number of charges    =             12

 total charge               =    -30.0000000

%%%% CHARGES %%%%%%%%%%%%%%%%%%%%%%%%%%%%%%%%%%%%%%%%%%%%%%%%%%%%%%%%%%%%%%%%%%%

 total number of charges    =             12

 total charge               =    -30.0000000

%%%% CELL %%%%%%%%%%%%%%%%%%%%%%%%%%%%%%%%%%%%%%%%%%%%%%%%%%%%%%%%%%%%%%%%%%%%%%

 cell label                 = system         

 cell volume                =    8000.000000

%%%% ELECTROLYTE %%%%%%%%%%%%%%%%%%%%%%%%%%%%%%%%%%%%%%%%%%%%%%%%%%%%%%%%%%%%%%%%

 number electrolyte species =              2
 solvent temperature        =          300.0
 Debye length / sqrt(eps)   =      0.2301070

 modified Poisson-Boltzmann:
 maximum concentration      =      0.0190986

 electrolyte flags:
 linearized                 =              T

 total electrolyte charge   =      0.0000000

 species
 =======

   i |  c_bulk (a.u.) | c_bulk (mol/L) | ionic charge
 ----------------------------------------------------
   1 |     0.7139E-03 |      8.0000000 |        -1.00
   2 |     0.7139E-03 |      8.0000000 |         1.00

%%%% ELECTRONS %%%%%%%%%%%%%%%%%%%%%%%%%%%%%%%%%%%%%%%%%%%%%%%%%%%%%%%%%%%%%%%%%

 number of electrons        =             30

 total electronic charge    =     30.0000000

%%%% ELECTRONS %%%%%%%%%%%%%%%%%%%%%%%%%%%%%%%%%%%%%%%%%%%%%%%%%%%%%%%%%%%%%%%%%

 number of electrons        =             30

 total electronic charge    =     30.0000000

%%%% CHARGES %%%%%%%%%%%%%%%%%%%%%%%%%%%%%%%%%%%%%%%%%%%%%%%%%%%%%%%%%%%%%%%%%%%

 total number of charges    =             41

 total charge               =     -0.0000000

%%%% CHARGES %%%%%%%%%%%%%%%%%%%%%%%%%%%%%%%%%%%%%%%%%%%%%%%%%%%%%%%%%%%%%%%%%%%

 total number of charges    =             41

 total charge               =     -0.0000000

%%%% BOUNDARY %%%%%%%%%%%%%%%%%%%%%%%%%%%%%%%%%%%%%%%%%%%%%%%%%%%%%%%%%%%%%%%%%%

 boundary label             = solvent             
 boundary mode              = electronic          

 boundary is built as a type-2 function of a smooth density

 using the modified SCCS function:
 rhomax                     =      0.0050000
 rhomin                     =      0.0001000

 volume of the QM region    =   2407.1059940

 surface of the QM region   =    815.5587045

%%%% DENSITY %%%%%%%%%%%%%%%%%%%%%%%%%%%%%%%%%%%%%%%%%%%%%%%%%%%%%%%%%%%%%%%%%%%

 density label              = dvtot                                             

 integral of density        =    0.000000000    

%%%% DENSITY %%%%%%%%%%%%%%%%%%%%%%%%%%%%%%%%%%%%%%%%%%%%%%%%%%%%%%%%%%%%%%%%%%%

 density label              = vreference                                        

 integral of density        =    0.000000000    

%%%% DENSITY %%%%%%%%%%%%%%%%%%%%%%%%%%%%%%%%%%%%%%%%%%%%%%%%%%%%%%%%%%%%%%%%%%%

 density label              = velectrostatic                                    

 integral of density        =    0.000000000    

%%%% CHARGES %%%%%%%%%%%%%%%%%%%%%%%%%%%%%%%%%%%%%%%%%%%%%%%%%%%%%%%%%%%%%%%%%%%

 total number of charges    =             41

 total charge               =     -0.0000000

%%%% DENSITY %%%%%%%%%%%%%%%%%%%%%%%%%%%%%%%%%%%%%%%%%%%%%%%%%%%%%%%%%%%%%%%%%%%

 density label              = vsoftcavity                                       

 integral of density        =    0.000000000    

%%%% ELECTRONS %%%%%%%%%%%%%%%%%%%%%%%%%%%%%%%%%%%%%%%%%%%%%%%%%%%%%%%%%%%%%%%%%

 number of electrons        =             30

 total electronic charge    =     30.0000000

%%%% ELECTRONS %%%%%%%%%%%%%%%%%%%%%%%%%%%%%%%%%%%%%%%%%%%%%%%%%%%%%%%%%%%%%%%%%

 number of electrons        =             30

 total electronic charge    =     30.0000000

%%%% CHARGES %%%%%%%%%%%%%%%%%%%%%%%%%%%%%%%%%%%%%%%%%%%%%%%%%%%%%%%%%%%%%%%%%%%

 total number of charges    =             41

 total charge               =      0.0000000

%%%% CHARGES %%%%%%%%%%%%%%%%%%%%%%%%%%%%%%%%%%%%%%%%%%%%%%%%%%%%%%%%%%%%%%%%%%%

 total number of charges    =             41

 total charge               =      0.0000000

%%%% BOUNDARY %%%%%%%%%%%%%%%%%%%%%%%%%%%%%%%%%%%%%%%%%%%%%%%%%%%%%%%%%%%%%%%%%%

 boundary label             = solvent             
 boundary mode              = electronic          

 boundary is built as a type-2 function of a smooth density

 using the modified SCCS function:
 rhomax                     =      0.0050000
 rhomin                     =      0.0001000

 volume of the QM region    =   1079.4809383

 surface of the QM region   =    528.9398834

%%%% DENSITY %%%%%%%%%%%%%%%%%%%%%%%%%%%%%%%%%%%%%%%%%%%%%%%%%%%%%%%%%%%%%%%%%%%

 density label              = vreference                                        

 integral of density        =  -0.3510607443E-12

%%%% COMPUTE ELECTROSTATIC POTENTIAL %%%%%%%%%%%%%%%%%%%%%%%%%%%%%%%%%%%%%%%%%%%

   i |      alpha     |       pAp      |      rzold     |    delta_qm    |    delta_en    |       tol
 ---------------------------------------------------------------------------------------------------------
   1 |   0.971194E+00 |   0.124774E+03 |   0.121180E+03 |   0.157651E-01 |   0.429475E+03 |   0.100000E-04
   2 |   0.223520E-01 |   0.628780E+04 |   0.140545E+03 |   0.351379E-02 |   0.213352E+02 |   0.100000E-04
   3 |   0.131821E+00 |   0.101437E+02 |   0.133715E+01 |   0.150540E-02 |   0.391604E+01 |   0.100000E-04
   4 |   0.178679E+00 |   0.753597E+00 |   0.134652E+00 |   0.696630E-03 |   0.838587E+00 |   0.100000E-04
   5 |   0.958851E-01 |   0.457233E+00 |   0.438418E-01 |   0.419365E-03 |   0.303898E+00 |   0.100000E-04
   6 |   0.137667E+00 |   0.860759E-01 |   0.118498E-01 |   0.231294E-03 |   0.924430E-01 |   0.100000E-04
   7 |   0.189220E+00 |   0.102680E-01 |   0.194291E-02 |   0.124135E-03 |   0.266275E-01 |   0.100000E-04
   8 |   0.179113E+00 |   0.141125E-02 |   0.252773E-03 |   0.915614E-04 |   0.144867E-01 |   0.100000E-04
   9 |   0.136828E+00 |   0.214595E-02 |   0.293625E-03 |   0.472671E-04 |   0.386066E-02 |   0.100000E-04
  10 |   0.301683E+00 |   0.113167E-03 |   0.341406E-04 |   0.239423E-04 |   0.990545E-03 |   0.100000E-04
  11 |   0.177051E+00 |   0.890419E-04 |   0.157650E-04 |   0.127471E-04 |   0.280781E-03 |   0.100000E-04
  12 |   0.218595E+00 |   0.183959E-04 |   0.402124E-05 |   0.639548E-05 |   0.706790E-04 |   0.100000E-04
  13 |   0.852909E-01 |   0.200960E-04 |   0.171401E-05 |   0.458544E-05 |   0.363334E-04 |   0.100000E-04
  14 |   0.276894E+00 |   0.143655E-05 |   0.397772E-06 |   0.200610E-05 |   0.695424E-05 |   0.100000E-04

 Charges are converged, EXIT

%%%% DENSITY %%%%%%%%%%%%%%%%%%%%%%%%%%%%%%%%%%%%%%%%%%%%%%%%%%%%%%%%%%%%%%%%%%%

 density label              = velectrostatic                                    

 integral of density        =   -280.0286949    

%%%% CHARGES %%%%%%%%%%%%%%%%%%%%%%%%%%%%%%%%%%%%%%%%%%%%%%%%%%%%%%%%%%%%%%%%%%%

 total number of charges    =             41

 total charge               =      0.0000000

%%%% DENSITY %%%%%%%%%%%%%%%%%%%%%%%%%%%%%%%%%%%%%%%%%%%%%%%%%%%%%%%%%%%%%%%%%%%

 density label              = vsoftcavity                                       

 integral of density        =    16.21738632    

%%%% DENSITY %%%%%%%%%%%%%%%%%%%%%%%%%%%%%%%%%%%%%%%%%%%%%%%%%%%%%%%%%%%%%%%%%%%

 density label              = dvtot                                             

 integral of density        =   -263.8113086    

%%%% ELECTRONS %%%%%%%%%%%%%%%%%%%%%%%%%%%%%%%%%%%%%%%%%%%%%%%%%%%%%%%%%%%%%%%%%

 number of electrons        =             30

 total electronic charge    =     30.0000000

%%%% ELECTRONS %%%%%%%%%%%%%%%%%%%%%%%%%%%%%%%%%%%%%%%%%%%%%%%%%%%%%%%%%%%%%%%%%

 number of electrons        =             30

 total electronic charge    =     30.0000000

%%%% CHARGES %%%%%%%%%%%%%%%%%%%%%%%%%%%%%%%%%%%%%%%%%%%%%%%%%%%%%%%%%%%%%%%%%%%

 total number of charges    =             41

 total charge               =     -0.0000000

%%%% CHARGES %%%%%%%%%%%%%%%%%%%%%%%%%%%%%%%%%%%%%%%%%%%%%%%%%%%%%%%%%%%%%%%%%%%

 total number of charges    =             41

 total charge               =     -0.0000000

%%%% BOUNDARY %%%%%%%%%%%%%%%%%%%%%%%%%%%%%%%%%%%%%%%%%%%%%%%%%%%%%%%%%%%%%%%%%%

 boundary label             = solvent             
 boundary mode              = electronic          

 boundary is built as a type-2 function of a smooth density

 using the modified SCCS function:
 rhomax                     =      0.0050000
 rhomin                     =      0.0001000

 volume of the QM region    =   1004.0995199

 surface of the QM region   =    509.9886530

%%%% DENSITY %%%%%%%%%%%%%%%%%%%%%%%%%%%%%%%%%%%%%%%%%%%%%%%%%%%%%%%%%%%%%%%%%%%

 density label              = vreference                                        

 integral of density        =   0.4486945794E-13

%%%% COMPUTE ELECTROSTATIC POTENTIAL %%%%%%%%%%%%%%%%%%%%%%%%%%%%%%%%%%%%%%%%%%%

 Warning: Bad guess with residual norm =   0.243757E+03, reset to no guess

   i |      alpha     |       pAp      |      rzold     |    delta_qm    |    delta_en    |       tol
 ---------------------------------------------------------------------------------------------------------
   1 |   0.985452E+00 |   0.124084E+03 |   0.122279E+03 |   0.117579E-01 |   0.238894E+03 |   0.100000E-04
   2 |   0.218858E-01 |   0.321283E+04 |   0.703152E+02 |   0.330852E-02 |   0.189152E+02 |   0.100000E-04
   3 |   0.927711E-01 |   0.135013E+02 |   0.125253E+01 |   0.175461E-02 |   0.531993E+01 |   0.100000E-04
   4 |   0.105371E+00 |   0.290321E+01 |   0.305914E+00 |   0.891636E-03 |   0.137379E+01 |   0.100000E-04
   5 |   0.158302E+00 |   0.323209E+00 |   0.511646E-01 |   0.354611E-03 |   0.217294E+00 |   0.100000E-04
   6 |   0.186863E+00 |   0.281496E-01 |   0.526011E-02 |   0.179761E-03 |   0.558388E-01 |   0.100000E-04
   7 |   0.185709E+00 |   0.499223E-02 |   0.927103E-03 |   0.112441E-03 |   0.218472E-01 |   0.100000E-04
   8 |   0.259722E+00 |   0.582349E-03 |   0.151249E-03 |   0.712389E-04 |   0.876957E-02 |   0.100000E-04
   9 |   0.974799E-01 |   0.195878E-02 |   0.190942E-03 |   0.436642E-04 |   0.329454E-02 |   0.100000E-04
  10 |   0.296216E+00 |   0.901677E-04 |   0.267091E-04 |   0.204944E-04 |   0.725797E-03 |   0.100000E-04
  11 |   0.153636E+00 |   0.748563E-04 |   0.115007E-04 |   0.123623E-04 |   0.264085E-03 |   0.100000E-04
  12 |   0.196577E+00 |   0.121261E-04 |   0.238372E-05 |   0.818951E-05 |   0.115894E-03 |   0.100000E-04
  13 |   0.102288E+00 |   0.214514E-04 |   0.219422E-05 |   0.537281E-05 |   0.498824E-04 |   0.100000E-04
  14 |   0.343012E+00 |   0.725192E-06 |   0.248750E-06 |   0.337202E-05 |   0.196482E-04 |   0.100000E-04
  15 |   0.759285E-01 |   0.129340E-05 |   0.982058E-07 |   0.325839E-05 |   0.183464E-04 |   0.100000E-04
  16 |   0.138787E+00 |   0.153622E-05 |   0.213207E-06 |   0.161288E-05 |   0.449520E-05 |   0.100000E-04

 Charges are converged, EXIT

%%%% DENSITY %%%%%%%%%%%%%%%%%%%%%%%%%%%%%%%%%%%%%%%%%%%%%%%%%%%%%%%%%%%%%%%%%%%

 density label              = velectrostatic                                    

 integral of density        =   -282.1378859    

%%%% CHARGES %%%%%%%%%%%%%%%%%%%%%%%%%%%%%%%%%%%%%%%%%%%%%%%%%%%%%%%%%%%%%%%%%%%

 total number of charges    =             41

 total charge               =     -0.0000000

%%%% DENSITY %%%%%%%%%%%%%%%%%%%%%%%%%%%%%%%%%%%%%%%%%%%%%%%%%%%%%%%%%%%%%%%%%%%

 density label              = vsoftcavity                                       

 integral of density        =    9.376114044    

%%%% DENSITY %%%%%%%%%%%%%%%%%%%%%%%%%%%%%%%%%%%%%%%%%%%%%%%%%%%%%%%%%%%%%%%%%%%

 density label              = dvtot                                             

 integral of density        =   -272.7617719    

%%%% ELECTRONS %%%%%%%%%%%%%%%%%%%%%%%%%%%%%%%%%%%%%%%%%%%%%%%%%%%%%%%%%%%%%%%%%

 number of electrons        =             30

 total electronic charge    =     30.0000000

%%%% ELECTRONS %%%%%%%%%%%%%%%%%%%%%%%%%%%%%%%%%%%%%%%%%%%%%%%%%%%%%%%%%%%%%%%%%

 number of electrons        =             30

 total electronic charge    =     30.0000000

%%%% CHARGES %%%%%%%%%%%%%%%%%%%%%%%%%%%%%%%%%%%%%%%%%%%%%%%%%%%%%%%%%%%%%%%%%%%

 total number of charges    =             41

 total charge               =     -0.0000000

%%%% CHARGES %%%%%%%%%%%%%%%%%%%%%%%%%%%%%%%%%%%%%%%%%%%%%%%%%%%%%%%%%%%%%%%%%%%

 total number of charges    =             41

 total charge               =     -0.0000000

%%%% BOUNDARY %%%%%%%%%%%%%%%%%%%%%%%%%%%%%%%%%%%%%%%%%%%%%%%%%%%%%%%%%%%%%%%%%%

 boundary label             = solvent             
 boundary mode              = electronic          

 boundary is built as a type-2 function of a smooth density

 using the modified SCCS function:
 rhomax                     =      0.0050000
 rhomin                     =      0.0001000

 volume of the QM region    =    976.6892305

 surface of the QM region   =    504.0763746

%%%% DENSITY %%%%%%%%%%%%%%%%%%%%%%%%%%%%%%%%%%%%%%%%%%%%%%%%%%%%%%%%%%%%%%%%%%%

 density label              = vreference                                        

 integral of density        =   0.3868510450E-12

%%%% COMPUTE ELECTROSTATIC POTENTIAL %%%%%%%%%%%%%%%%%%%%%%%%%%%%%%%%%%%%%%%%%%%

 Warning: Bad guess with residual norm =   0.167689E+03, reset to no guess

   i |      alpha     |       pAp      |      rzold     |    delta_qm    |    delta_en    |       tol
 ---------------------------------------------------------------------------------------------------------
   1 |   0.990808E+00 |   0.123732E+03 |   0.122594E+03 |   0.978641E-02 |   0.165497E+03 |   0.100000E-04
   2 |   0.216683E-01 |   0.200657E+04 |   0.434789E+02 |   0.312529E-02 |   0.168781E+02 |   0.100000E-04
   3 |   0.922407E-01 |   0.106798E+02 |   0.985111E+00 |   0.162183E-02 |   0.454523E+01 |   0.100000E-04
   4 |   0.106646E+00 |   0.227861E+01 |   0.243004E+00 |   0.827815E-03 |   0.118416E+01 |   0.100000E-04
   5 |   0.155057E+00 |   0.290923E+00 |   0.451098E-01 |   0.338542E-03 |   0.198048E+00 |   0.100000E-04
   6 |   0.194280E+00 |   0.231936E-01 |   0.450604E-02 |   0.164137E-03 |   0.465542E-01 |   0.100000E-04
   7 |   0.183450E+00 |   0.390058E-02 |   0.715561E-03 |   0.110546E-03 |   0.211167E-01 |   0.100000E-04
   8 |   0.302529E+00 |   0.460574E-03 |   0.139337E-03 |   0.616614E-04 |   0.657007E-02 |   0.100000E-04
   9 |   0.850316E-01 |   0.151270E-02 |   0.128628E-03 |   0.429052E-04 |   0.318100E-02 |   0.100000E-04
  10 |   0.291224E+00 |   0.836665E-04 |   0.243657E-04 |   0.208448E-04 |   0.750823E-03 |   0.100000E-04
  11 |   0.154373E+00 |   0.661601E-04 |   0.102133E-04 |   0.137050E-04 |   0.324567E-03 |   0.100000E-04
  12 |   0.257534E+00 |   0.806317E-05 |   0.207654E-05 |   0.832818E-05 |   0.119852E-03 |   0.100000E-04
  13 |   0.847839E-01 |   0.188993E-04 |   0.160236E-05 |   0.642941E-05 |   0.714309E-04 |   0.100000E-04
  14 |   0.331073E+00 |   0.858417E-06 |   0.284199E-06 |   0.469346E-05 |   0.380654E-04 |   0.100000E-04
  15 |   0.289958E-01 |   0.230215E-04 |   0.667525E-06 |   0.389625E-05 |   0.262324E-04 |   0.100000E-04
  16 |   0.373980E+00 |   0.336337E-06 |   0.125783E-06 |   0.189108E-05 |   0.617963E-05 |   0.100000E-04

 Charges are converged, EXIT

%%%% DENSITY %%%%%%%%%%%%%%%%%%%%%%%%%%%%%%%%%%%%%%%%%%%%%%%%%%%%%%%%%%%%%%%%%%%

 density label              = velectrostatic                                    

 integral of density        =   -275.9566461    

%%%% CHARGES %%%%%%%%%%%%%%%%%%%%%%%%%%%%%%%%%%%%%%%%%%%%%%%%%%%%%%%%%%%%%%%%%%%

 total number of charges    =             41

 total charge               =     -0.0000000

%%%% DENSITY %%%%%%%%%%%%%%%%%%%%%%%%%%%%%%%%%%%%%%%%%%%%%%%%%%%%%%%%%%%%%%%%%%%

 density label              = vsoftcavity                                       

 integral of density        =    7.850409927    

%%%% DENSITY %%%%%%%%%%%%%%%%%%%%%%%%%%%%%%%%%%%%%%%%%%%%%%%%%%%%%%%%%%%%%%%%%%%

 density label              = dvtot                                             

 integral of density        =   -268.1062361    

%%%% ELECTRONS %%%%%%%%%%%%%%%%%%%%%%%%%%%%%%%%%%%%%%%%%%%%%%%%%%%%%%%%%%%%%%%%%

 number of electrons        =             30

 total electronic charge    =     30.0000000

%%%% ELECTRONS %%%%%%%%%%%%%%%%%%%%%%%%%%%%%%%%%%%%%%%%%%%%%%%%%%%%%%%%%%%%%%%%%

 number of electrons        =             30

 total electronic charge    =     30.0000000

%%%% CHARGES %%%%%%%%%%%%%%%%%%%%%%%%%%%%%%%%%%%%%%%%%%%%%%%%%%%%%%%%%%%%%%%%%%%

 total number of charges    =             41

 total charge               =      0.0000000

%%%% CHARGES %%%%%%%%%%%%%%%%%%%%%%%%%%%%%%%%%%%%%%%%%%%%%%%%%%%%%%%%%%%%%%%%%%%

 total number of charges    =             41

 total charge               =      0.0000000

%%%% BOUNDARY %%%%%%%%%%%%%%%%%%%%%%%%%%%%%%%%%%%%%%%%%%%%%%%%%%%%%%%%%%%%%%%%%%

 boundary label             = solvent             
 boundary mode              = electronic          

 boundary is built as a type-2 function of a smooth density

 using the modified SCCS function:
 rhomax                     =      0.0050000
 rhomin                     =      0.0001000

 volume of the QM region    =    970.6046134

 surface of the QM region   =    503.3750716

%%%% DENSITY %%%%%%%%%%%%%%%%%%%%%%%%%%%%%%%%%%%%%%%%%%%%%%%%%%%%%%%%%%%%%%%%%%%

 density label              = vreference                                        

 integral of density        =  -0.6550151368E-12

%%%% COMPUTE ELECTROSTATIC POTENTIAL %%%%%%%%%%%%%%%%%%%%%%%%%%%%%%%%%%%%%%%%%%%

 Warning: Bad guess with residual norm =   0.145321E+03, reset to no guess

   i |      alpha     |       pAp      |      rzold     |    delta_qm    |    delta_en    |       tol
 ---------------------------------------------------------------------------------------------------------
   1 |   0.992318E+00 |   0.123659E+03 |   0.122709E+03 |   0.911953E-02 |   0.143711E+03 |   0.100000E-04
   2 |   0.217539E-01 |   0.161032E+04 |   0.350307E+02 |   0.319837E-02 |   0.176768E+02 |   0.100000E-04
   3 |   0.859765E-01 |   0.121307E+02 |   0.104295E+01 |   0.167091E-02 |   0.482449E+01 |   0.100000E-04
   4 |   0.112662E+00 |   0.218809E+01 |   0.246516E+00 |   0.817313E-03 |   0.115430E+01 |   0.100000E-04
   5 |   0.153320E+00 |   0.286418E+00 |   0.439136E-01 |   0.338233E-03 |   0.197686E+00 |   0.100000E-04
   6 |   0.200569E+00 |   0.213584E-01 |   0.428385E-02 |   0.158994E-03 |   0.436820E-01 |   0.100000E-04
   7 |   0.183556E+00 |   0.348170E-02 |   0.639087E-03 |   0.111346E-03 |   0.214234E-01 |   0.100000E-04
   8 |   0.310996E+00 |   0.451060E-03 |   0.140278E-03 |   0.594070E-04 |   0.609844E-02 |   0.100000E-04
   9 |   0.851381E-01 |   0.119890E-02 |   0.102072E-03 |   0.436095E-04 |   0.328629E-02 |   0.100000E-04
  10 |   0.280372E+00 |   0.912209E-04 |   0.255758E-04 |   0.214594E-04 |   0.795756E-03 |   0.100000E-04
  11 |   0.154056E+00 |   0.626889E-04 |   0.965759E-05 |   0.148112E-04 |   0.379072E-03 |   0.100000E-04
  12 |   0.279623E+00 |   0.755967E-05 |   0.211386E-05 |   0.886738E-05 |   0.135873E-03 |   0.100000E-04
  13 |   0.841496E-01 |   0.162025E-04 |   0.136344E-05 |   0.729024E-05 |   0.918390E-04 |   0.100000E-04
  14 |   0.393976E+00 |   0.844695E-06 |   0.332789E-06 |   0.460537E-05 |   0.366498E-04 |   0.100000E-04
  15 |   0.789335E-01 |   0.243702E-05 |   0.192362E-06 |   0.380209E-05 |   0.249797E-04 |   0.100000E-04
  16 |   0.111970E+00 |   0.384856E-05 |   0.430922E-06 |   0.205454E-05 |   0.729413E-05 |   0.100000E-04

 Charges are converged, EXIT

%%%% DENSITY %%%%%%%%%%%%%%%%%%%%%%%%%%%%%%%%%%%%%%%%%%%%%%%%%%%%%%%%%%%%%%%%%%%

 density label              = velectrostatic                                    

 integral of density        =   -274.1061015    

%%%% CHARGES %%%%%%%%%%%%%%%%%%%%%%%%%%%%%%%%%%%%%%%%%%%%%%%%%%%%%%%%%%%%%%%%%%%

 total number of charges    =             41

 total charge               =      0.0000000

%%%% DENSITY %%%%%%%%%%%%%%%%%%%%%%%%%%%%%%%%%%%%%%%%%%%%%%%%%%%%%%%%%%%%%%%%%%%

 density label              = vsoftcavity                                       

 integral of density        =    7.603317498    

%%%% DENSITY %%%%%%%%%%%%%%%%%%%%%%%%%%%%%%%%%%%%%%%%%%%%%%%%%%%%%%%%%%%%%%%%%%%

 density label              = dvtot                                             

 integral of density        =   -266.5027840    

%%%% ELECTRONS %%%%%%%%%%%%%%%%%%%%%%%%%%%%%%%%%%%%%%%%%%%%%%%%%%%%%%%%%%%%%%%%%

 number of electrons        =             30

 total electronic charge    =     30.0000000

%%%% ELECTRONS %%%%%%%%%%%%%%%%%%%%%%%%%%%%%%%%%%%%%%%%%%%%%%%%%%%%%%%%%%%%%%%%%

 number of electrons        =             30

 total electronic charge    =     30.0000000

%%%% CHARGES %%%%%%%%%%%%%%%%%%%%%%%%%%%%%%%%%%%%%%%%%%%%%%%%%%%%%%%%%%%%%%%%%%%

 total number of charges    =             41

 total charge               =      0.0000000

%%%% CHARGES %%%%%%%%%%%%%%%%%%%%%%%%%%%%%%%%%%%%%%%%%%%%%%%%%%%%%%%%%%%%%%%%%%%

 total number of charges    =             41

 total charge               =      0.0000000

%%%% BOUNDARY %%%%%%%%%%%%%%%%%%%%%%%%%%%%%%%%%%%%%%%%%%%%%%%%%%%%%%%%%%%%%%%%%%

 boundary label             = solvent             
 boundary mode              = electronic          

 boundary is built as a type-2 function of a smooth density

 using the modified SCCS function:
 rhomax                     =      0.0050000
 rhomin                     =      0.0001000

 volume of the QM region    =    970.6046134

 surface of the QM region   =    503.3750716

%%%% DENSITY %%%%%%%%%%%%%%%%%%%%%%%%%%%%%%%%%%%%%%%%%%%%%%%%%%%%%%%%%%%%%%%%%%%

 density label              = dvtot                                             

 integral of density        =   -266.5027840    

%%%% DENSITY %%%%%%%%%%%%%%%%%%%%%%%%%%%%%%%%%%%%%%%%%%%%%%%%%%%%%%%%%%%%%%%%%%%

 density label              = vreference                                        

 integral of density        =  -0.6550151368E-12

%%%% DENSITY %%%%%%%%%%%%%%%%%%%%%%%%%%%%%%%%%%%%%%%%%%%%%%%%%%%%%%%%%%%%%%%%%%%

 density label              = velectrostatic                                    

 integral of density        =   -274.1061015    

%%%% CHARGES %%%%%%%%%%%%%%%%%%%%%%%%%%%%%%%%%%%%%%%%%%%%%%%%%%%%%%%%%%%%%%%%%%%

 total number of charges    =             41

 total charge               =      0.0000000

%%%% DENSITY %%%%%%%%%%%%%%%%%%%%%%%%%%%%%%%%%%%%%%%%%%%%%%%%%%%%%%%%%%%%%%%%%%%

 density label              = vsoftcavity                                       

 integral of density        =    7.603317498    
