
     Program PWSCF v.6.3MaX starts on 21Apr2019 at 23:24:33 

     This program is part of the open-source Quantum ESPRESSO suite
     for quantum simulation of materials; please cite
         "P. Giannozzi et al., J. Phys.:Condens. Matter 21 395502 (2009);
         "P. Giannozzi et al., J. Phys.:Condens. Matter 29 465901 (2017);
          URL http://www.quantum-espresso.org", 
     in publications or presentations arising from this work. More details at
     http://www.quantum-espresso.org/quote

     Parallel version (MPI), running on     1 processors

     MPI processes distributed on     1 nodes
     Reading input from pw.in

     Current dimensions of program PWSCF are:
     Max number of different atomic species (ntypx) = 10
     Max number of k-points (npk) =  40000
     Max angular momentum in pseudopotentials (lmaxx) =  3
               file N.pbe-rrkjus.UPF: wavefunction(s)  2S renormalized
               file C.pbe-rrkjus.UPF: wavefunction(s)  2S 2P renormalized
               file H.pbe-rrkjus.UPF: wavefunction(s)  1S renormalized

     gamma-point specific algorithms are used

     Subspace diagonalization in iterative solution of the eigenvalue problem:
     a serial algorithm will be used

 
     G-vector sticks info
     --------------------
     sticks:   dense  smooth     PW     G-vecs:    dense   smooth      PW
     Sum        9549    3809    949               701475   177509   22119
 


     bravais-lattice index     =            1
     lattice parameter (alat)  =      20.0000  a.u.
     unit-cell volume          =    8000.0000 (a.u.)^3
     number of atoms/cell      =           11
     number of atomic types    =            3
     number of electrons       =        30.00
     number of Kohn-Sham states=           15
     kinetic-energy cutoff     =      30.0000  Ry
     charge density cutoff     =     300.0000  Ry
     convergence threshold     =      5.0E-04
     mixing beta               =       0.7000
     number of iterations used =            8  plain     mixing
     Exchange-correlation      = SLA PW PBE PBE ( 1  4  3  4 0 0)
 

     Environ Module
     ==============

     Plese cite
         O. Andreussi, I. Dabo and N. Marzari, J. Chem. Phys. 136, 064102 (2012)         
     in publications or presentations arising from this work.

     compensation onset threshold      =               0.1000E+03 
     static permittivity               =                    20.00 
     epsilon calculation mode          =               electronic 

     Electrostatic Setup
     -------------------
     electrostatic problem to solve    = linpb                    
     numerical solver adopted          = cg                       
     type of auxiliary density adopted = none                     
     type of core tool for poisson     = fft                      
     type of core tool for s(r) deriv  = analytic                 



     celldm(1)=  20.000000  celldm(2)=   0.000000  celldm(3)=   0.000000
     celldm(4)=   0.000000  celldm(5)=   0.000000  celldm(6)=   0.000000

     crystal axes: (cart. coord. in units of alat)
               a(1) = (   1.000000   0.000000   0.000000 )  
               a(2) = (   0.000000   1.000000   0.000000 )  
               a(3) = (   0.000000   0.000000   1.000000 )  

     reciprocal axes: (cart. coord. in units 2 pi/alat)
               b(1) = (  1.000000  0.000000  0.000000 )  
               b(2) = (  0.000000  1.000000  0.000000 )  
               b(3) = (  0.000000  0.000000  1.000000 )  


     PseudoPot. # 1 for N  read from file:
     /home/fnattino/Programs/quantumespresso/q-e-qe-6.3-develop/Environ/tests/../..//pseudo/N.pbe-rrkjus.UPF
     MD5 check sum: 28c76d763763edb36c62a6ca2be9aebd
     Pseudo is Ultrasoft, Zval =  5.0
     Generated by new atomic code, or converted to UPF format
     Using radial grid of 1257 points,  4 beta functions with: 
                l(1) =   0
                l(2) =   0
                l(3) =   1
                l(4) =   1
     Q(r) pseudized with 0 coefficients 


     PseudoPot. # 2 for C  read from file:
     /home/fnattino/Programs/quantumespresso/q-e-qe-6.3-develop/Environ/tests/../..//pseudo/C.pbe-rrkjus.UPF
     MD5 check sum: c9ac5a99bc85b198593446162950cd17
     Pseudo is Ultrasoft, Zval =  4.0
     Generated by new atomic code, or converted to UPF format
     Using radial grid of  627 points,  4 beta functions with: 
                l(1) =   0
                l(2) =   0
                l(3) =   1
                l(4) =   1
     Q(r) pseudized with 0 coefficients 


     PseudoPot. # 3 for H  read from file:
     /home/fnattino/Programs/quantumespresso/q-e-qe-6.3-develop/Environ/tests/../..//pseudo/H.pbe-rrkjus.UPF
     MD5 check sum: 2d52a7f45632fd764c17cc6affed14c8
     Pseudo is Ultrasoft, Zval =  1.0
     Generated by new atomic code, or converted to UPF format
     Using radial grid of 1061 points,  2 beta functions with: 
                l(1) =   0
                l(2) =   0
     Q(r) pseudized with 0 coefficients 


     atomic species   valence    mass     pseudopotential
        N              5.00    14.00000     N ( 1.00)
        C              4.00    12.00000     C ( 1.00)
        H              1.00     1.00000     H ( 1.00)

     No symmetry found



   Cartesian axes

     site n.     atom                  positions (alat units)
         1           N   tau(   1) = (  -0.1222704   0.0000000   0.0001514  )
         2           C   tau(   2) = (  -0.0616572   0.1123679   0.0001037  )
         3           C   tau(   3) = (   0.0689061   0.1142596   0.0000731  )
         4           C   tau(   4) = (   0.1346968   0.0000000   0.0000659  )
         5           C   tau(   5) = (   0.0689062  -0.1142596   0.0001326  )
         6           C   tau(   6) = (  -0.0616572  -0.1123679   0.0001773  )
         7           H   tau(   7) = (  -0.1206366   0.1969071   0.0000855  )
         8           H   tau(   8) = (   0.1179548   0.2049361   0.0000402  )
         9           H   tau(   9) = (   0.2379293  -0.0000000   0.0000010  )
        10           H   tau(  10) = (   0.1179548  -0.2049361   0.0001604  )
        11           H   tau(  11) = (  -0.1206365  -0.1969070   0.0002440  )

     number of k points=     1
                       cart. coord. in units 2pi/alat
        k(    1) = (   0.0000000   0.0000000   0.0000000), wk =   2.0000000

     Dense  grid:   350738 G-vectors     FFT dimensions: ( 120, 120, 120)

     Smooth grid:    88755 G-vectors     FFT dimensions: (  72,  72,  72)

     Estimated max dynamical RAM per process >     698.77 MB

     Initial potential from superposition of free atoms
     Check: negative starting charge=   -0.000446

     starting charge   29.51871, renormalised to   30.00000

     negative rho (up, down):  4.533E-04 0.000E+00
     Starting wfcs are   29 randomized atomic wfcs

     total cpu time spent up to now is        5.3 secs

     Self-consistent Calculation

     iteration #  1     ecut=    30.00 Ry     beta= 0.70
     Davidson diagonalization with overlap
     ethr =  1.00E-02,  avg # of iterations =  2.0

     negative rho (up, down):  1.360E-04 0.000E+00

     add environment contribution to local potential
     polarization accuracy = 8.1E-06, # of iterations =  13

     total cpu time spent up to now is       11.2 secs

     total energy              =     -82.24215506 Ry
     Harris-Foulkes estimate   =     -83.63781479 Ry
     estimated scf accuracy    <       2.07062588 Ry
     electrostatic embedding   =       0.00000000 Ry
     electrolyte free energy   =       0.01609534 Ry
     correction to one-el term =       0.00000000 Ry

     iteration #  2     ecut=    30.00 Ry     beta= 0.70
     Davidson diagonalization with overlap
     ethr =  6.90E-03,  avg # of iterations =  3.0

     negative rho (up, down):  1.552E-04 0.000E+00

     add environment contribution to local potential
     polarization accuracy = 9.4E-06, # of iterations =  15

     total cpu time spent up to now is       17.5 secs

     total energy              =     -82.44659906 Ry
     Harris-Foulkes estimate   =     -82.81942520 Ry
     estimated scf accuracy    <       0.49833273 Ry
     electrostatic embedding   =      -0.02763096 Ry
     electrolyte free energy   =       0.01048040 Ry
     correction to one-el term =       0.06929528 Ry

     iteration #  3     ecut=    30.00 Ry     beta= 0.70
     Davidson diagonalization with overlap
     ethr =  1.66E-03,  avg # of iterations =  4.0

     negative rho (up, down):  1.955E-04 0.000E+00

     add environment contribution to local potential
     polarization accuracy = 5.0E-06, # of iterations =  16

     total cpu time spent up to now is       24.0 secs

     total energy              =     -82.59351963 Ry
     Harris-Foulkes estimate   =     -83.25990939 Ry
     estimated scf accuracy    <       0.20655609 Ry
     electrostatic embedding   =      -0.02435191 Ry
     electrolyte free energy   =       0.00698467 Ry
     correction to one-el term =       0.58179996 Ry

     iteration #  4     ecut=    30.00 Ry     beta= 0.70
     Davidson diagonalization with overlap
     ethr =  6.89E-04,  avg # of iterations =  4.0

     negative rho (up, down):  5.024E-05 0.000E+00

     add environment contribution to local potential
     polarization accuracy = 7.2E-06, # of iterations =  16

     total cpu time spent up to now is       30.3 secs

     total energy              =     -82.64363030 Ry
     Harris-Foulkes estimate   =     -83.44808693 Ry
     estimated scf accuracy    <       0.00853887 Ry
     electrostatic embedding   =      -0.01658390 Ry
     electrolyte free energy   =       0.00490522 Ry
     correction to one-el term =       0.81191648 Ry

     iteration #  5     ecut=    30.00 Ry     beta= 0.70
     Davidson diagonalization with overlap
     ethr =  2.85E-05,  avg # of iterations =  4.0

     negative rho (up, down):  5.283E-05 0.000E+00

     add environment contribution to local potential
     polarization accuracy = 7.8E-06, # of iterations =  16

     total cpu time spent up to now is       36.6 secs

     total energy              =     -82.64629166 Ry
     Harris-Foulkes estimate   =     -83.60549380 Ry
     estimated scf accuracy    <       0.00114213 Ry
     electrostatic embedding   =      -0.01813247 Ry
     electrolyte free energy   =       0.00427884 Ry
     correction to one-el term =       0.97261585 Ry

     iteration #  6     ecut=    30.00 Ry     beta= 0.70
     Davidson diagonalization with overlap
     ethr =  3.81E-06,  avg # of iterations =  3.0

     negative rho (up, down):  1.399E-04 0.000E+00

     the potential shift due to the Gaussian-smeared nuclei is    -0.0801 ev

     total cpu time spent up to now is       39.0 secs

     End of self-consistent calculation

          k = 0.0000 0.0000 0.0000 ( 11060 PWs)   bands (ev):

   -23.2525 -19.6368 -18.8570 -15.3854 -15.2770 -12.8032 -11.6475 -11.1981
   -10.4395  -9.7795  -9.4586  -8.6848  -7.0459  -6.6427  -5.5802

     highest occupied level (ev):    -5.5802

!    total energy              =     -82.64654161 Ry
     Harris-Foulkes estimate   =     -83.64864605 Ry
     estimated scf accuracy    <       0.00009170 Ry

     The total energy is the sum of the following terms:

     one-electron contribution =    -292.45807654 Ry
     hartree contribution      =     149.42699702 Ry
     xc contribution           =     -25.97497727 Ry
     ewald contribution        =      85.35745671 Ry
     electrostatic embedding   =      -0.01804230 Ry
     electrolyte free energy   =       0.00415362 Ry
     correction to one-el term =       1.01594713 Ry

     WARNING: you are using the parabolic pbc correction;
              the potential shift above must be added to 
              band and Fermi energies.

     convergence has been achieved in   6 iterations

     Forces acting on atoms (cartesian axes, Ry/au):

     atom    1 type  1   force =    -0.04652719    0.00000128    0.00000386
     atom    2 type  2   force =    -0.00612909   -0.06238297    0.00002607
     atom    3 type  2   force =     0.02094333    0.01704361   -0.00004607
     atom    4 type  2   force =     0.00624400   -0.00000367    0.00000560
     atom    5 type  2   force =     0.02095072   -0.01703369    0.00000646
     atom    6 type  2   force =    -0.00614528    0.06238305    0.00001162
     atom    7 type  3   force =     0.00205621    0.00190209    0.00000896
     atom    8 type  3   force =     0.00531077   -0.00373999   -0.00000832
     atom    9 type  3   force =    -0.00407358    0.00000306    0.00002912
     atom   10 type  3   force =     0.00531854    0.00372874   -0.00002498
     atom   11 type  3   force =     0.00205157   -0.00190151   -0.00001232

     Total force =     0.107876     Total SCF correction =     0.015663
     SCF correction compared to forces is large: reduce conv_thr to get better values

     Writing output data file pwscf.save/
 
     init_run     :      4.34s CPU      4.86s WALL (       1 calls)
     electrons    :     30.01s CPU     33.72s WALL (       1 calls)
     forces       :      0.82s CPU      0.96s WALL (       1 calls)

     Called by init_run:
     wfcinit      :      0.18s CPU      0.18s WALL (       1 calls)
     potinit      :      2.04s CPU      2.17s WALL (       1 calls)
     hinit0       :      1.80s CPU      1.87s WALL (       1 calls)

     Called by electrons:
     c_bands      :      1.79s CPU      1.79s WALL (       6 calls)
     sum_band     :      2.04s CPU      2.74s WALL (       6 calls)
     v_of_rho     :      3.11s CPU      3.46s WALL (       7 calls)
     newd         :      1.38s CPU      2.29s WALL (       7 calls)
     mix_rho      :      0.30s CPU      0.30s WALL (       6 calls)

     Called by c_bands:
     init_us_2    :      0.05s CPU      0.05s WALL (      13 calls)
     regterg      :      1.68s CPU      1.69s WALL (       6 calls)

     Called by sum_band:
     sum_band:bec :      0.00s CPU      0.00s WALL (       6 calls)
     addusdens    :      1.52s CPU      2.22s WALL (       6 calls)

     Called by *egterg:
     h_psi        :      1.66s CPU      1.67s WALL (      27 calls)
     s_psi        :      0.04s CPU      0.03s WALL (      27 calls)
     g_psi        :      0.03s CPU      0.01s WALL (      20 calls)
     rdiaghg      :      0.00s CPU      0.01s WALL (      26 calls)

     Called by h_psi:
     h_psi:pot    :      1.66s CPU      1.66s WALL (      27 calls)
     h_psi:calbec :      0.04s CPU      0.04s WALL (      27 calls)
     vloc_psi     :      1.57s CPU      1.58s WALL (      27 calls)
     add_vuspsi   :      0.04s CPU      0.04s WALL (      27 calls)

     General routines
     calbec       :      0.06s CPU      0.06s WALL (      37 calls)
     fft          :      6.54s CPU      6.57s WALL (     373 calls)
     ffts         :      0.05s CPU      0.04s WALL (      13 calls)
     fftw         :      1.44s CPU      1.43s WALL (     364 calls)
     interpolate  :      0.18s CPU      0.20s WALL (       7 calls)
 
     Parallel routines
 
     Environ routines
     calc_eelect  :      0.03s CPU      0.03s WALL (      12 calls)
     calc_velect  :     14.59s CPU     16.17s WALL (      10 calls)
     dielectric   :      0.37s CPU      0.38s WALL (       8 calls)
     electrolyte  :      0.03s CPU      0.03s WALL (       8 calls)
     calc_felect  :      0.18s CPU      0.18s WALL (       1 calls)
 
     PWSCF        :    35.62s CPU        40.04s WALL

 
   This run was terminated on:  23:25:13  21Apr2019            

=------------------------------------------------------------------------------=
   JOB DONE.
=------------------------------------------------------------------------------=

%%%% IONS %%%%%%%%%%%%%%%%%%%%%%%%%%%%%%%%%%%%%%%%%%%%%%%%%%%%%%%%%%%%%%%%%%%%%%
 number of ions             =         11
 ionic center of charge     =      0.0072664     0.0000000     0.0001166
 total ionic charge         =    -30.0000000
 ionic dipole               =      0.0000000     0.0000000     0.0000000
 ionic quadrupole (pc)      =   -131.0719095  -146.7987094    -0.0000314
 ionic quadrupole (gauss)   =   -134.8219095  -150.5487094    -3.7500314
 ion   1 type =  1 coordinates =     -2.4454071     0.0000002     0.0030272
 ion   2 type =  2 coordinates =     -1.2331440     2.2473584     0.0020749
 ion   3 type =  2 coordinates =      1.3781229     2.2851921     0.0014627
 ion   4 type =  2 coordinates =      2.6939354     0.0000002     0.0013189
 ion   5 type =  2 coordinates =      1.3781232    -2.2851919     0.0026521
 ion   6 type =  2 coordinates =     -1.2331437    -2.2473574     0.0035464
 ion   7 type =  3 coordinates =     -2.4127312     3.9381412     0.0017094
 ion   8 type =  3 coordinates =      2.3590962     4.0987221     0.0008035
 ion   9 type =  3 coordinates =      4.7585861    -0.0000002     0.0000199
 ion  10 type =  3 coordinates =      2.3590968    -4.0987217     0.0032074
 ion  11 type =  3 coordinates =     -2.4127303    -3.9381403     0.0048805

%%%% SYSTEM %%%%%%%%%%%%%%%%%%%%%%%%%%%%%%%%%%%%%%%%%%%%%%%%%%%%%%%%%%%%%%%%%%%%
 system is built from all present ionic types
 system defined dimension   =  0 
 system defined axis        =  3 
 system center              =      0.0072664     0.0000000     0.0001166 
 system width               =      0.2348011 

%%%% ELECTRONS %%%%%%%%%%%%%%%%%%%%%%%%%%%%%%%%%%%%%%%%%%%%%%%%%%%%%%%%%%%%%%%%%
 number of electrons        =         30
 total electronic charge    =     30.0000000
 number of spin components  =  1

%%%% BOUNDARY %%%%%%%%%%%%%%%%%%%%%%%%%%%%%%%%%%%%%%%%%%%%%%%%%%%%%%%%%%%%%%%%%%
 boundary label             = solvent              
 boundary mode              = electronic           
 boundary is built as a function of a smooth density
 function type              =  2 
 using the modified SCCS function with parameters 
 rhomax                     =      0.0050000 
 rhomin                     =      0.0001000 
 volume of the QM region    =   2407.1059985 
 surface of the QM region   =    815.5587051 

%%%% DIELECTRIC %%%%%%%%%%%%%%%%%%%%%%%%%%%%%%%%%%%%%%%%%%%%%%%%%%%%%%%%%%%%%%%%%
 dielectric build on homogeneous background
 environment bulk permitt.  =     20.0000000 
 dielectric flags
 need gradient              =  F 
 need factor depend. sqrt   =  T 
 total dielectric charge    =      0.0000000

%%%% BOUNDARY %%%%%%%%%%%%%%%%%%%%%%%%%%%%%%%%%%%%%%%%%%%%%%%%%%%%%%%%%%%%%%%%%%
 boundary label             = electrolyte          
 boundary mode              = electronic           
 boundary is built as a function of a smooth density
 function type              =  2 
 using the modified SCCS function with parameters 
 rhomax                     =      0.0007000 
 rhomin                     =      0.0000150 
 volume of the QM region    =   5932.6916041 
 surface of the QM region   =   1117.5224416 

%%%% ELECTROLYTE %%%%%%%%%%%%%%%%%%%%%%%%%%%%%%%%%%%%%%%%%%%%%%%%%%%%%%%%%%%%%%%%
 number electrol. species   =    2
 solvent temperature        =   300.0
 Debye length / sqrt(eps)   =      0.2301070
 electrolyte species    1
 bulk concentration  (a.u.) =      0.7139E-03
 bulk concentration (mol/L) =      8.0000000
 ionic charge               =   -1.00
 electrolyte species    2
 bulk concentration  (a.u.) =      0.7139E-03
 bulk concentration (mol/L) =      8.0000000
 ionic charge               =    1.00
 electrolyte flags
 linearized                 =  T
 total electrolyte charge   =      0.0000000

%%%% DENSITY %%%%%%%%%%%%%%%%%%%%%%%%%%%%%%%%%%%%%%%%%%%%%%%%%%%%%%%%%%%%%%%%%%%
 density label              = vreference                                                                      
 integral of density        =      0.000000000    

%%%% DENSITY %%%%%%%%%%%%%%%%%%%%%%%%%%%%%%%%%%%%%%%%%%%%%%%%%%%%%%%%%%%%%%%%%%%
 density label              = velectrostatic                                                                  
 integral of density        =      0.000000000    

%%%% CHARGES %%%%%%%%%%%%%%%%%%%%%%%%%%%%%%%%%%%%%%%%%%%%%%%%%%%%%%%%%%%%%%%%%%%
 total number of charges    =         41
 total charge               =      0.0000000

%%%% DENSITY %%%%%%%%%%%%%%%%%%%%%%%%%%%%%%%%%%%%%%%%%%%%%%%%%%%%%%%%%%%%%%%%%%%
 density label              = vsoftcavity                                                                     
 integral of density        =      0.000000000    

%%%% ELECTRONS %%%%%%%%%%%%%%%%%%%%%%%%%%%%%%%%%%%%%%%%%%%%%%%%%%%%%%%%%%%%%%%%%
 number of electrons        =         30
 total electronic charge    =     30.0000000
 number of spin components  =  1

%%%% BOUNDARY %%%%%%%%%%%%%%%%%%%%%%%%%%%%%%%%%%%%%%%%%%%%%%%%%%%%%%%%%%%%%%%%%%
 boundary label             = solvent              
 boundary mode              = electronic           
 boundary is built as a function of a smooth density
 function type              =  2 
 using the modified SCCS function with parameters 
 rhomax                     =      0.0050000 
 rhomin                     =      0.0001000 
 volume of the QM region    =   1074.1872031 
 surface of the QM region   =    527.4240928 

%%%% DIELECTRIC %%%%%%%%%%%%%%%%%%%%%%%%%%%%%%%%%%%%%%%%%%%%%%%%%%%%%%%%%%%%%%%%%
 dielectric build on homogeneous background
 environment bulk permitt.  =     20.0000000 
 dielectric flags
 need gradient              =  F 
 need factor depend. sqrt   =  T 
 total dielectric charge    =      0.0000000

%%%% BOUNDARY %%%%%%%%%%%%%%%%%%%%%%%%%%%%%%%%%%%%%%%%%%%%%%%%%%%%%%%%%%%%%%%%%%
 boundary label             = electrolyte          
 boundary mode              = electronic           
 boundary is built as a function of a smooth density
 function type              =  2 
 using the modified SCCS function with parameters 
 rhomax                     =      0.0007000 
 rhomin                     =      0.0000150 
 volume of the QM region    =   3892.6005160 
 surface of the QM region   =   1002.4964165 

%%%% ELECTROLYTE %%%%%%%%%%%%%%%%%%%%%%%%%%%%%%%%%%%%%%%%%%%%%%%%%%%%%%%%%%%%%%%%
 number electrol. species   =    2
 solvent temperature        =   300.0
 Debye length / sqrt(eps)   =      0.2301070
 electrolyte species    1
 bulk concentration  (a.u.) =      0.7139E-03
 bulk concentration (mol/L) =      8.0000000
 ionic charge               =   -1.00
 electrolyte species    2
 bulk concentration  (a.u.) =      0.7139E-03
 bulk concentration (mol/L) =      8.0000000
 ionic charge               =    1.00
 electrolyte flags
 linearized                 =  T
 total electrolyte charge   =      0.0000000

%%%% DENSITY %%%%%%%%%%%%%%%%%%%%%%%%%%%%%%%%%%%%%%%%%%%%%%%%%%%%%%%%%%%%%%%%%%%
 density label              = vreference                                                                      
 integral of density        =    -0.6446201597E-12

%%%% COMPUTE ELECTROSTATIC POTENTIAL %%%%%%%%%%%%%%%%%%%%%%%%%%%%%%%%%%%%%%%%%%%
 Iteration #          1
  pAp =    123.246370530801       rzold =    120.820610365997       alpha = 
  0.980317796342751     
 delta_qm =   0.113770E-01 delta_en =   0.223666E+03 tol =   0.100000E-04
 Iteration #          2
  pAp =    1831.84264991564       rzold =    61.1486552299823       alpha = 
  3.338095399885928E-002
 delta_qm =   0.340736E-02 delta_en =   0.200622E+02 tol =   0.100000E-04
 Iteration #          3
  pAp =    7.97731263882778       rzold =    1.18910770690517       alpha = 
  0.149061188992074     
 delta_qm =   0.103088E-02 delta_en =   0.183635E+01 tol =   0.100000E-04
 Iteration #          4
  pAp =   0.303120893060939       rzold =   6.398632996213588E-002  alpha = 
  0.211091783598276     
 delta_qm =   0.538329E-03 delta_en =   0.500771E+00 tol =   0.100000E-04
 Iteration #          5
  pAp =   0.265289646668522       rzold =   2.892246751263072E-002  alpha = 
  0.109022224861904     
 delta_qm =   0.267711E-03 delta_en =   0.123844E+00 tol =   0.100000E-04
 Iteration #          6
  pAp =   8.054189272395621E-003  rzold =   2.186466773213770E-003  alpha = 
  0.271469504783991     
 delta_qm =   0.127041E-03 delta_en =   0.278887E-01 tol =   0.100000E-04
 Iteration #          7
  pAp =   3.983158228246836E-003  rzold =   4.581286551308614E-004  alpha = 
  0.115016433914679     
 delta_qm =   0.991326E-04 delta_en =   0.169815E-01 tol =   0.100000E-04
 Iteration #          8
  pAp =   5.079625924972877E-004  rzold =   1.602113790571625E-004  alpha = 
  0.315399955476088     
 delta_qm =   0.457873E-04 delta_en =   0.362271E-02 tol =   0.100000E-04
 Iteration #          9
  pAp =   1.177133665376522E-004  rzold =   3.250228448306568E-005  alpha = 
  0.276113796071489     
 delta_qm =   0.256109E-04 delta_en =   0.113343E-02 tol =   0.100000E-04
 Iteration #         10
  pAp =   7.819430685488708E-005  rzold =   1.654155135906225E-005  alpha = 
  0.211544190675672     
 delta_qm =   0.122148E-04 delta_en =   0.257820E-03 tol =   0.100000E-04
 Iteration #         11
  pAp =   5.010110920277593E-005  rzold =   6.069673196898081E-006  alpha = 
  0.121148479414539     
 delta_qm =   0.814430E-05 delta_en =   0.114618E-03 tol =   0.100000E-04
 Iteration #         12
  pAp =   2.989668854058858E-006  rzold =   1.106556914246523E-006  alpha = 
  0.370126916479138     
 delta_qm =   0.431525E-05 delta_en =   0.321778E-04 tol =   0.100000E-04
 Iteration #         13
  pAp =   3.068542240112302E-007  rzold =   1.901531810476975E-007  alpha = 
  0.619685720998054     
 delta_qm =   0.217019E-05 delta_en =   0.813837E-05 tol =   0.100000E-04
 Charges are converged, EXIT

%%%% DENSITY %%%%%%%%%%%%%%%%%%%%%%%%%%%%%%%%%%%%%%%%%%%%%%%%%%%%%%%%%%%%%%%%%%%
 density label              = velectrostatic                                                                  
 integral of density        =     -278.3469669    

%%%% CHARGES %%%%%%%%%%%%%%%%%%%%%%%%%%%%%%%%%%%%%%%%%%%%%%%%%%%%%%%%%%%%%%%%%%%
 total number of charges    =         41
 total charge               =     -0.0000000

%%%% DENSITY %%%%%%%%%%%%%%%%%%%%%%%%%%%%%%%%%%%%%%%%%%%%%%%%%%%%%%%%%%%%%%%%%%%
 density label              = vsoftcavity                                                                     
 integral of density        =      121.7796205    

%%%% ELECTRONS %%%%%%%%%%%%%%%%%%%%%%%%%%%%%%%%%%%%%%%%%%%%%%%%%%%%%%%%%%%%%%%%%
 number of electrons        =         30
 total electronic charge    =     30.0000000
 number of spin components  =  1

%%%% BOUNDARY %%%%%%%%%%%%%%%%%%%%%%%%%%%%%%%%%%%%%%%%%%%%%%%%%%%%%%%%%%%%%%%%%%
 boundary label             = solvent              
 boundary mode              = electronic           
 boundary is built as a function of a smooth density
 function type              =  2 
 using the modified SCCS function with parameters 
 rhomax                     =      0.0050000 
 rhomin                     =      0.0001000 
 volume of the QM region    =   1022.9678573 
 surface of the QM region   =    515.5809753 

%%%% DIELECTRIC %%%%%%%%%%%%%%%%%%%%%%%%%%%%%%%%%%%%%%%%%%%%%%%%%%%%%%%%%%%%%%%%%
 dielectric build on homogeneous background
 environment bulk permitt.  =     20.0000000 
 dielectric flags
 need gradient              =  F 
 need factor depend. sqrt   =  T 
 total dielectric charge    =      0.0040597

%%%% BOUNDARY %%%%%%%%%%%%%%%%%%%%%%%%%%%%%%%%%%%%%%%%%%%%%%%%%%%%%%%%%%%%%%%%%%
 boundary label             = electrolyte          
 boundary mode              = electronic           
 boundary is built as a function of a smooth density
 function type              =  2 
 using the modified SCCS function with parameters 
 rhomax                     =      0.0007000 
 rhomin                     =      0.0000150 
 volume of the QM region    =   2617.1083191 
 surface of the QM region   =    874.0878503 

%%%% ELECTROLYTE %%%%%%%%%%%%%%%%%%%%%%%%%%%%%%%%%%%%%%%%%%%%%%%%%%%%%%%%%%%%%%%%
 number electrol. species   =    2
 solvent temperature        =   300.0
 Debye length / sqrt(eps)   =      0.2301070
 electrolyte species    1
 bulk concentration  (a.u.) =      0.7139E-03
 bulk concentration (mol/L) =      8.0000000
 ionic charge               =   -1.00
 electrolyte species    2
 bulk concentration  (a.u.) =      0.7139E-03
 bulk concentration (mol/L) =      8.0000000
 ionic charge               =    1.00
 electrolyte flags
 linearized                 =  T
 total electrolyte charge   =     -0.0045523

%%%% DENSITY %%%%%%%%%%%%%%%%%%%%%%%%%%%%%%%%%%%%%%%%%%%%%%%%%%%%%%%%%%%%%%%%%%%
 density label              = vreference                                                                      
 integral of density        =    -0.4931692914E-12

%%%% COMPUTE ELECTROSTATIC POTENTIAL %%%%%%%%%%%%%%%%%%%%%%%%%%%%%%%%%%%%%%%%%%%
 Warning: bad guess with residual norm =   0.199883E+03, reset to no guess
 Iteration #          1
  pAp =    124.050814470775       rzold =    122.298990948330       alpha = 
  0.985878177987634     
 delta_qm =   0.106591E-01 delta_en =   0.196330E+03 tol =   0.100000E-04
 Iteration #          2
  pAp =    2136.10226491229       rzold =    55.3936303759132       alpha = 
  2.593210600719430E-002
 delta_qm =   0.350158E-02 delta_en =   0.211871E+02 tol =   0.100000E-04
 Iteration #          3
  pAp =    15.3135331301324       rzold =    1.48698623326542       alpha = 
  9.710275353370183E-002
 delta_qm =   0.185052E-02 delta_en =   0.591739E+01 tol =   0.100000E-04
 Iteration #          4
  pAp =    2.94944614386507       rzold =   0.342642077143764       alpha = 
  0.116171667638844     
 delta_qm =   0.795401E-03 delta_en =   0.109324E+01 tol =   0.100000E-04
 Iteration #          5
  pAp =   0.247928222844721       rzold =   4.227577775077071E-002  alpha = 
  0.170516197251365     
 delta_qm =   0.306781E-03 delta_en =   0.162630E+00 tol =   0.100000E-04
 Iteration #          6
  pAp =   1.579282521549999E-002  rzold =   3.466464640412404E-003  alpha = 
  0.219496169501719     
 delta_qm =   0.159154E-03 delta_en =   0.437700E-01 tol =   0.100000E-04
 Iteration #          7
  pAp =   3.960719244252623E-003  rzold =   7.287993532830408E-004  alpha = 
  0.184006820059412     
 delta_qm =   0.105262E-03 delta_en =   0.191462E-01 tol =   0.100000E-04
 Iteration #          8
  pAp =   8.510988305529921E-004  rzold =   1.643378480315207E-004  alpha = 
  0.193089030476924     
 delta_qm =   0.753059E-04 delta_en =   0.979944E-02 tol =   0.100000E-04
 Iteration #          9
  pAp =   1.156206614442874E-003  rzold =   1.649279736997023E-004  alpha = 
  0.142645762132380     
 delta_qm =   0.414018E-04 delta_en =   0.296197E-02 tol =   0.100000E-04
 Iteration #         10
  pAp =   8.037994987640318E-005  rzold =   2.480277290232875E-005  alpha = 
  0.308569151143624     
 delta_qm =   0.183233E-04 delta_en =   0.580167E-03 tol =   0.100000E-04
 Iteration #         11
  pAp =   9.825448910382116E-005  rzold =   1.084738676847735E-005  alpha = 
  0.110400927910941     
 delta_qm =   0.131594E-04 delta_en =   0.299240E-03 tol =   0.100000E-04
 Iteration #         12
  pAp =   2.253652027190018E-005  rzold =   3.613437285641325E-006  alpha = 
  0.160336966046474     
 delta_qm =   0.946825E-05 delta_en =   0.154911E-03 tol =   0.100000E-04
 Iteration #         13
  pAp =   6.039482361777434E-006  rzold =   1.388766691489679E-006  alpha = 
  0.229947967110374     
 delta_qm =   0.563631E-05 delta_en =   0.548952E-04 tol =   0.100000E-04
 Iteration #         14
  pAp =   4.617386689120726E-007  rzold =   2.230942144727114E-007  alpha = 
  0.483161211077157     
 delta_qm =   0.311712E-05 delta_en =   0.167900E-04 tol =   0.100000E-04
 Iteration #         15
  pAp =   6.370700316633592E-007  rzold =   9.360798772536764E-008  alpha = 
  0.146935161085763     
 delta_qm =   0.232714E-05 delta_en =   0.935813E-05 tol =   0.100000E-04
 Charges are converged, EXIT

%%%% DENSITY %%%%%%%%%%%%%%%%%%%%%%%%%%%%%%%%%%%%%%%%%%%%%%%%%%%%%%%%%%%%%%%%%%%
 density label              = velectrostatic                                                                  
 integral of density        =     -285.7574944    

%%%% CHARGES %%%%%%%%%%%%%%%%%%%%%%%%%%%%%%%%%%%%%%%%%%%%%%%%%%%%%%%%%%%%%%%%%%%
 total number of charges    =         41
 total charge               =     -0.0000000

%%%% DENSITY %%%%%%%%%%%%%%%%%%%%%%%%%%%%%%%%%%%%%%%%%%%%%%%%%%%%%%%%%%%%%%%%%%%
 density label              = vsoftcavity                                                                     
 integral of density        =      114.9270571    

%%%% ELECTRONS %%%%%%%%%%%%%%%%%%%%%%%%%%%%%%%%%%%%%%%%%%%%%%%%%%%%%%%%%%%%%%%%%
 number of electrons        =         30
 total electronic charge    =     30.0000000
 number of spin components  =  1

%%%% BOUNDARY %%%%%%%%%%%%%%%%%%%%%%%%%%%%%%%%%%%%%%%%%%%%%%%%%%%%%%%%%%%%%%%%%%
 boundary label             = solvent              
 boundary mode              = electronic           
 boundary is built as a function of a smooth density
 function type              =  2 
 using the modified SCCS function with parameters 
 rhomax                     =      0.0050000 
 rhomin                     =      0.0001000 
 volume of the QM region    =    990.3003501 
 surface of the QM region   =    507.9803985 

%%%% DIELECTRIC %%%%%%%%%%%%%%%%%%%%%%%%%%%%%%%%%%%%%%%%%%%%%%%%%%%%%%%%%%%%%%%%%
 dielectric build on homogeneous background
 environment bulk permitt.  =     20.0000000 
 dielectric flags
 need gradient              =  F 
 need factor depend. sqrt   =  T 
 total dielectric charge    =     -0.0037374

%%%% BOUNDARY %%%%%%%%%%%%%%%%%%%%%%%%%%%%%%%%%%%%%%%%%%%%%%%%%%%%%%%%%%%%%%%%%%
 boundary label             = electrolyte          
 boundary mode              = electronic           
 boundary is built as a function of a smooth density
 function type              =  2 
 using the modified SCCS function with parameters 
 rhomax                     =      0.0007000 
 rhomin                     =      0.0000150 
 volume of the QM region    =   1838.5608380 
 surface of the QM region   =    752.9739858 

%%%% ELECTROLYTE %%%%%%%%%%%%%%%%%%%%%%%%%%%%%%%%%%%%%%%%%%%%%%%%%%%%%%%%%%%%%%%%
 number electrol. species   =    2
 solvent temperature        =   300.0
 Debye length / sqrt(eps)   =      0.2301070
 electrolyte species    1
 bulk concentration  (a.u.) =      0.7139E-03
 bulk concentration (mol/L) =      8.0000000
 ionic charge               =   -1.00
 electrolyte species    2
 bulk concentration  (a.u.) =      0.7139E-03
 bulk concentration (mol/L) =      8.0000000
 ionic charge               =    1.00
 electrolyte flags
 linearized                 =  T
 total electrolyte charge   =      0.0039184

%%%% DENSITY %%%%%%%%%%%%%%%%%%%%%%%%%%%%%%%%%%%%%%%%%%%%%%%%%%%%%%%%%%%%%%%%%%%
 density label              = vreference                                                                      
 integral of density        =    -0.2811907086E-12

%%%% COMPUTE ELECTROSTATIC POTENTIAL %%%%%%%%%%%%%%%%%%%%%%%%%%%%%%%%%%%%%%%%%%%
 Warning: bad guess with residual norm =   0.171263E+03, reset to no guess
 Iteration #          1
  pAp =    124.045279711802       rzold =    122.820076133698       alpha = 
  0.990122932682726     
 delta_qm =   0.988676E-02 delta_en =   0.168908E+03 tol =   0.100000E-04
 Iteration #          2
  pAp =    2086.25979690741       rzold =    46.2957236937876       alpha = 
  2.219077593424107E-002
 delta_qm =   0.304102E-02 delta_en =   0.159802E+02 tol =   0.100000E-04
 Iteration #          3
  pAp =    10.4181581794568       rzold =   0.974271521550129       alpha = 
  9.351667586227122E-002
 delta_qm =   0.157661E-02 delta_en =   0.429526E+01 tol =   0.100000E-04
 Iteration #          4
  pAp =    2.23167169448024       rzold =   0.236908753648653       alpha = 
  0.106157529458575     
 delta_qm =   0.792845E-03 delta_en =   0.108623E+01 tol =   0.100000E-04
 Iteration #          5
  pAp =   0.258624291970024       rzold =   4.121762194651405E-002  alpha = 
  0.159372584966966     
 delta_qm =   0.326671E-03 delta_en =   0.184402E+00 tol =   0.100000E-04
 Iteration #          6
  pAp =   2.200872895473262E-002  rzold =   4.264889001296667E-003  alpha = 
  0.193781704071537     
 delta_qm =   0.163429E-03 delta_en =   0.461531E-01 tol =   0.100000E-04
 Iteration #          7
  pAp =   3.963737652188215E-003  rzold =   7.336183575992729E-004  alpha = 
  0.185082470630788     
 delta_qm =   0.107761E-03 delta_en =   0.200661E-01 tol =   0.100000E-04
 Iteration #          8
  pAp =   3.859027109128576E-004  rzold =   1.280094165672220E-004  alpha = 
  0.331714219535836     
 delta_qm =   0.573114E-04 delta_en =   0.567579E-02 tol =   0.100000E-04
 Iteration #          9
  pAp =   1.051302670283281E-003  rzold =   9.401925078606583E-005  alpha = 
  8.943119183815229E-002
 delta_qm =   0.414582E-04 delta_en =   0.297006E-02 tol =   0.100000E-04
 Iteration #         10
  pAp =   1.088059754983090E-004  rzold =   2.579209645866876E-005  alpha = 
  0.237046691053007     
 delta_qm =   0.214115E-04 delta_en =   0.792207E-03 tol =   0.100000E-04
 Iteration #         11
  pAp =   7.063074955881971E-005  rzold =   1.168731501525614E-005  alpha = 
  0.165470635498823     
 delta_qm =   0.126290E-04 delta_en =   0.275603E-03 tol =   0.100000E-04
 Iteration #         12
  pAp =   6.554719190080120E-006  rzold =   1.826324596465138E-006  alpha = 
  0.278627435211731     
 delta_qm =   0.753246E-05 delta_en =   0.980431E-04 tol =   0.100000E-04
 Iteration #         13
  pAp =   1.437270994688777E-005  rzold =   1.219386760818334E-006  alpha = 
  8.484042086178580E-002
 delta_qm =   0.604608E-05 delta_en =   0.631673E-04 tol =   0.100000E-04
 Iteration #         14
  pAp =   8.056610044138809E-007  rzold =   2.694135843668155E-007  alpha = 
  0.334400675831163     
 delta_qm =   0.397111E-05 delta_en =   0.272500E-04 tol =   0.100000E-04
 Iteration #         15
  pAp =   4.578505405066382E-006  rzold =   1.959460781672083E-007  alpha = 
  4.279695246190659E-002
 delta_qm =   0.344840E-05 delta_en =   0.205484E-04 tol =   0.100000E-04
 Iteration #         16
  pAp =   7.044567792853022E-007  rzold =   1.685157205813780E-007  alpha = 
  0.239213711240516     
 delta_qm =   0.169959E-05 delta_en =   0.499153E-05 tol =   0.100000E-04
 Charges are converged, EXIT

%%%% DENSITY %%%%%%%%%%%%%%%%%%%%%%%%%%%%%%%%%%%%%%%%%%%%%%%%%%%%%%%%%%%%%%%%%%%
 density label              = velectrostatic                                                                  
 integral of density        =     -279.0713561    

%%%% CHARGES %%%%%%%%%%%%%%%%%%%%%%%%%%%%%%%%%%%%%%%%%%%%%%%%%%%%%%%%%%%%%%%%%%%
 total number of charges    =         41
 total charge               =     -0.0000000

%%%% DENSITY %%%%%%%%%%%%%%%%%%%%%%%%%%%%%%%%%%%%%%%%%%%%%%%%%%%%%%%%%%%%%%%%%%%
 density label              = vsoftcavity                                                                     
 integral of density        =      59.59446347    

%%%% ELECTRONS %%%%%%%%%%%%%%%%%%%%%%%%%%%%%%%%%%%%%%%%%%%%%%%%%%%%%%%%%%%%%%%%%
 number of electrons        =         30
 total electronic charge    =     30.0000000
 number of spin components  =  1

%%%% BOUNDARY %%%%%%%%%%%%%%%%%%%%%%%%%%%%%%%%%%%%%%%%%%%%%%%%%%%%%%%%%%%%%%%%%%
 boundary label             = solvent              
 boundary mode              = electronic           
 boundary is built as a function of a smooth density
 function type              =  2 
 using the modified SCCS function with parameters 
 rhomax                     =      0.0050000 
 rhomin                     =      0.0001000 
 volume of the QM region    =    970.6213784 
 surface of the QM region   =    503.1878916 

%%%% DIELECTRIC %%%%%%%%%%%%%%%%%%%%%%%%%%%%%%%%%%%%%%%%%%%%%%%%%%%%%%%%%%%%%%%%%
 dielectric build on homogeneous background
 environment bulk permitt.  =     20.0000000 
 dielectric flags
 need gradient              =  F 
 need factor depend. sqrt   =  T 
 total dielectric charge    =     -0.0000677

%%%% BOUNDARY %%%%%%%%%%%%%%%%%%%%%%%%%%%%%%%%%%%%%%%%%%%%%%%%%%%%%%%%%%%%%%%%%%
 boundary label             = electrolyte          
 boundary mode              = electronic           
 boundary is built as a function of a smooth density
 function type              =  2 
 using the modified SCCS function with parameters 
 rhomax                     =      0.0007000 
 rhomin                     =      0.0000150 
 volume of the QM region    =   1613.9098724 
 surface of the QM region   =    689.3601740 

%%%% ELECTROLYTE %%%%%%%%%%%%%%%%%%%%%%%%%%%%%%%%%%%%%%%%%%%%%%%%%%%%%%%%%%%%%%%%
 number electrol. species   =    2
 solvent temperature        =   300.0
 Debye length / sqrt(eps)   =      0.2301070
 electrolyte species    1
 bulk concentration  (a.u.) =      0.7139E-03
 bulk concentration (mol/L) =      8.0000000
 ionic charge               =   -1.00
 electrolyte species    2
 bulk concentration  (a.u.) =      0.7139E-03
 bulk concentration (mol/L) =      8.0000000
 ionic charge               =    1.00
 electrolyte flags
 linearized                 =  T
 total electrolyte charge   =      0.0000080

%%%% DENSITY %%%%%%%%%%%%%%%%%%%%%%%%%%%%%%%%%%%%%%%%%%%%%%%%%%%%%%%%%%%%%%%%%%%
 density label              = vreference                                                                      
 integral of density        =    -0.6192248360E-12

%%%% COMPUTE ELECTROSTATIC POTENTIAL %%%%%%%%%%%%%%%%%%%%%%%%%%%%%%%%%%%%%%%%%%%
 Warning: bad guess with residual norm =   0.150075E+03, reset to no guess
 Iteration #          1
  pAp =    123.587809599719       rzold =    122.592748727809       alpha = 
  0.991948551599602     
 delta_qm =   0.926530E-02 delta_en =   0.148341E+03 tol =   0.100000E-04
 Iteration #          2
  pAp =    1746.66878013528       rzold =    37.3912827848141       alpha = 
  2.140719706567270E-002
 delta_qm =   0.323713E-02 delta_en =   0.181077E+02 tol =   0.100000E-04
 Iteration #          3
  pAp =    12.9807890770172       rzold =    1.09767519978621       alpha = 
  8.456151573479230E-002
 delta_qm =   0.169258E-02 delta_en =   0.495044E+01 tol =   0.100000E-04
 Iteration #          4
  pAp =    2.26676302155671       rzold =   0.254578268301688       alpha = 
  0.112309167690081     
 delta_qm =   0.843106E-03 delta_en =   0.122831E+01 tol =   0.100000E-04
 Iteration #          5
  pAp =   0.308400197583097       rzold =   4.708077224303487E-002  alpha = 
  0.152661290790351     
 delta_qm =   0.346131E-03 delta_en =   0.207026E+00 tol =   0.100000E-04
 Iteration #          6
  pAp =   2.285513229834637E-002  rzold =   4.539220894775603E-003  alpha = 
  0.198608384126660     
 delta_qm =   0.164501E-03 delta_en =   0.467609E-01 tol =   0.100000E-04
 Iteration #          7
  pAp =   3.706397334242502E-003  rzold =   6.820832017495108E-004  alpha = 
  0.184028624089466     
 delta_qm =   0.114562E-03 delta_en =   0.226792E-01 tol =   0.100000E-04
 Iteration #          8
  pAp =   4.475438586686720E-004  rzold =   1.457143627161684E-004  alpha = 
  0.325586777460496     
 delta_qm =   0.575691E-04 delta_en =   0.572694E-02 tol =   0.100000E-04
 Iteration #          9
  pAp =   8.718107116155950E-004  rzold =   7.894690565617432E-005  alpha = 
  9.055509940899206E-002
 delta_qm =   0.435904E-04 delta_en =   0.328342E-02 tol =   0.100000E-04
 Iteration #         10
  pAp =   1.190654283581864E-004  rzold =   2.920372276459841E-005  alpha = 
  0.245274578585015     
 delta_qm =   0.209758E-04 delta_en =   0.760289E-03 tol =   0.100000E-04
 Iteration #         11
  pAp =   6.472732990326956E-005  rzold =   9.966830566135829E-006  alpha = 
  0.153981796885961     
 delta_qm =   0.140524E-04 delta_en =   0.341230E-03 tol =   0.100000E-04
 Iteration #         12
  pAp =   6.927049124165795E-006  rzold =   2.095668043988041E-006  alpha = 
  0.302534023712502     
 delta_qm =   0.751778E-05 delta_en =   0.976615E-04 tol =   0.100000E-04
 Iteration #         13
  pAp =   1.143892617005636E-006  rzold =   3.543695947716626E-007  alpha = 
  0.309792710874640     
 delta_qm =   0.519413E-05 delta_en =   0.466197E-04 tol =   0.100000E-04
 Iteration #         14
  pAp =   4.310034116392590E-006  rzold =   3.736623286006385E-007  alpha = 
  8.669590970973244E-002
 delta_qm =   0.448258E-05 delta_en =   0.347216E-04 tol =   0.100000E-04
 Iteration #         15
  pAp =   4.925939674769926E-006  rzold =   2.393970689720710E-007  alpha = 
  4.859926933296285E-002
 delta_qm =   0.378634E-05 delta_en =   0.247732E-04 tol =   0.100000E-04
 Iteration #         16
  pAp =   1.408867774597914E-006  rzold =   2.346314491019672E-007  alpha = 
  0.166539013335677     
 delta_qm =   0.204738E-05 delta_en =   0.724336E-05 tol =   0.100000E-04
 Charges are converged, EXIT

%%%% DENSITY %%%%%%%%%%%%%%%%%%%%%%%%%%%%%%%%%%%%%%%%%%%%%%%%%%%%%%%%%%%%%%%%%%%
 density label              = velectrostatic                                                                  
 integral of density        =     -273.2668747    

%%%% CHARGES %%%%%%%%%%%%%%%%%%%%%%%%%%%%%%%%%%%%%%%%%%%%%%%%%%%%%%%%%%%%%%%%%%%
 total number of charges    =         41
 total charge               =      0.0000000

%%%% DENSITY %%%%%%%%%%%%%%%%%%%%%%%%%%%%%%%%%%%%%%%%%%%%%%%%%%%%%%%%%%%%%%%%%%%
 density label              = vsoftcavity                                                                     
 integral of density        =      33.76965835    

%%%% ELECTRONS %%%%%%%%%%%%%%%%%%%%%%%%%%%%%%%%%%%%%%%%%%%%%%%%%%%%%%%%%%%%%%%%%
 number of electrons        =         30
 total electronic charge    =     30.0000000
 number of spin components  =  1

%%%% BOUNDARY %%%%%%%%%%%%%%%%%%%%%%%%%%%%%%%%%%%%%%%%%%%%%%%%%%%%%%%%%%%%%%%%%%
 boundary label             = solvent              
 boundary mode              = electronic           
 boundary is built as a function of a smooth density
 function type              =  2 
 using the modified SCCS function with parameters 
 rhomax                     =      0.0050000 
 rhomin                     =      0.0001000 
 volume of the QM region    =    968.3197057 
 surface of the QM region   =    502.9937541 

%%%% DIELECTRIC %%%%%%%%%%%%%%%%%%%%%%%%%%%%%%%%%%%%%%%%%%%%%%%%%%%%%%%%%%%%%%%%%
 dielectric build on homogeneous background
 environment bulk permitt.  =     20.0000000 
 dielectric flags
 need gradient              =  F 
 need factor depend. sqrt   =  T 
 total dielectric charge    =      0.0001346

%%%% BOUNDARY %%%%%%%%%%%%%%%%%%%%%%%%%%%%%%%%%%%%%%%%%%%%%%%%%%%%%%%%%%%%%%%%%%
 boundary label             = electrolyte          
 boundary mode              = electronic           
 boundary is built as a function of a smooth density
 function type              =  2 
 using the modified SCCS function with parameters 
 rhomax                     =      0.0007000 
 rhomin                     =      0.0000150 
 volume of the QM region    =   1568.2687315 
 surface of the QM region   =    678.1998216 

%%%% ELECTROLYTE %%%%%%%%%%%%%%%%%%%%%%%%%%%%%%%%%%%%%%%%%%%%%%%%%%%%%%%%%%%%%%%%
 number electrol. species   =    2
 solvent temperature        =   300.0
 Debye length / sqrt(eps)   =      0.2301070
 electrolyte species    1
 bulk concentration  (a.u.) =      0.7139E-03
 bulk concentration (mol/L) =      8.0000000
 ionic charge               =   -1.00
 electrolyte species    2
 bulk concentration  (a.u.) =      0.7139E-03
 bulk concentration (mol/L) =      8.0000000
 ionic charge               =    1.00
 electrolyte flags
 linearized                 =  T
 total electrolyte charge   =     -0.0002195

%%%% DENSITY %%%%%%%%%%%%%%%%%%%%%%%%%%%%%%%%%%%%%%%%%%%%%%%%%%%%%%%%%%%%%%%%%%%
 density label              = vreference                                                                      
 integral of density        =    -0.5584339575E-12

%%%% COMPUTE ELECTROSTATIC POTENTIAL %%%%%%%%%%%%%%%%%%%%%%%%%%%%%%%%%%%%%%%%%%%
 Warning: bad guess with residual norm =   0.141963E+03, reset to no guess
 Iteration #          1
  pAp =    123.637463493864       rzold =    122.716183070063       alpha = 
  0.992548533447981     
 delta_qm =   0.901494E-02 delta_en =   0.140433E+03 tol =   0.100000E-04
 Iteration #          2
  pAp =    1614.87085018157       rzold =    34.3564233121203       alpha = 
  2.127502846946391E-002
 delta_qm =   0.326424E-02 delta_en =   0.184123E+02 tol =   0.100000E-04
 Iteration #          3
  pAp =    13.7266736075135       rzold =    1.12286699741037       alpha = 
  8.180182828822787E-002
 delta_qm =   0.170520E-02 delta_en =   0.502453E+01 tol =   0.100000E-04
 Iteration #          4
  pAp =    2.21166571046085       rzold =   0.253201396123043       alpha = 
  0.114484478791455     
 delta_qm =   0.838886E-03 delta_en =   0.121605E+01 tol =   0.100000E-04
 Iteration #          5
  pAp =   0.307089534616378       rzold =   4.645329544141826E-002  alpha = 
  0.151269549121720     
 delta_qm =   0.347280E-03 delta_en =   0.208403E+00 tol =   0.100000E-04
 Iteration #          6
  pAp =   2.209923862683942E-002  rzold =   4.450768175727975E-003  alpha = 
  0.201399163603878     
 delta_qm =   0.163222E-03 delta_en =   0.460362E-01 tol =   0.100000E-04
 Iteration #          7
  pAp =   3.530954078451494E-003  rzold =   6.509113755853533E-004  alpha = 
  0.184344333322741     
 delta_qm =   0.115329E-03 delta_en =   0.229837E-01 tol =   0.100000E-04
 Iteration #          8
  pAp =   4.791815289801549E-004  rzold =   1.494112663428120E-004  alpha = 
  0.311805145454594     
 delta_qm =   0.589470E-04 delta_en =   0.600436E-02 tol =   0.100000E-04
 Iteration #          9
  pAp =   1.007069035793567E-003  rzold =   8.749323852148454E-005  alpha = 
  8.687908714474588E-002
 delta_qm =   0.443607E-04 delta_en =   0.340048E-02 tol =   0.100000E-04
 Iteration #         10
  pAp =   1.067552298538669E-004  rzold =   2.813245566434465E-005  alpha = 
  0.263522974029976     
 delta_qm =   0.208596E-04 delta_en =   0.751895E-03 tol =   0.100000E-04
 Iteration #         11
  pAp =   5.979559604153685E-005  rzold =   9.252103191799942E-006  alpha = 
  0.154728839651887     
 delta_qm =   0.142765E-04 delta_en =   0.352198E-03 tol =   0.100000E-04
 Iteration #         12
  pAp =   7.281557305428168E-006  rzold =   2.144232668265238E-006  alpha = 
  0.294474461756523     
 delta_qm =   0.770420E-05 delta_en =   0.102565E-03 tol =   0.100000E-04
 Iteration #         13
  pAp =   1.236481433629434E-006  rzold =   3.593744567065612E-007  alpha = 
  0.290642824819207     
 delta_qm =   0.544968E-05 delta_en =   0.513198E-04 tol =   0.100000E-04
 Iteration #         14
  pAp =   4.986331479869059E-006  rzold =   4.211331346459546E-007  alpha = 
  8.445750876093251E-002
 delta_qm =   0.468778E-05 delta_en =   0.379733E-04 tol =   0.100000E-04
 Iteration #         15
  pAp =   6.426706746907309E-006  rzold =   2.713756275908651E-007  alpha = 
  4.222623472301079E-002
 delta_qm =   0.400545E-05 delta_en =   0.277234E-04 tol =   0.100000E-04
 Iteration #         16
  pAp =   9.890500280976982E-007  rzold =   1.996830066915631E-007  alpha = 
  0.201893737443824     
 delta_qm =   0.212936E-05 delta_en =   0.783506E-05 tol =   0.100000E-04
 Charges are converged, EXIT

%%%% DENSITY %%%%%%%%%%%%%%%%%%%%%%%%%%%%%%%%%%%%%%%%%%%%%%%%%%%%%%%%%%%%%%%%%%%
 density label              = velectrostatic                                                                  
 integral of density        =     -273.4163332    

%%%% CHARGES %%%%%%%%%%%%%%%%%%%%%%%%%%%%%%%%%%%%%%%%%%%%%%%%%%%%%%%%%%%%%%%%%%%
 total number of charges    =         41
 total charge               =      0.0000000

%%%% DENSITY %%%%%%%%%%%%%%%%%%%%%%%%%%%%%%%%%%%%%%%%%%%%%%%%%%%%%%%%%%%%%%%%%%%
 density label              = vsoftcavity                                                                     
 integral of density        =      29.70593425    

%%%% ELECTRONS %%%%%%%%%%%%%%%%%%%%%%%%%%%%%%%%%%%%%%%%%%%%%%%%%%%%%%%%%%%%%%%%%
 number of electrons        =         30
 total electronic charge    =     30.0000000
 number of spin components  =  1

%%%% BOUNDARY %%%%%%%%%%%%%%%%%%%%%%%%%%%%%%%%%%%%%%%%%%%%%%%%%%%%%%%%%%%%%%%%%%
 boundary label             = solvent              
 boundary mode              = electronic           
 boundary is built as a function of a smooth density
 function type              =  2 
 using the modified SCCS function with parameters 
 rhomax                     =      0.0050000 
 rhomin                     =      0.0001000 
 volume of the QM region    =    968.3197057 
 surface of the QM region   =    502.9937541 

%%%% DIELECTRIC %%%%%%%%%%%%%%%%%%%%%%%%%%%%%%%%%%%%%%%%%%%%%%%%%%%%%%%%%%%%%%%%%
 dielectric build on homogeneous background
 environment bulk permitt.  =     20.0000000 
 dielectric flags
 need gradient              =  F 
 need factor depend. sqrt   =  T 
 total dielectric charge    =      0.0000977

%%%% BOUNDARY %%%%%%%%%%%%%%%%%%%%%%%%%%%%%%%%%%%%%%%%%%%%%%%%%%%%%%%%%%%%%%%%%%
 boundary label             = electrolyte          
 boundary mode              = electronic           
 boundary is built as a function of a smooth density
 function type              =  2 
 using the modified SCCS function with parameters 
 rhomax                     =      0.0007000 
 rhomin                     =      0.0000150 
 volume of the QM region    =   1568.2687315 
 surface of the QM region   =    678.1998216 

%%%% ELECTROLYTE %%%%%%%%%%%%%%%%%%%%%%%%%%%%%%%%%%%%%%%%%%%%%%%%%%%%%%%%%%%%%%%%
 number electrol. species   =    2
 solvent temperature        =   300.0
 Debye length / sqrt(eps)   =      0.2301070
 electrolyte species    1
 bulk concentration  (a.u.) =      0.7139E-03
 bulk concentration (mol/L) =      8.0000000
 ionic charge               =   -1.00
 electrolyte species    2
 bulk concentration  (a.u.) =      0.7139E-03
 bulk concentration (mol/L) =      8.0000000
 ionic charge               =    1.00
 electrolyte flags
 linearized                 =  T
 total electrolyte charge   =     -0.0001853

%%%% DENSITY %%%%%%%%%%%%%%%%%%%%%%%%%%%%%%%%%%%%%%%%%%%%%%%%%%%%%%%%%%%%%%%%%%%
 density label              = vreference                                                                      
 integral of density        =    -0.5584339575E-12

%%%% DENSITY %%%%%%%%%%%%%%%%%%%%%%%%%%%%%%%%%%%%%%%%%%%%%%%%%%%%%%%%%%%%%%%%%%%
 density label              = velectrostatic                                                                  
 integral of density        =     -273.4163332    

%%%% CHARGES %%%%%%%%%%%%%%%%%%%%%%%%%%%%%%%%%%%%%%%%%%%%%%%%%%%%%%%%%%%%%%%%%%%
 total number of charges    =         41
 total charge               =      0.0000000

%%%% DENSITY %%%%%%%%%%%%%%%%%%%%%%%%%%%%%%%%%%%%%%%%%%%%%%%%%%%%%%%%%%%%%%%%%%%
 density label              = vsoftcavity                                                                     
 integral of density        =      29.70593425    
