
     Program PWSCF v.6.1 (svn rev. 13369) starts on  1Feb2018 at 12:20: 0 

     This program is part of the open-source Quantum ESPRESSO suite
     for quantum simulation of materials; please cite
         "P. Giannozzi et al., J. Phys.:Condens. Matter 21 395502 (2009);
          URL http://www.quantum-espresso.org", 
     in publications or presentations arising from this work. More details at
     http://www.quantum-espresso.org/quote

     Parallel version (MPI), running on     1 processors
     Reading input from pw.in

     Current dimensions of program PWSCF are:
     Max number of different atomic species (ntypx) = 10
     Max number of k-points (npk) =  40000
     Max angular momentum in pseudopotentials (lmaxx) =  3
               file N.pbe-rrkjus.UPF: wavefunction(s)  2S renormalized
               file C.pbe-rrkjus.UPF: wavefunction(s)  2S 2P renormalized
               file H.pbe-rrkjus.UPF: wavefunction(s)  1S renormalized

     gamma-point specific algorithms are used

     Subspace diagonalization in iterative solution of the eigenvalue problem:
     a serial algorithm will be used

 
     G-vector sticks info
     --------------------
     sticks:   dense  smooth     PW     G-vecs:    dense   smooth      PW
     Sum        9549    3809    949               701475   177509   22119
 


     bravais-lattice index     =            1
     lattice parameter (alat)  =      20.0000  a.u.
     unit-cell volume          =    8000.0000 (a.u.)^3
     number of atoms/cell      =           11
     number of atomic types    =            3
     number of electrons       =        30.00
     number of Kohn-Sham states=           15
     kinetic-energy cutoff     =      30.0000  Ry
     charge density cutoff     =     300.0000  Ry
     convergence threshold     =      5.0E-04
     mixing beta               =       0.7000
     number of iterations used =            8  plain     mixing
     Exchange-correlation      =  SLA  PW   PBE  PBE ( 1  4  3  4 0 0)
 

     Environ Module
     ==============

     Plese cite
         O. Andreussi, I. Dabo and N. Marzari, J. Chem. Phys. 136, 064102 (2012)         
     in publications or presentations arising from this work.

     compensation onset threshold      =               0.1000E+03 
     static permittivity               =                    20.00 
     epsilon calculation mode          =               electronic 

     Electrostatic Setup
     -------------------
     electrostatic problem to solve    = linmodpb                 
     numerical solver adopted          = cg                       
     type of auxiliary density adopted = none                     
     type of core tool for poisson     = fft                      
     type of core tool for s(r) deriv  = analytic                 



     celldm(1)=  20.000000  celldm(2)=   0.000000  celldm(3)=   0.000000
     celldm(4)=   0.000000  celldm(5)=   0.000000  celldm(6)=   0.000000

     crystal axes: (cart. coord. in units of alat)
               a(1) = (   1.000000   0.000000   0.000000 )  
               a(2) = (   0.000000   1.000000   0.000000 )  
               a(3) = (   0.000000   0.000000   1.000000 )  

     reciprocal axes: (cart. coord. in units 2 pi/alat)
               b(1) = (  1.000000  0.000000  0.000000 )  
               b(2) = (  0.000000  1.000000  0.000000 )  
               b(3) = (  0.000000  0.000000  1.000000 )  


     PseudoPot. # 1 for N  read from file:
     /home/fnattino/Programs/qe-6.1/Environ/tests/../..//pseudo/N.pbe-rrkjus.UPF
     MD5 check sum: 0c3fbe5807a93f9ba59d5a7019aa238b
     Pseudo is Ultrasoft, Zval =  5.0
     Generated by new atomic code, or converted to UPF format
     Using radial grid of 1257 points,  4 beta functions with: 
                l(1) =   0
                l(2) =   0
                l(3) =   1
                l(4) =   1
     Q(r) pseudized with 0 coefficients 


     PseudoPot. # 2 for C  read from file:
     /home/fnattino/Programs/qe-6.1/Environ/tests/../..//pseudo/C.pbe-rrkjus.UPF
     MD5 check sum: 00fb224312de0c5b6853bd333518df6f
     Pseudo is Ultrasoft, Zval =  4.0
     Generated by new atomic code, or converted to UPF format
     Using radial grid of  627 points,  4 beta functions with: 
                l(1) =   0
                l(2) =   0
                l(3) =   1
                l(4) =   1
     Q(r) pseudized with 0 coefficients 


     PseudoPot. # 3 for H  read from file:
     /home/fnattino/Programs/qe-6.1/Environ/tests/../..//pseudo/H.pbe-rrkjus.UPF
     MD5 check sum: 7cc9d459525c9a0585f487a71c3c9563
     Pseudo is Ultrasoft, Zval =  1.0
     Generated by new atomic code, or converted to UPF format
     Using radial grid of 1061 points,  2 beta functions with: 
                l(1) =   0
                l(2) =   0
     Q(r) pseudized with 0 coefficients 


     atomic species   valence    mass     pseudopotential
        N              5.00    14.00000     N ( 1.00)
        C              4.00    12.00000     C ( 1.00)
        H              1.00     1.00000     H ( 1.00)

     No symmetry found



   Cartesian axes

     site n.     atom                  positions (alat units)
         1           N   tau(   1) = (  -0.1222704   0.0000000   0.0001514  )
         2           C   tau(   2) = (  -0.0616572   0.1123679   0.0001037  )
         3           C   tau(   3) = (   0.0689061   0.1142596   0.0000731  )
         4           C   tau(   4) = (   0.1346968   0.0000000   0.0000659  )
         5           C   tau(   5) = (   0.0689062  -0.1142596   0.0001326  )
         6           C   tau(   6) = (  -0.0616572  -0.1123679   0.0001773  )
         7           H   tau(   7) = (  -0.1206366   0.1969071   0.0000855  )
         8           H   tau(   8) = (   0.1179548   0.2049361   0.0000402  )
         9           H   tau(   9) = (   0.2379293  -0.0000000   0.0000010  )
        10           H   tau(  10) = (   0.1179548  -0.2049361   0.0001604  )
        11           H   tau(  11) = (  -0.1206365  -0.1969070   0.0002440  )

     number of k points=     1
                       cart. coord. in units 2pi/alat
        k(    1) = (   0.0000000   0.0000000   0.0000000), wk =   2.0000000

     Dense  grid:   350738 G-vectors     FFT dimensions: ( 120, 120, 120)

     Smooth grid:    88755 G-vectors     FFT dimensions: (  72,  72,  72)

     Estimated max dynamical RAM per process >     300.59MB

     Initial potential from superposition of free atoms
     Check: negative starting charge=   -0.000446

     starting charge   29.51871, renormalised to   30.00000

     negative rho (up, down):  4.533E-04 0.000E+00
     Starting wfc are   29 randomized atomic wfcs

     total cpu time spent up to now is        4.4 secs

     per-process dynamical memory:   873.1 Mb

     Self-consistent Calculation

     iteration #  1     ecut=    30.00 Ry     beta=0.70
     Davidson diagonalization with overlap
     ethr =  1.00E-02,  avg # of iterations =  2.0

     negative rho (up, down):  1.360E-04 0.000E+00

     add environment contribution to local potential
     polarization accuracy = 8.1E-06, # of iterations =  13

     total cpu time spent up to now is       10.0 secs

     total energy              =     -82.24149084 Ry
     Harris-Foulkes estimate   =     -83.63778213 Ry
     estimated scf accuracy    <       2.07062237 Ry
     electrostatic embedding   =       0.00000000 Ry
     electrolyte free energy   =       0.01672876 Ry
     correction to one-el term =       0.00000000 Ry

     iteration #  2     ecut=    30.00 Ry     beta=0.70
     Davidson diagonalization with overlap
     ethr =  6.90E-03,  avg # of iterations =  3.0

     negative rho (up, down):  1.552E-04 0.000E+00

     add environment contribution to local potential
     polarization accuracy = 8.5E-06, # of iterations =  15

     total cpu time spent up to now is       16.0 secs

     total energy              =     -82.44635752 Ry
     Harris-Foulkes estimate   =     -82.81938338 Ry
     estimated scf accuracy    <       0.49833725 Ry
     electrostatic embedding   =      -0.02763098 Ry
     electrolyte free energy   =       0.01089600 Ry
     correction to one-el term =       0.06907565 Ry

     iteration #  3     ecut=    30.00 Ry     beta=0.70
     Davidson diagonalization with overlap
     ethr =  1.66E-03,  avg # of iterations =  4.0

     negative rho (up, down):  1.955E-04 0.000E+00

     add environment contribution to local potential
     polarization accuracy = 5.0E-06, # of iterations =  16

     total cpu time spent up to now is       22.0 secs

     total energy              =     -82.59336237 Ry
     Harris-Foulkes estimate   =     -83.25948584 Ry
     estimated scf accuracy    <       0.20655574 Ry
     electrostatic embedding   =      -0.02435448 Ry
     electrolyte free energy   =       0.00726364 Ry
     correction to one-el term =       0.58125751 Ry

     iteration #  4     ecut=    30.00 Ry     beta=0.70
     Davidson diagonalization with overlap
     ethr =  6.89E-04,  avg # of iterations =  4.0

     negative rho (up, down):  5.025E-05 0.000E+00

     add environment contribution to local potential
     polarization accuracy = 7.2E-06, # of iterations =  16

     total cpu time spent up to now is       27.9 secs

     total energy              =     -82.64344772 Ry
     Harris-Foulkes estimate   =     -83.44812789 Ry
     estimated scf accuracy    <       0.00853898 Ry
     electrostatic embedding   =      -0.01658328 Ry
     electrolyte free energy   =       0.00510075 Ry
     correction to one-el term =       0.81194372 Ry

     iteration #  5     ecut=    30.00 Ry     beta=0.70
     Davidson diagonalization with overlap
     ethr =  2.85E-05,  avg # of iterations =  4.0

     negative rho (up, down):  5.284E-05 0.000E+00

     add environment contribution to local potential
     polarization accuracy = 7.9E-06, # of iterations =  16

     total cpu time spent up to now is       33.9 secs

     total energy              =     -82.64609537 Ry
     Harris-Foulkes estimate   =     -83.60559301 Ry
     estimated scf accuracy    <       0.00114205 Ry
     electrostatic embedding   =      -0.01813252 Ry
     electrolyte free energy   =       0.00445014 Ry
     correction to one-el term =       0.97274016 Ry

     iteration #  6     ecut=    30.00 Ry     beta=0.70
     Davidson diagonalization with overlap
     ethr =  3.81E-06,  avg # of iterations =  3.0

     negative rho (up, down):  1.400E-04 0.000E+00

     total cpu time spent up to now is       36.1 secs

     End of self-consistent calculation

          k = 0.0000 0.0000 0.0000 ( 11060 PWs)   bands (ev):

   -23.2522 -19.6365 -18.8567 -15.3851 -15.2767 -12.8029 -11.6472 -11.1979
   -10.4392  -9.7792  -9.4583  -8.6845  -7.0456  -6.6424  -5.5798

     highest occupied level (ev):    -5.5798

!    total energy              =     -82.64634462 Ry
     Harris-Foulkes estimate   =     -83.64875049 Ry
     estimated scf accuracy    <       0.00009177 Ry

     The total energy is the sum of the following terms:

     one-electron contribution =    -292.45882834 Ry
     hartree contribution      =     149.42769066 Ry
     xc contribution           =     -25.97502347 Ry
     ewald contribution        =      85.35745671 Ry
     electrostatic embedding   =      -0.01804260 Ry
     electrolyte free energy   =       0.00431998 Ry
     correction to one-el term =       1.01608245 Ry

     convergence has been achieved in   6 iterations

     Forces acting on atoms (cartesian axes, Ry/au):

     atom    1 type  1   force =    -0.04652416    0.00000130    0.00000386
     atom    2 type  2   force =    -0.00612734   -0.06238377    0.00002606
     atom    3 type  2   force =     0.02094375    0.01704426   -0.00004607
     atom    4 type  2   force =     0.00624259   -0.00000367    0.00000558
     atom    5 type  2   force =     0.02095114   -0.01703436    0.00000645
     atom    6 type  2   force =    -0.00614352    0.06238386    0.00001160
     atom    7 type  3   force =     0.00205889    0.00189746    0.00000898
     atom    8 type  3   force =     0.00530831   -0.00374551   -0.00000831
     atom    9 type  3   force =    -0.00408000    0.00000305    0.00002913
     atom   10 type  3   force =     0.00531607    0.00373424   -0.00002497
     atom   11 type  3   force =     0.00205426   -0.00189688   -0.00001231

     Total force =     0.107876     Total SCF correction =     0.015671
     SCF correction compared to forces is large: reduce conv_thr to get better values

     Writing output data file pwscf.save
 
     init_run     :      4.12s CPU      4.32s WALL (       1 calls)
     electrons    :     30.59s CPU     31.79s WALL (       1 calls)
     forces       :      0.74s CPU      0.80s WALL (       1 calls)

     Called by init_run:
     wfcinit      :      0.13s CPU      0.13s WALL (       1 calls)
     potinit      :      2.12s CPU      2.18s WALL (       1 calls)

     Called by electrons:
     c_bands      :      1.29s CPU      1.31s WALL (       6 calls)
     sum_band     :      2.32s CPU      2.51s WALL (       6 calls)
     v_of_rho     :      3.61s CPU      3.77s WALL (       7 calls)
     newd         :      1.26s CPU      1.47s WALL (       7 calls)
     mix_rho      :      0.32s CPU      0.32s WALL (       6 calls)

     Called by c_bands:
     init_us_2    :      0.05s CPU      0.05s WALL (      13 calls)
     regterg      :      1.18s CPU      1.21s WALL (       6 calls)

     Called by sum_band:
     sum_band:bec :      0.00s CPU      0.00s WALL (       6 calls)
     addusdens    :      1.55s CPU      1.73s WALL (       6 calls)

     Called by *egterg:
     h_psi        :      1.15s CPU      1.15s WALL (      27 calls)
     s_psi        :      0.02s CPU      0.03s WALL (      27 calls)
     g_psi        :      0.01s CPU      0.01s WALL (      20 calls)
     rdiaghg      :      0.01s CPU      0.01s WALL (      26 calls)

     Called by h_psi:
     h_psi:pot    :      1.14s CPU      1.14s WALL (      27 calls)
     h_psi:calbec :      0.04s CPU      0.05s WALL (      27 calls)
     vloc_psi     :      1.07s CPU      1.06s WALL (      27 calls)
     add_vuspsi   :      0.04s CPU      0.03s WALL (      27 calls)

     General routines
     calbec       :      0.06s CPU      0.06s WALL (      37 calls)
     fft          :      8.60s CPU      8.93s WALL (     405 calls)
     ffts         :      0.05s CPU      0.04s WALL (      13 calls)
     fftw         :      0.79s CPU      0.82s WALL (     364 calls)
     interpolate  :      0.38s CPU      0.42s WALL (      13 calls)
     davcio       :      0.00s CPU      0.00s WALL (       1 calls)
 
     Parallel routines
     fft_scatter  :      2.23s CPU      2.53s WALL (     782 calls)
 
     Environ routines
     calc_eelect  :      0.02s CPU      0.02s WALL (      12 calls)
     calc_velect  :     14.85s CPU     15.27s WALL (      10 calls)
     dielectric   :      0.38s CPU      0.38s WALL (       8 calls)
     electrolyte  :      0.03s CPU      0.03s WALL (       8 calls)
     calc_felect  :      0.18s CPU      0.18s WALL (       1 calls)
 
     PWSCF        :    35.60s CPU        37.08s WALL

 
   This run was terminated on:  12:20:37   1Feb2018            

=------------------------------------------------------------------------------=
   JOB DONE.
=------------------------------------------------------------------------------=

%%%% IONS %%%%%%%%%%%%%%%%%%%%%%%%%%%%%%%%%%%%%%%%%%%%%%%%%%%%%%%%%%%%%%%%%%%%%%
 number of ions             =         11
 ionic center of charge     =      0.0072664     0.0000000     0.0001166
 total ionic charge         =    -30.0000000
 ionic dipole               =      0.0000000     0.0000000     0.0000000
 ionic quadrupole (pc)      =   -131.0719095  -146.7987094    -0.0000314
 ionic quadrupole (gauss)   =   -134.8219095  -150.5487094    -3.7500314
 ion   1 type =  1 coordinates =     -2.4454071     0.0000002     0.0030272
 ion   2 type =  2 coordinates =     -1.2331440     2.2473584     0.0020749
 ion   3 type =  2 coordinates =      1.3781229     2.2851921     0.0014627
 ion   4 type =  2 coordinates =      2.6939354     0.0000002     0.0013189
 ion   5 type =  2 coordinates =      1.3781232    -2.2851919     0.0026521
 ion   6 type =  2 coordinates =     -1.2331437    -2.2473574     0.0035464
 ion   7 type =  3 coordinates =     -2.4127312     3.9381412     0.0017094
 ion   8 type =  3 coordinates =      2.3590962     4.0987221     0.0008035
 ion   9 type =  3 coordinates =      4.7585861    -0.0000002     0.0000199
 ion  10 type =  3 coordinates =      2.3590968    -4.0987217     0.0032074
 ion  11 type =  3 coordinates =     -2.4127303    -3.9381403     0.0048805

%%%% SYSTEM %%%%%%%%%%%%%%%%%%%%%%%%%%%%%%%%%%%%%%%%%%%%%%%%%%%%%%%%%%%%%%%%%%%%
 system is built from all present ionic types
 system defined dimension   =  0 
 system defined axis        =  3 
 system center              =      0.0072664     0.0000000     0.0001166 
 system width               =      0.2348011 

%%%% ELECTRONS %%%%%%%%%%%%%%%%%%%%%%%%%%%%%%%%%%%%%%%%%%%%%%%%%%%%%%%%%%%%%%%%%
 number of electrons        =         30
 total electronic charge    =     30.0000000
 number of spin components  =  1

%%%% BOUNDARY %%%%%%%%%%%%%%%%%%%%%%%%%%%%%%%%%%%%%%%%%%%%%%%%%%%%%%%%%%%%%%%%%%
 boundary mode              = electronic           
 boundary is built as a function of a smooth density
 function type              =  2 
 using the modified SCCS function with parameters 
 rhomax                     =      0.0050000 
 rhomin                     =      0.0001000 
 volume of the QM region    =   2407.1059985 
 surface of the QM region   =    815.5587051 

%%%% DIELECTRIC %%%%%%%%%%%%%%%%%%%%%%%%%%%%%%%%%%%%%%%%%%%%%%%%%%%%%%%%%%%%%%%%%
 dielectric build on homogeneous background
 environment bulk permitt.  =     20.0000000 
 dielectric flags
 need gradient              =  F 
 need factor depend. sqrt   =  T 
 total dielectric charge    =      0.0000000

%%%% BOUNDARY %%%%%%%%%%%%%%%%%%%%%%%%%%%%%%%%%%%%%%%%%%%%%%%%%%%%%%%%%%%%%%%%%%
 boundary mode              = electronic           
 boundary is built as a function of a smooth density
 function type              =  2 
 using the modified SCCS function with parameters 
 rhomax                     =      0.0007000 
 rhomin                     =      0.0000150 
 volume of the QM region    =   5932.6916041 
 surface of the QM region   =   1117.5224416 

%%%% ELECTROLYTE %%%%%%%%%%%%%%%%%%%%%%%%%%%%%%%%%%%%%%%%%%%%%%%%%%%%%%%%%%%%%%%%
 number electrol. species   =    2
 solvent temperature        =   300.0
 Debye length / sqrt(eps)   =      0.2301070
 modified Poisson-Boltzmann 
 maximum concentration      =      0.0190986
 electrolyte species    1
 bulk concentration  (a.u.) =      0.7139E-03
 bulk concentration (mol/L) =      8.0000000
 ionic charge               =   -1.00
 electrolyte species    2
 bulk concentration  (a.u.) =      0.7139E-03
 bulk concentration (mol/L) =      8.0000000
 ionic charge               =    1.00
 electrolyte flags
 linearized                 =  T
 total electrolyte charge   =      0.0000000

%%%% ELECTRONS %%%%%%%%%%%%%%%%%%%%%%%%%%%%%%%%%%%%%%%%%%%%%%%%%%%%%%%%%%%%%%%%%
 number of electrons        =         29
 total electronic charge    =     30.0000000
 number of spin components  =  1

%%%% BOUNDARY %%%%%%%%%%%%%%%%%%%%%%%%%%%%%%%%%%%%%%%%%%%%%%%%%%%%%%%%%%%%%%%%%%
 boundary mode              = electronic           
 boundary is built as a function of a smooth density
 function type              =  2 
 using the modified SCCS function with parameters 
 rhomax                     =      0.0050000 
 rhomin                     =      0.0001000 
 volume of the QM region    =   1074.1872471 
 surface of the QM region   =    527.4241024 

%%%% DIELECTRIC %%%%%%%%%%%%%%%%%%%%%%%%%%%%%%%%%%%%%%%%%%%%%%%%%%%%%%%%%%%%%%%%%
 dielectric build on homogeneous background
 environment bulk permitt.  =     20.0000000 
 dielectric flags
 need gradient              =  F 
 need factor depend. sqrt   =  T 
 total dielectric charge    =      0.0000000

%%%% BOUNDARY %%%%%%%%%%%%%%%%%%%%%%%%%%%%%%%%%%%%%%%%%%%%%%%%%%%%%%%%%%%%%%%%%%
 boundary mode              = electronic           
 boundary is built as a function of a smooth density
 function type              =  2 
 using the modified SCCS function with parameters 
 rhomax                     =      0.0007000 
 rhomin                     =      0.0000150 
 volume of the QM region    =   3892.6005199 
 surface of the QM region   =   1002.4964145 

%%%% ELECTROLYTE %%%%%%%%%%%%%%%%%%%%%%%%%%%%%%%%%%%%%%%%%%%%%%%%%%%%%%%%%%%%%%%%
 number electrol. species   =    2
 solvent temperature        =   300.0
 Debye length / sqrt(eps)   =      0.2301070
 modified Poisson-Boltzmann 
 maximum concentration      =      0.0190986
 electrolyte species    1
 bulk concentration  (a.u.) =      0.7139E-03
 bulk concentration (mol/L) =      8.0000000
 ionic charge               =   -1.00
 electrolyte species    2
 bulk concentration  (a.u.) =      0.7139E-03
 bulk concentration (mol/L) =      8.0000000
 ionic charge               =    1.00
 electrolyte flags
 linearized                 =  T
 total electrolyte charge   =      0.0000000

%%%% COMPUTE ELECTROSTATIC POTENTIAL %%%%%%%%%%%%%%%%%%%%%%%%%%%%%%%%%%%%%%%%%%%
 Iteration #          1
  pAp =    123.246403319207       rzold =    120.820643240974       alpha = 
  0.980317802281419     
 delta_qm =   0.113770E-01 delta_en =   0.223666E+03 tol =   0.100000E-04
 Iteration #          2
  pAp =    1831.84272561542       rzold =    61.1486557609658       alpha = 
  3.338095290927463E-002
 delta_qm =   0.340736E-02 delta_en =   0.200622E+02 tol =   0.100000E-04
 Iteration #          3
  pAp =    7.97731185256093       rzold =    1.18910761592943       alpha = 
  0.149061192279665     
 delta_qm =   0.103088E-02 delta_en =   0.183635E+01 tol =   0.100000E-04
 Iteration #          4
  pAp =   0.303119855167490       rzold =   6.398624574126081E-002  alpha = 
  0.211092228537471     
 delta_qm =   0.538328E-03 delta_en =   0.500769E+00 tol =   0.100000E-04
 Iteration #          5
  pAp =   0.265289215809758       rzold =   2.892236975574494E-002  alpha = 
  0.109022033434203     
 delta_qm =   0.267711E-03 delta_en =   0.123844E+00 tol =   0.100000E-04
 Iteration #          6
  pAp =   8.054197641334885E-003  rzold =   2.186468187417106E-003  alpha = 
  0.271469398291886     
 delta_qm =   0.127041E-03 delta_en =   0.278887E-01 tol =   0.100000E-04
 Iteration #          7
  pAp =   3.983142199555726E-003  rzold =   4.581273328709876E-004  alpha = 
  0.115016564792009     
 delta_qm =   0.991326E-04 delta_en =   0.169815E-01 tol =   0.100000E-04
 Iteration #          8
  pAp =   5.079632328356647E-004  rzold =   1.602114644921847E-004  alpha = 
  0.315399726074300     
 delta_qm =   0.457873E-04 delta_en =   0.362270E-02 tol =   0.100000E-04
 Iteration #          9
  pAp =   1.177132205103295E-004  rzold =   3.250225846582393E-005  alpha = 
  0.276113917577948     
 delta_qm =   0.256109E-04 delta_en =   0.113343E-02 tol =   0.100000E-04
 Iteration #         10
  pAp =   7.819426413104694E-005  rzold =   1.654154002012359E-005  alpha = 
  0.211544161249492     
 delta_qm =   0.122148E-04 delta_en =   0.257819E-03 tol =   0.100000E-04
 Iteration #         11
  pAp =   5.010101615901103E-005  rzold =   6.069661973186528E-006  alpha = 
  0.121148480380569     
 delta_qm =   0.814431E-05 delta_en =   0.114618E-03 tol =   0.100000E-04
 Iteration #         12
  pAp =   2.989671330605927E-006  rzold =   1.106557254370410E-006  alpha = 
  0.370126723644281     
 delta_qm =   0.431517E-05 delta_en =   0.321765E-04 tol =   0.100000E-04
 Iteration #         13
  pAp =   3.068524834220577E-007  rzold =   1.901531463778053E-007  alpha = 
  0.619689123116077     
 delta_qm =   0.217109E-05 delta_en =   0.814519E-05 tol =   0.100000E-04
 Charges are converged, EXIT

%%%% ELECTRONS %%%%%%%%%%%%%%%%%%%%%%%%%%%%%%%%%%%%%%%%%%%%%%%%%%%%%%%%%%%%%%%%%
 number of electrons        =         30
 total electronic charge    =     30.0000000
 number of spin components  =  1

%%%% BOUNDARY %%%%%%%%%%%%%%%%%%%%%%%%%%%%%%%%%%%%%%%%%%%%%%%%%%%%%%%%%%%%%%%%%%
 boundary mode              = electronic           
 boundary is built as a function of a smooth density
 function type              =  2 
 using the modified SCCS function with parameters 
 rhomax                     =      0.0050000 
 rhomin                     =      0.0001000 
 volume of the QM region    =   1022.9533469 
 surface of the QM region   =    515.5764589 

%%%% DIELECTRIC %%%%%%%%%%%%%%%%%%%%%%%%%%%%%%%%%%%%%%%%%%%%%%%%%%%%%%%%%%%%%%%%%
 dielectric build on homogeneous background
 environment bulk permitt.  =     20.0000000 
 dielectric flags
 need gradient              =  F 
 need factor depend. sqrt   =  T 
 total dielectric charge    =      0.0040872

%%%% BOUNDARY %%%%%%%%%%%%%%%%%%%%%%%%%%%%%%%%%%%%%%%%%%%%%%%%%%%%%%%%%%%%%%%%%%
 boundary mode              = electronic           
 boundary is built as a function of a smooth density
 function type              =  2 
 using the modified SCCS function with parameters 
 rhomax                     =      0.0007000 
 rhomin                     =      0.0000150 
 volume of the QM region    =   2616.9911559 
 surface of the QM region   =    874.0731968 

%%%% ELECTROLYTE %%%%%%%%%%%%%%%%%%%%%%%%%%%%%%%%%%%%%%%%%%%%%%%%%%%%%%%%%%%%%%%%
 number electrol. species   =    2
 solvent temperature        =   300.0
 Debye length / sqrt(eps)   =      0.2301070
 modified Poisson-Boltzmann 
 maximum concentration      =      0.0190986
 electrolyte species    1
 bulk concentration  (a.u.) =      0.7139E-03
 bulk concentration (mol/L) =      8.0000000
 ionic charge               =   -1.00
 electrolyte species    2
 bulk concentration  (a.u.) =      0.7139E-03
 bulk concentration (mol/L) =      8.0000000
 ionic charge               =    1.00
 electrolyte flags
 linearized                 =  T
 total electrolyte charge   =     -0.0045828

%%%% COMPUTE ELECTROSTATIC POTENTIAL %%%%%%%%%%%%%%%%%%%%%%%%%%%%%%%%%%%%%%%%%%%
 Warning: bad guess with residual norm =   0.199880E+03, reset to no guess
 Iteration #          1
  pAp =    124.050651429358       rzold =    122.298899937403       alpha = 
  0.985878740081009     
 delta_qm =   0.106590E-01 delta_en =   0.196327E+03 tol =   0.100000E-04
 Iteration #          2
  pAp =    2136.10418313346       rzold =    55.3923229294841       alpha = 
  2.593147064963322E-002
 delta_qm =   0.350165E-02 delta_en =   0.211880E+02 tol =   0.100000E-04
 Iteration #          3
  pAp =    15.3145476899905       rzold =    1.48703533845494       alpha = 
  9.709952710042155E-002
 delta_qm =   0.185057E-02 delta_en =   0.591773E+01 tol =   0.100000E-04
 Iteration #          4
  pAp =    2.94952125170825       rzold =   0.342655179851565       alpha = 
  0.116173151711693     
 delta_qm =   0.795417E-03 delta_en =   0.109328E+01 tol =   0.100000E-04
 Iteration #          5
  pAp =   0.247939109064747       rzold =   4.227684157770746E-002  alpha = 
  0.170513001104103     
 delta_qm =   0.306787E-03 delta_en =   0.162637E+00 tol =   0.100000E-04
 Iteration #          6
  pAp =   1.579336076765257E-002  rzold =   3.466578074852357E-003  alpha = 
  0.219495908809510     
 delta_qm =   0.159156E-03 delta_en =   0.437714E-01 tol =   0.100000E-04
 Iteration #          7
  pAp =   3.960839299375242E-003  rzold =   7.288116153976206E-004  alpha = 
  0.184004338553341     
 delta_qm =   0.105264E-03 delta_en =   0.191472E-01 tol =   0.100000E-04
 Iteration #          8
  pAp =   8.511497835945204E-004  rzold =   1.643444450519750E-004  alpha = 
  0.193085222154350     
 delta_qm =   0.753081E-04 delta_en =   0.980002E-02 tol =   0.100000E-04
 Iteration #          9
  pAp =   1.156244127234926E-003  rzold =   1.649336521147219E-004  alpha = 
  0.142646045268268     
 delta_qm =   0.414028E-04 delta_en =   0.296213E-02 tol =   0.100000E-04
 Iteration #         10
  pAp =   8.038465040637577E-005  rzold =   2.480378956477418E-005  alpha = 
  0.308563754888295     
 delta_qm =   0.183242E-04 delta_en =   0.580222E-03 tol =   0.100000E-04
 Iteration #         11
  pAp =   9.826196822165513E-005  rzold =   1.084825584415967E-005  alpha = 
  0.110401369324179     
 delta_qm =   0.131602E-04 delta_en =   0.299274E-03 tol =   0.100000E-04
 Iteration #         12
  pAp =   2.254025161361416E-005  rzold =   3.613793937836869E-006  alpha = 
  0.160326246564797     
 delta_qm =   0.946846E-05 delta_en =   0.154918E-03 tol =   0.100000E-04
 Iteration #         13
  pAp =   6.039682932979565E-006  rzold =   1.388845507621095E-006  alpha = 
  0.229953380505677     
 delta_qm =   0.564037E-05 delta_en =   0.549742E-04 tol =   0.100000E-04
 Iteration #         14
  pAp =   4.607354587983240E-007  rzold =   2.230765373066020E-007  alpha = 
  0.484174883974468     
 delta_qm =   0.305350E-05 delta_en =   0.161116E-04 tol =   0.100000E-04
 Iteration #         15
  pAp =   3.023652180154457E-007  rzold =   8.528913404824810E-008  alpha = 
  0.282073231200459     
 delta_qm =   0.222019E-05 delta_en =   0.851770E-05 tol =   0.100000E-04
 Charges are converged, EXIT

%%%% ELECTRONS %%%%%%%%%%%%%%%%%%%%%%%%%%%%%%%%%%%%%%%%%%%%%%%%%%%%%%%%%%%%%%%%%
 number of electrons        =         29
 total electronic charge    =     30.0000000
 number of spin components  =  1

%%%% BOUNDARY %%%%%%%%%%%%%%%%%%%%%%%%%%%%%%%%%%%%%%%%%%%%%%%%%%%%%%%%%%%%%%%%%%
 boundary mode              = electronic           
 boundary is built as a function of a smooth density
 function type              =  2 
 using the modified SCCS function with parameters 
 rhomax                     =      0.0050000 
 rhomin                     =      0.0001000 
 volume of the QM region    =    990.2731472 
 surface of the QM region   =    507.9712527 

%%%% DIELECTRIC %%%%%%%%%%%%%%%%%%%%%%%%%%%%%%%%%%%%%%%%%%%%%%%%%%%%%%%%%%%%%%%%%
 dielectric build on homogeneous background
 environment bulk permitt.  =     20.0000000 
 dielectric flags
 need gradient              =  F 
 need factor depend. sqrt   =  T 
 total dielectric charge    =      0.0056672

%%%% BOUNDARY %%%%%%%%%%%%%%%%%%%%%%%%%%%%%%%%%%%%%%%%%%%%%%%%%%%%%%%%%%%%%%%%%%
 boundary mode              = electronic           
 boundary is built as a function of a smooth density
 function type              =  2 
 using the modified SCCS function with parameters 
 rhomax                     =      0.0007000 
 rhomin                     =      0.0000150 
 volume of the QM region    =   1838.2902282 
 surface of the QM region   =    752.9055606 

%%%% ELECTROLYTE %%%%%%%%%%%%%%%%%%%%%%%%%%%%%%%%%%%%%%%%%%%%%%%%%%%%%%%%%%%%%%%%
 number electrol. species   =    2
 solvent temperature        =   300.0
 Debye length / sqrt(eps)   =      0.2301070
 modified Poisson-Boltzmann 
 maximum concentration      =      0.0190986
 electrolyte species    1
 bulk concentration  (a.u.) =      0.7139E-03
 bulk concentration (mol/L) =      8.0000000
 ionic charge               =   -1.00
 electrolyte species    2
 bulk concentration  (a.u.) =      0.7139E-03
 bulk concentration (mol/L) =      8.0000000
 ionic charge               =    1.00
 electrolyte flags
 linearized                 =  T
 total electrolyte charge   =     -0.0063207

%%%% COMPUTE ELECTROSTATIC POTENTIAL %%%%%%%%%%%%%%%%%%%%%%%%%%%%%%%%%%%%%%%%%%%
 Warning: bad guess with residual norm =   0.171247E+03, reset to no guess
 Iteration #          1
  pAp =    124.044935194946       rzold =    122.819928954006       alpha = 
  0.990124496102839     
 delta_qm =   0.988631E-02 delta_en =   0.168893E+03 tol =   0.100000E-04
 Iteration #          2
  pAp =    2086.10050448205       rzold =    46.2898039804543       alpha = 
  2.218963270513541E-002
 delta_qm =   0.304117E-02 delta_en =   0.159818E+02 tol =   0.100000E-04
 Iteration #          3
  pAp =    10.4193170864369       rzold =   0.974305372328072       alpha = 
  9.350952315256318E-002
 delta_qm =   0.157670E-02 delta_en =   0.429580E+01 tol =   0.100000E-04
 Iteration #          4
  pAp =    2.23174408108172       rzold =   0.236921483776862       alpha = 
  0.106159790356440     
 delta_qm =   0.792880E-03 delta_en =   0.108632E+01 tol =   0.100000E-04
 Iteration #          5
  pAp =   0.258648192354468       rzold =   4.121942185468192E-002  alpha = 
  0.159364817049222     
 delta_qm =   0.326681E-03 delta_en =   0.184413E+00 tol =   0.100000E-04
 Iteration #          6
  pAp =   2.200794698162835E-002  rzold =   4.264848380740483E-003  alpha = 
  0.193786743684028     
 delta_qm =   0.163431E-03 delta_en =   0.461542E-01 tol =   0.100000E-04
 Iteration #          7
  pAp =   3.963514395970461E-003  rzold =   7.335607035328088E-004  alpha = 
  0.185078349728864     
 delta_qm =   0.107767E-03 delta_en =   0.200686E-01 tol =   0.100000E-04
 Iteration #          8
  pAp =   3.858223470896689E-004  rzold =   1.280131968042728E-004  alpha = 
  0.331793110922425     
 delta_qm =   0.572995E-04 delta_en =   0.567342E-02 tol =   0.100000E-04
 Iteration #          9
  pAp =   1.049803114433955E-003  rzold =   9.390401705403036E-005  alpha = 
  8.944916981377275E-002
 delta_qm =   0.414568E-04 delta_en =   0.296985E-02 tol =   0.100000E-04
 Iteration #         10
  pAp =   1.088829450066054E-004  rzold =   2.580022409340551E-005  alpha = 
  0.236953768028963     
 delta_qm =   0.214116E-04 delta_en =   0.792215E-03 tol =   0.100000E-04
 Iteration #         11
  pAp =   7.064436750632910E-005  rzold =   1.168784120578351E-005  alpha = 
  0.165446186558842     
 delta_qm =   0.126304E-04 delta_en =   0.275661E-03 tol =   0.100000E-04
 Iteration #         12
  pAp =   6.555886495477095E-006  rzold =   1.826387052084143E-006  alpha = 
  0.278587350977502     
 delta_qm =   0.753436E-05 delta_en =   0.980926E-04 tol =   0.100000E-04
 Iteration #         13
  pAp =   1.438780172847112E-005  rzold =   1.220472879247829E-006  alpha = 
  8.482691812695138E-002
 delta_qm =   0.604548E-05 delta_en =   0.631547E-04 tol =   0.100000E-04
 Iteration #         14
  pAp =   8.105900831289735E-007  rzold =   2.694339097335108E-007  alpha = 
  0.332392309431500     
 delta_qm =   0.399783E-05 delta_en =   0.276180E-04 tol =   0.100000E-04
 Iteration #         15
  pAp =   5.565635570038263E-006  rzold =   2.184027186560678E-007  alpha = 
  3.924128985947356E-002
 delta_qm =   0.347592E-05 delta_en =   0.208777E-04 tol =   0.100000E-04
 Iteration #         16
  pAp =   5.901240102967251E-007  rzold =   1.548918806049952E-007  alpha = 
  0.262473442704208     
 delta_qm =   0.169972E-05 delta_en =   0.499226E-05 tol =   0.100000E-04
 Charges are converged, EXIT

%%%% ELECTRONS %%%%%%%%%%%%%%%%%%%%%%%%%%%%%%%%%%%%%%%%%%%%%%%%%%%%%%%%%%%%%%%%%
 number of electrons        =         30
 total electronic charge    =     30.0000000
 number of spin components  =  1

%%%% BOUNDARY %%%%%%%%%%%%%%%%%%%%%%%%%%%%%%%%%%%%%%%%%%%%%%%%%%%%%%%%%%%%%%%%%%
 boundary mode              = electronic           
 boundary is built as a function of a smooth density
 function type              =  2 
 using the modified SCCS function with parameters 
 rhomax                     =      0.0050000 
 rhomin                     =      0.0001000 
 volume of the QM region    =    970.5750974 
 surface of the QM region   =    503.1718071 

%%%% DIELECTRIC %%%%%%%%%%%%%%%%%%%%%%%%%%%%%%%%%%%%%%%%%%%%%%%%%%%%%%%%%%%%%%%%%
 dielectric build on homogeneous background
 environment bulk permitt.  =     20.0000000 
 dielectric flags
 need gradient              =  F 
 need factor depend. sqrt   =  T 
 total dielectric charge    =     -0.0000714

%%%% BOUNDARY %%%%%%%%%%%%%%%%%%%%%%%%%%%%%%%%%%%%%%%%%%%%%%%%%%%%%%%%%%%%%%%%%%
 boundary mode              = electronic           
 boundary is built as a function of a smooth density
 function type              =  2 
 using the modified SCCS function with parameters 
 rhomax                     =      0.0007000 
 rhomin                     =      0.0000150 
 volume of the QM region    =   1613.5557829 
 surface of the QM region   =    689.2610803 

%%%% ELECTROLYTE %%%%%%%%%%%%%%%%%%%%%%%%%%%%%%%%%%%%%%%%%%%%%%%%%%%%%%%%%%%%%%%%
 number electrol. species   =    2
 solvent temperature        =   300.0
 Debye length / sqrt(eps)   =      0.2301070
 modified Poisson-Boltzmann 
 maximum concentration      =      0.0190986
 electrolyte species    1
 bulk concentration  (a.u.) =      0.7139E-03
 bulk concentration (mol/L) =      8.0000000
 ionic charge               =   -1.00
 electrolyte species    2
 bulk concentration  (a.u.) =      0.7139E-03
 bulk concentration (mol/L) =      8.0000000
 ionic charge               =    1.00
 electrolyte flags
 linearized                 =  T
 total electrolyte charge   =      0.0000120

%%%% COMPUTE ELECTROSTATIC POTENTIAL %%%%%%%%%%%%%%%%%%%%%%%%%%%%%%%%%%%%%%%%%%%
 Warning: bad guess with residual norm =   0.150053E+03, reset to no guess
 Iteration #          1
  pAp =    123.587302315001       rzold =    122.592531869161       alpha = 
  0.991950868517994     
 delta_qm =   0.926463E-02 delta_en =   0.148320E+03 tol =   0.100000E-04
 Iteration #          2
  pAp =    1746.27083659405       rzold =    37.3804706515635       alpha = 
  2.140588382296464E-002
 delta_qm =   0.323755E-02 delta_en =   0.181124E+02 tol =   0.100000E-04
 Iteration #          3
  pAp =    12.9836363142236       rzold =    1.09780111378352       alpha = 
  8.455266977717771E-002
 delta_qm =   0.169278E-02 delta_en =   0.495160E+01 tol =   0.100000E-04
 Iteration #          4
  pAp =    2.26690846256556       rzold =   0.254597831056820       alpha = 
  0.112310591830727     
 delta_qm =   0.843161E-03 delta_en =   0.122847E+01 tol =   0.100000E-04
 Iteration #          5
  pAp =   0.308445468306472       rzold =   4.708427961828119E-002  alpha = 
  0.152650255738230     
 delta_qm =   0.346154E-03 delta_en =   0.207054E+00 tol =   0.100000E-04
 Iteration #          6
  pAp =   2.285353157294931E-002  rzold =   4.539172706866539E-003  alpha = 
  0.198620186660313     
 delta_qm =   0.164506E-03 delta_en =   0.467633E-01 tol =   0.100000E-04
 Iteration #          7
  pAp =   3.705422156736719E-003  rzold =   6.819146163376121E-004  alpha = 
  0.184031559021647     
 delta_qm =   0.114575E-03 delta_en =   0.226841E-01 tol =   0.100000E-04
 Iteration #          8
  pAp =   4.473891674372354E-004  rzold =   1.457260117824602E-004  alpha = 
  0.325725391647763     
 delta_qm =   0.575409E-04 delta_en =   0.572134E-02 tol =   0.100000E-04
 Iteration #          9
  pAp =   8.674185653595745E-004  rzold =   7.865104605310228E-005  alpha = 
  9.067254171634977E-002
 delta_qm =   0.435818E-04 delta_en =   0.328212E-02 tol =   0.100000E-04
 Iteration #         10
  pAp =   1.194121163879454E-004  rzold =   2.924097217707049E-005  alpha = 
  0.244874415273510     
 delta_qm =   0.209744E-04 delta_en =   0.760191E-03 tol =   0.100000E-04
 Iteration #         11
  pAp =   6.470765120234533E-005  rzold =   9.962430515738160E-006  alpha = 
  0.153960626457989     
 delta_qm =   0.140554E-04 delta_en =   0.341372E-03 tol =   0.100000E-04
 Iteration #         12
  pAp =   6.928710792706135E-006  rzold =   2.095957930501570E-006  alpha = 
  0.302503307355243     
 delta_qm =   0.750758E-05 delta_en =   0.973967E-04 tol =   0.100000E-04
 Iteration #         13
  pAp =   1.153530256678735E-006  rzold =   3.543593231279089E-007  alpha = 
  0.307195516611924     
 delta_qm =   0.536293E-05 delta_en =   0.496989E-04 tol =   0.100000E-04
 Iteration #         14
  pAp =   6.517609443566149E-006  rzold =   4.190222980192031E-007  alpha = 
  6.429079582742418E-002
 delta_qm =   0.434398E-05 delta_en =   0.326076E-04 tol =   0.100000E-04
 Iteration #         15
  pAp =   7.837739759366982E-006  rzold =   3.578411013081567E-007  alpha = 
  4.565616010412904E-002
 delta_qm =   0.404412E-05 delta_en =   0.282612E-04 tol =   0.100000E-04
 Iteration #         16
  pAp =   7.019398739119796E-007  rzold =   1.690585911887448E-007  alpha = 
  0.240844832259727     
 delta_qm =   0.204477E-05 delta_en =   0.722493E-05 tol =   0.100000E-04
 Charges are converged, EXIT

%%%% ELECTRONS %%%%%%%%%%%%%%%%%%%%%%%%%%%%%%%%%%%%%%%%%%%%%%%%%%%%%%%%%%%%%%%%%
 number of electrons        =         29
 total electronic charge    =     30.0000000
 number of spin components  =  1

%%%% BOUNDARY %%%%%%%%%%%%%%%%%%%%%%%%%%%%%%%%%%%%%%%%%%%%%%%%%%%%%%%%%%%%%%%%%%
 boundary mode              = electronic           
 boundary is built as a function of a smooth density
 function type              =  2 
 using the modified SCCS function with parameters 
 rhomax                     =      0.0050000 
 rhomin                     =      0.0001000 
 volume of the QM region    =    968.2629529 
 surface of the QM region   =    502.9743612 

%%%% DIELECTRIC %%%%%%%%%%%%%%%%%%%%%%%%%%%%%%%%%%%%%%%%%%%%%%%%%%%%%%%%%%%%%%%%%
 dielectric build on homogeneous background
 environment bulk permitt.  =     20.0000000 
 dielectric flags
 need gradient              =  F 
 need factor depend. sqrt   =  T 
 total dielectric charge    =      0.0000669

%%%% BOUNDARY %%%%%%%%%%%%%%%%%%%%%%%%%%%%%%%%%%%%%%%%%%%%%%%%%%%%%%%%%%%%%%%%%%
 boundary mode              = electronic           
 boundary is built as a function of a smooth density
 function type              =  2 
 using the modified SCCS function with parameters 
 rhomax                     =      0.0007000 
 rhomin                     =      0.0000150 
 volume of the QM region    =   1567.8903377 
 surface of the QM region   =    678.0943110 

%%%% ELECTROLYTE %%%%%%%%%%%%%%%%%%%%%%%%%%%%%%%%%%%%%%%%%%%%%%%%%%%%%%%%%%%%%%%%
 number electrol. species   =    2
 solvent temperature        =   300.0
 Debye length / sqrt(eps)   =      0.2301070
 modified Poisson-Boltzmann 
 maximum concentration      =      0.0190986
 electrolyte species    1
 bulk concentration  (a.u.) =      0.7139E-03
 bulk concentration (mol/L) =      8.0000000
 ionic charge               =   -1.00
 electrolyte species    2
 bulk concentration  (a.u.) =      0.7139E-03
 bulk concentration (mol/L) =      8.0000000
 ionic charge               =    1.00
 electrolyte flags
 linearized                 =  T
 total electrolyte charge   =     -0.0001455

%%%% COMPUTE ELECTROSTATIC POTENTIAL %%%%%%%%%%%%%%%%%%%%%%%%%%%%%%%%%%%%%%%%%%%
 Warning: bad guess with residual norm =   0.141943E+03, reset to no guess
 Iteration #          1
  pAp =    123.636945705516       rzold =    122.715970514745       alpha = 
  0.992550971026374     
 delta_qm =   0.901430E-02 delta_en =   0.140413E+03 tol =   0.100000E-04
 Iteration #          2
  pAp =    1614.42148635224       rzold =    34.3446544840963       alpha = 
  2.127366042538100E-002
 delta_qm =   0.326477E-02 delta_en =   0.184183E+02 tol =   0.100000E-04
 Iteration #          3
  pAp =    13.7301923391885       rzold =    1.12302784351656       alpha = 
  8.179257914044130E-002
 delta_qm =   0.170544E-02 delta_en =   0.502591E+01 tol =   0.100000E-04
 Iteration #          4
  pAp =    2.21183949842186       rzold =   0.253223232668546       alpha = 
  0.114485356125171     
 delta_qm =   0.838946E-03 delta_en =   0.121622E+01 tol =   0.100000E-04
 Iteration #          5
  pAp =   0.307138396779692       rzold =   4.645709241630881E-002  alpha = 
  0.151257846310997     
 delta_qm =   0.347308E-03 delta_en =   0.208437E+00 tol =   0.100000E-04
 Iteration #          6
  pAp =   2.209765714680908E-002  rzold =   4.450731972920665E-003  alpha = 
  0.201411938983014     
 delta_qm =   0.163227E-03 delta_en =   0.460389E-01 tol =   0.100000E-04
 Iteration #          7
  pAp =   3.529699352663775E-003  rzold =   6.507046641308530E-004  alpha = 
  0.184351299959806     
 delta_qm =   0.115343E-03 delta_en =   0.229894E-01 tol =   0.100000E-04
 Iteration #          8
  pAp =   4.790722837231280E-004  rzold =   1.494281727804385E-004  alpha = 
  0.311911537898106     
 delta_qm =   0.589230E-04 delta_en =   0.599949E-02 tol =   0.100000E-04
 Iteration #          9
  pAp =   1.003451030847633E-003  rzold =   8.723862910528937E-005  alpha = 
  8.693860131031737E-002
 delta_qm =   0.443576E-04 delta_en =   0.340001E-02 tol =   0.100000E-04
 Iteration #         10
  pAp =   1.069588696011636E-004  rzold =   2.815766161944810E-005  alpha = 
  0.263256911039211     
 delta_qm =   0.208586E-04 delta_en =   0.751818E-03 tol =   0.100000E-04
 Iteration #         11
  pAp =   5.976049978019873E-005  rzold =   9.246425596578146E-006  alpha = 
  0.154724703283721     
 delta_qm =   0.142788E-04 delta_en =   0.352314E-03 tol =   0.100000E-04
 Iteration #         12
  pAp =   7.284125499436428E-006  rzold =   2.144598722850444E-006  alpha = 
  0.294420891432523     
 delta_qm =   0.770249E-05 delta_en =   0.102519E-03 tol =   0.100000E-04
 Iteration #         13
  pAp =   1.226392883931963E-006  rzold =   3.589410468680529E-007  alpha = 
  0.292680307893866     
 delta_qm =   0.547454E-05 delta_en =   0.517892E-04 tol =   0.100000E-04
 Iteration #         14
  pAp =   4.241323063330776E-006  rzold =   4.036479417808157E-007  alpha = 
  9.517028902387473E-002
 delta_qm =   0.449563E-05 delta_en =   0.349241E-04 tol =   0.100000E-04
 Iteration #         15
  pAp =   1.479884562580416E-006  rzold =   1.544774131065650E-007  alpha = 
  0.104384772307651     
 delta_qm =   0.346839E-05 delta_en =   0.207874E-04 tol =   0.100000E-04
 Iteration #         16
  pAp =   6.153379426720498E-006  rzold =   4.447983253453396E-007  alpha = 
  7.228521020723065E-002
 delta_qm =   0.213320E-05 delta_en =   0.786332E-05 tol =   0.100000E-04
 Charges are converged, EXIT

%%%% ELECTRONS %%%%%%%%%%%%%%%%%%%%%%%%%%%%%%%%%%%%%%%%%%%%%%%%%%%%%%%%%%%%%%%%%
 number of electrons        =         29
 total electronic charge    =     30.0000000
 number of spin components  =  1

%%%% BOUNDARY %%%%%%%%%%%%%%%%%%%%%%%%%%%%%%%%%%%%%%%%%%%%%%%%%%%%%%%%%%%%%%%%%%
 boundary mode              = electronic           
 boundary is built as a function of a smooth density
 function type              =  2 
 using the modified SCCS function with parameters 
 rhomax                     =      0.0050000 
 rhomin                     =      0.0001000 
 volume of the QM region    =    968.2629529 
 surface of the QM region   =    502.9743612 

%%%% DIELECTRIC %%%%%%%%%%%%%%%%%%%%%%%%%%%%%%%%%%%%%%%%%%%%%%%%%%%%%%%%%%%%%%%%%
 dielectric build on homogeneous background
 environment bulk permitt.  =     20.0000000 
 dielectric flags
 need gradient              =  F 
 need factor depend. sqrt   =  T 
 total dielectric charge    =      0.0001677

%%%% BOUNDARY %%%%%%%%%%%%%%%%%%%%%%%%%%%%%%%%%%%%%%%%%%%%%%%%%%%%%%%%%%%%%%%%%%
 boundary mode              = electronic           
 boundary is built as a function of a smooth density
 function type              =  2 
 using the modified SCCS function with parameters 
 rhomax                     =      0.0007000 
 rhomin                     =      0.0000150 
 volume of the QM region    =   1567.8903377 
 surface of the QM region   =    678.0943110 

%%%% ELECTROLYTE %%%%%%%%%%%%%%%%%%%%%%%%%%%%%%%%%%%%%%%%%%%%%%%%%%%%%%%%%%%%%%%%
 number electrol. species   =    2
 solvent temperature        =   300.0
 Debye length / sqrt(eps)   =      0.2301070
 modified Poisson-Boltzmann 
 maximum concentration      =      0.0190986
 electrolyte species    1
 bulk concentration  (a.u.) =      0.7139E-03
 bulk concentration (mol/L) =      8.0000000
 ionic charge               =   -1.00
 electrolyte species    2
 bulk concentration  (a.u.) =      0.7139E-03
 bulk concentration (mol/L) =      8.0000000
 ionic charge               =    1.00
 electrolyte flags
 linearized                 =  T
 total electrolyte charge   =     -0.0002620
