
     Program PWSCF v.6.1 (svn rev. 13369) starts on  1Jan2018 at 14:47:24 

     This program is part of the open-source Quantum ESPRESSO suite
     for quantum simulation of materials; please cite
         "P. Giannozzi et al., J. Phys.:Condens. Matter 21 395502 (2009);
          URL http://www.quantum-espresso.org", 
     in publications or presentations arising from this work. More details at
     http://www.quantum-espresso.org/quote

     Serial version
     Reading input from pw.in

     Current dimensions of program PWSCF are:
     Max number of different atomic species (ntypx) = 10
     Max number of k-points (npk) =  40000
     Max angular momentum in pseudopotentials (lmaxx) =  3
               file N.pbe-rrkjus.UPF: wavefunction(s)  2S renormalized
               file C.pbe-rrkjus.UPF: wavefunction(s)  2S 2P renormalized
               file H.pbe-rrkjus.UPF: wavefunction(s)  1S renormalized

     gamma-point specific algorithms are used

     G-vector sticks info
     --------------------
     sticks:   dense  smooth     PW     G-vecs:    dense   smooth      PW
     Sum        9549    3809    949               701475   177509   22119



     bravais-lattice index     =            1
     lattice parameter (alat)  =      20.0000  a.u.
     unit-cell volume          =    8000.0000 (a.u.)^3
     number of atoms/cell      =           11
     number of atomic types    =            3
     number of electrons       =        30.00
     number of Kohn-Sham states=           15
     kinetic-energy cutoff     =      30.0000  Ry
     charge density cutoff     =     300.0000  Ry
     convergence threshold     =      5.0E-04
     mixing beta               =       0.7000
     number of iterations used =            8  plain     mixing
     Exchange-correlation      =  SLA  PW   PBE  PBE ( 1  4  3  4 0 0)


     Environ Module
     ==============

     Plese cite
         O. Andreussi, I. Dabo and N. Marzari, J. Chem. Phys. 136, 064102 (2012)         
     in publications or presentations arising from this work.

     compensation onset threshold      =               0.1000E+03 
     static permittivity               =                    20.00 
     epsilon calculation mode          =               electronic 

     Electrostatic Setup
     -------------------
     electrostatic problem to solve    = linmodpb                 
     numerical solver adopted          = cg                       
     type of auxiliary density adopted = none                     
     type of core tool for poisson     = fft                      
     type of core tool for s(r) deriv  = analytic                 



     celldm(1)=  20.000000  celldm(2)=   0.000000  celldm(3)=   0.000000
     celldm(4)=   0.000000  celldm(5)=   0.000000  celldm(6)=   0.000000

     crystal axes: (cart. coord. in units of alat)
               a(1) = (   1.000000   0.000000   0.000000 )  
               a(2) = (   0.000000   1.000000   0.000000 )  
               a(3) = (   0.000000   0.000000   1.000000 )  

     reciprocal axes: (cart. coord. in units 2 pi/alat)
               b(1) = (  1.000000  0.000000  0.000000 )  
               b(2) = (  0.000000  1.000000  0.000000 )  
               b(3) = (  0.000000  0.000000  1.000000 )  


     PseudoPot. # 1 for N  read from file:
     /Users/francesco/Programs/qe-6.1/Environ/tests/../..//pseudo/N.pbe-rrkjus.UPF
     MD5 check sum: 0c3fbe5807a93f9ba59d5a7019aa238b
     Pseudo is Ultrasoft, Zval =  5.0
     Generated by new atomic code, or converted to UPF format
     Using radial grid of 1257 points,  4 beta functions with: 
                l(1) =   0
                l(2) =   0
                l(3) =   1
                l(4) =   1
     Q(r) pseudized with 0 coefficients 


     PseudoPot. # 2 for C  read from file:
     /Users/francesco/Programs/qe-6.1/Environ/tests/../..//pseudo/C.pbe-rrkjus.UPF
     MD5 check sum: 00fb224312de0c5b6853bd333518df6f
     Pseudo is Ultrasoft, Zval =  4.0
     Generated by new atomic code, or converted to UPF format
     Using radial grid of  627 points,  4 beta functions with: 
                l(1) =   0
                l(2) =   0
                l(3) =   1
                l(4) =   1
     Q(r) pseudized with 0 coefficients 


     PseudoPot. # 3 for H  read from file:
     /Users/francesco/Programs/qe-6.1/Environ/tests/../..//pseudo/H.pbe-rrkjus.UPF
     MD5 check sum: 7cc9d459525c9a0585f487a71c3c9563
     Pseudo is Ultrasoft, Zval =  1.0
     Generated by new atomic code, or converted to UPF format
     Using radial grid of 1061 points,  2 beta functions with: 
                l(1) =   0
                l(2) =   0
     Q(r) pseudized with 0 coefficients 


     atomic species   valence    mass     pseudopotential
        N              5.00    14.00000     N ( 1.00)
        C              4.00    12.00000     C ( 1.00)
        H              1.00     1.00000     H ( 1.00)

     No symmetry found



   Cartesian axes

     site n.     atom                  positions (alat units)
         1           N   tau(   1) = (  -0.1222704   0.0000000   0.0001514  )
         2           C   tau(   2) = (  -0.0616572   0.1123679   0.0001037  )
         3           C   tau(   3) = (   0.0689061   0.1142596   0.0000731  )
         4           C   tau(   4) = (   0.1346968   0.0000000   0.0000659  )
         5           C   tau(   5) = (   0.0689062  -0.1142596   0.0001326  )
         6           C   tau(   6) = (  -0.0616572  -0.1123679   0.0001773  )
         7           H   tau(   7) = (  -0.1206366   0.1969071   0.0000855  )
         8           H   tau(   8) = (   0.1179548   0.2049361   0.0000402  )
         9           H   tau(   9) = (   0.2379293  -0.0000000   0.0000010  )
        10           H   tau(  10) = (   0.1179548  -0.2049361   0.0001604  )
        11           H   tau(  11) = (  -0.1206365  -0.1969070   0.0002440  )

     number of k points=     1
                       cart. coord. in units 2pi/alat
        k(    1) = (   0.0000000   0.0000000   0.0000000), wk =   2.0000000

     Dense  grid:   350738 G-vectors     FFT dimensions: ( 120, 120, 120)

     Smooth grid:    88755 G-vectors     FFT dimensions: (  72,  72,  72)

     Estimated max dynamical RAM per process >     300.59MB

     Initial potential from superposition of free atoms
     Check: negative starting charge=   -0.000446

     starting charge   29.51871, renormalised to   30.00000

     negative rho (up, down):  4.533E-04 0.000E+00
     Starting wfc are   29 randomized atomic wfcs

     total cpu time spent up to now is        5.2 secs

     Self-consistent Calculation

     iteration #  1     ecut=    30.00 Ry     beta=0.70
     Davidson diagonalization with overlap
     ethr =  1.00E-02,  avg # of iterations =  2.0

     negative rho (up, down):  1.360E-04 0.000E+00

     add environment contribution to local potential
     polarization accuracy = 7.4E-06, # of iterations =  13

     total cpu time spent up to now is       12.0 secs

     total energy              =     -82.24154031 Ry
     Harris-Foulkes estimate   =     -83.63778213 Ry
     estimated scf accuracy    <       2.07062237 Ry
     electrostatic embedding   =       0.00000000 Ry
     electrolyte free energy   =       0.01667930 Ry
     correction to one-el term =       0.00000000 Ry

     iteration #  2     ecut=    30.00 Ry     beta=0.70
     Davidson diagonalization with overlap
     ethr =  6.90E-03,  avg # of iterations =  3.0

     negative rho (up, down):  1.552E-04 0.000E+00

     add environment contribution to local potential
     polarization accuracy = 2.7E-06, # of iterations =  16

     total cpu time spent up to now is       19.5 secs

     total energy              =     -82.44644041 Ry
     Harris-Foulkes estimate   =     -82.81920006 Ry
     estimated scf accuracy    <       0.49832405 Ry
     electrostatic embedding   =      -0.02763460 Ry
     electrolyte free energy   =       0.01081637 Ry
     correction to one-el term =       0.06889959 Ry

     iteration #  3     ecut=    30.00 Ry     beta=0.70
     Davidson diagonalization with overlap
     ethr =  1.66E-03,  avg # of iterations =  4.0

     negative rho (up, down):  1.955E-04 0.000E+00

     add environment contribution to local potential
     polarization accuracy = 4.9E-06, # of iterations =  16

     total cpu time spent up to now is       26.8 secs

     total energy              =     -82.59338470 Ry
     Harris-Foulkes estimate   =     -83.25968104 Ry
     estimated scf accuracy    <       0.20653562 Ry
     electrostatic embedding   =      -0.02435852 Ry
     electrolyte free energy   =       0.00720446 Ry
     correction to one-el term =       0.58150263 Ry

     iteration #  4     ecut=    30.00 Ry     beta=0.70
     Davidson diagonalization with overlap
     ethr =  6.88E-04,  avg # of iterations =  4.0

     negative rho (up, down):  5.025E-05 0.000E+00

     add environment contribution to local potential
     polarization accuracy = 7.2E-06, # of iterations =  16

     total cpu time spent up to now is       33.9 secs

     total energy              =     -82.64345549 Ry
     Harris-Foulkes estimate   =     -83.44819498 Ry
     estimated scf accuracy    <       0.00853549 Ry
     electrostatic embedding   =      -0.01658758 Ry
     electrolyte free energy   =       0.00507471 Ry
     correction to one-el term =       0.81203516 Ry

     iteration #  5     ecut=    30.00 Ry     beta=0.70
     Davidson diagonalization with overlap
     ethr =  2.85E-05,  avg # of iterations =  4.0

     negative rho (up, down):  5.284E-05 0.000E+00

     add environment contribution to local potential
     polarization accuracy = 7.7E-06, # of iterations =  16

     total cpu time spent up to now is       41.2 secs

     total energy              =     -82.64611070 Ry
     Harris-Foulkes estimate   =     -83.60565919 Ry
     estimated scf accuracy    <       0.00114215 Ry
     electrostatic embedding   =      -0.01813652 Ry
     electrolyte free energy   =       0.00443408 Ry
     correction to one-el term =       0.97281097 Ry

     iteration #  6     ecut=    30.00 Ry     beta=0.70
     Davidson diagonalization with overlap
     ethr =  3.81E-06,  avg # of iterations =  3.0

     negative rho (up, down):  1.399E-04 0.000E+00

     total cpu time spent up to now is       44.1 secs

     End of self-consistent calculation

          k = 0.0000 0.0000 0.0000 ( 11060 PWs)   bands (ev):

   -23.2522 -19.6365 -18.8568 -15.3851 -15.2767 -12.8030 -11.6472 -11.1979
   -10.4392  -9.7793  -9.4583  -8.6845  -7.0456  -6.6425  -5.5799

     highest occupied level (ev):    -5.5799

!    total energy              =     -82.64636032 Ry
     Harris-Foulkes estimate   =     -83.64880517 Ry
     estimated scf accuracy    <       0.00009165 Ry

     The total energy is the sum of the following terms:

     one-electron contribution =    -292.45887313 Ry
     hartree contribution      =     149.42767550 Ry
     xc contribution           =     -25.97501830 Ry
     ewald contribution        =      85.35745671 Ry
     electrostatic embedding   =      -0.01804621 Ry
     electrolyte free energy   =       0.00430578 Ry
     correction to one-el term =       1.01613932 Ry

     convergence has been achieved in   6 iterations

     Forces acting on atoms (cartesian axes, Ry/au):

     atom    1 type  1   force =    -0.04652497    0.00000123    0.00000388
     atom    2 type  2   force =    -0.00612745   -0.06238206    0.00002607
     atom    3 type  2   force =     0.02094297    0.01704466   -0.00004607
     atom    4 type  2   force =     0.00624401   -0.00000370    0.00000559
     atom    5 type  2   force =     0.02095035   -0.01703481    0.00000646
     atom    6 type  2   force =    -0.00614362    0.06238207    0.00001162
     atom    7 type  3   force =     0.00205957    0.00189700    0.00000896
     atom    8 type  3   force =     0.00530795   -0.00374474   -0.00000832
     atom    9 type  3   force =    -0.00407944    0.00000310    0.00002910
     atom   10 type  3   force =     0.00531569    0.00373358   -0.00002498
     atom   11 type  3   force =     0.00205493   -0.00189633   -0.00001232

     Total force =     0.107874     Total SCF correction =     0.015663
     SCF correction compared to forces is large: reduce conv_thr to get better values

     Writing output data file pwscf.save

     init_run     :      4.75s CPU      5.15s WALL (       1 calls)
     electrons    :     35.80s CPU     38.90s WALL (       1 calls)
     forces       :      1.16s CPU      1.34s WALL (       1 calls)

     Called by init_run:
     wfcinit      :      0.15s CPU      0.15s WALL (       1 calls)
     potinit      :      2.39s CPU      2.49s WALL (       1 calls)

     Called by electrons:
     c_bands      :      1.51s CPU      1.46s WALL (       6 calls)
     sum_band     :      3.53s CPU      3.71s WALL (       6 calls)
     v_of_rho     :      4.52s CPU      4.83s WALL (       7 calls)
     newd         :      1.86s CPU      2.76s WALL (       7 calls)
     mix_rho      :      0.39s CPU      0.44s WALL (       6 calls)

     Called by c_bands:
     init_us_2    :      0.04s CPU      0.07s WALL (      13 calls)
     regterg      :      1.43s CPU      1.36s WALL (       6 calls)

     Called by sum_band:
     sum_band:bec :      0.00s CPU      0.00s WALL (       6 calls)
     addusdens    :      2.64s CPU      2.81s WALL (       6 calls)

     Called by *egterg:
     h_psi        :      1.34s CPU      1.31s WALL (      27 calls)
     s_psi        :      0.06s CPU      0.02s WALL (      27 calls)
     g_psi        :      0.01s CPU      0.01s WALL (      20 calls)
     rdiaghg      :      0.01s CPU      0.01s WALL (      26 calls)

     Called by h_psi:
     h_psi:pot    :      1.34s CPU      1.30s WALL (      27 calls)
     h_psi:calbec :      0.04s CPU      0.04s WALL (      27 calls)
     vloc_psi     :      1.23s CPU      1.24s WALL (      27 calls)
     add_vuspsi   :      0.06s CPU      0.02s WALL (      27 calls)

     General routines
     calbec       :      0.06s CPU      0.06s WALL (      37 calls)
     fft          :     12.15s CPU     12.17s WALL (     407 calls)
     ffts         :      0.06s CPU      0.06s WALL (      13 calls)
     fftw         :      1.14s CPU      1.14s WALL (     364 calls)
     interpolate  :      0.53s CPU      0.57s WALL (      13 calls)
     davcio       :      0.00s CPU      0.00s WALL (       1 calls)


     Environ routines
     calc_eelect  :      0.04s CPU      0.04s WALL (      12 calls)
     calc_velect  :     16.30s CPU     17.67s WALL (      10 calls)
     dielectric   :      0.34s CPU      0.42s WALL (       8 calls)
     electrolyte  :      0.03s CPU      0.04s WALL (       8 calls)
     calc_felect  :      0.23s CPU      0.24s WALL (       1 calls)

     PWSCF        :    41.83s CPU        45.60s WALL


   This run was terminated on:  14:48: 9   1Jan2018            

=------------------------------------------------------------------------------=
   JOB DONE.
=------------------------------------------------------------------------------=

%%%% IONS %%%%%%%%%%%%%%%%%%%%%%%%%%%%%%%%%%%%%%%%%%%%%%%%%%%%%%%%%%%%%%%%%%%%%%
 number of ions             =         11
 ionic center of charge     =      0.0072664     0.0000000     0.0001166
 total ionic charge         =    -30.0000000
 ionic dipole               =      0.0000000     0.0000000     0.0000000
 ionic quadrupole (pc)      =   -131.0719095  -146.7987094    -0.0000314
 ionic quadrupole (gauss)   =   -134.8219095  -150.5487094    -3.7500314
 ion   1 type =  1 coordinates =     -2.4454071     0.0000002     0.0030272
 ion   2 type =  2 coordinates =     -1.2331440     2.2473584     0.0020749
 ion   3 type =  2 coordinates =      1.3781229     2.2851921     0.0014627
 ion   4 type =  2 coordinates =      2.6939354     0.0000002     0.0013189
 ion   5 type =  2 coordinates =      1.3781232    -2.2851919     0.0026521
 ion   6 type =  2 coordinates =     -1.2331437    -2.2473574     0.0035464
 ion   7 type =  3 coordinates =     -2.4127312     3.9381412     0.0017094
 ion   8 type =  3 coordinates =      2.3590962     4.0987221     0.0008035
 ion   9 type =  3 coordinates =      4.7585861    -0.0000002     0.0000199
 ion  10 type =  3 coordinates =      2.3590968    -4.0987217     0.0032074
 ion  11 type =  3 coordinates =     -2.4127303    -3.9381403     0.0048805

%%%% SYSTEM %%%%%%%%%%%%%%%%%%%%%%%%%%%%%%%%%%%%%%%%%%%%%%%%%%%%%%%%%%%%%%%%%%%%
 system is built from all present ionic types
 system defined dimension   =  0 
 system defined axis        =  3 
 system center              =      0.0072664     0.0000000     0.0001166 
 system width               =      0.2348011 

%%%% ELECTRONS %%%%%%%%%%%%%%%%%%%%%%%%%%%%%%%%%%%%%%%%%%%%%%%%%%%%%%%%%%%%%%%%%
 number of electrons        =         30
 total electronic charge    =     30.0000000
 number of spin components  =  1

%%%% BOUNDARY %%%%%%%%%%%%%%%%%%%%%%%%%%%%%%%%%%%%%%%%%%%%%%%%%%%%%%%%%%%%%%%%%%
 boundary mode              = electronic           
 boundary is built as a function of a smooth density
 function type              =  2 
 using the modified SCCS function with parameters 
 rhomax                     =      0.0050000 
 rhomin                     =      0.0001000 
 volume of the QM region    =   2407.1059985 
 surface of the QM region   =    815.5587051 

%%%% DIELECTRIC %%%%%%%%%%%%%%%%%%%%%%%%%%%%%%%%%%%%%%%%%%%%%%%%%%%%%%%%%%%%%%%%%
 dielectric build on homogeneous background
 environment bulk permitt.  =     20.0000000 
 dielectric flags
 need gradient              =  F 
 need factor depend. sqrt   =  T 
 total dielectric charge    =      0.0000000

%%%% BOUNDARY %%%%%%%%%%%%%%%%%%%%%%%%%%%%%%%%%%%%%%%%%%%%%%%%%%%%%%%%%%%%%%%%%%
 boundary mode              = electronic           
 boundary is built as a function of a smooth density
 function type              =  2 
 using the modified SCCS function with parameters 
 rhomax                     =      0.0007000 
 rhomin                     =      0.0000150 
 volume of the QM region    =   5932.6916041 
 surface of the QM region   =   1117.5224416 

%%%% ELECTROLYTE %%%%%%%%%%%%%%%%%%%%%%%%%%%%%%%%%%%%%%%%%%%%%%%%%%%%%%%%%%%%%%%%
 number electrol. species   =    2
 solvent temperature        =   300.0
 Debye length / sqrt(eps)   =      0.2301070
 modified Poisson-Boltzmann 
 maximum concentration      =      0.0190986
 electrolyte species    1
 bulk concentration  (a.u.) =      0.7139E-03
 bulk concentration (mol/L) =      8.0000000
 ionic charge               =   -1.00
 electrolyte species    2
 bulk concentration  (a.u.) =      0.7139E-03
 bulk concentration (mol/L) =      8.0000000
 ionic charge               =    1.00
 electrolyte flags
 linearized                 =  T
 total electrolyte charge   =      0.0000000

%%%% ELECTRONS %%%%%%%%%%%%%%%%%%%%%%%%%%%%%%%%%%%%%%%%%%%%%%%%%%%%%%%%%%%%%%%%%
 number of electrons        =         30
 total electronic charge    =     30.0000000
 number of spin components  =  1

%%%% BOUNDARY %%%%%%%%%%%%%%%%%%%%%%%%%%%%%%%%%%%%%%%%%%%%%%%%%%%%%%%%%%%%%%%%%%
 boundary mode              = electronic           
 boundary is built as a function of a smooth density
 function type              =  2 
 using the modified SCCS function with parameters 
 rhomax                     =      0.0050000 
 rhomin                     =      0.0001000 
 volume of the QM region    =   1074.1872471 
 surface of the QM region   =    527.4241024 

%%%% DIELECTRIC %%%%%%%%%%%%%%%%%%%%%%%%%%%%%%%%%%%%%%%%%%%%%%%%%%%%%%%%%%%%%%%%%
 dielectric build on homogeneous background
 environment bulk permitt.  =     20.0000000 
 dielectric flags
 need gradient              =  F 
 need factor depend. sqrt   =  T 
 total dielectric charge    =      0.0000000

%%%% BOUNDARY %%%%%%%%%%%%%%%%%%%%%%%%%%%%%%%%%%%%%%%%%%%%%%%%%%%%%%%%%%%%%%%%%%
 boundary mode              = electronic           
 boundary is built as a function of a smooth density
 function type              =  2 
 using the modified SCCS function with parameters 
 rhomax                     =      0.0007000 
 rhomin                     =      0.0000150 
 volume of the QM region    =   3892.6005199 
 surface of the QM region   =   1002.4964145 

%%%% ELECTROLYTE %%%%%%%%%%%%%%%%%%%%%%%%%%%%%%%%%%%%%%%%%%%%%%%%%%%%%%%%%%%%%%%%
 number electrol. species   =    2
 solvent temperature        =   300.0
 Debye length / sqrt(eps)   =      0.2301070
 modified Poisson-Boltzmann 
 maximum concentration      =      0.0190986
 electrolyte species    1
 bulk concentration  (a.u.) =      0.7139E-03
 bulk concentration (mol/L) =      8.0000000
 ionic charge               =   -1.00
 electrolyte species    2
 bulk concentration  (a.u.) =      0.7139E-03
 bulk concentration (mol/L) =      8.0000000
 ionic charge               =    1.00
 electrolyte flags
 linearized                 =  T
 total electrolyte charge   =      0.0000000

%%%% COMPUTE ELECTROSTATIC POTENTIAL %%%%%%%%%%%%%%%%%%%%%%%%%%%%%%%%%%%%%%%%%%%
 Iteration #          1
  pAp =    123.27207666197428       rzold =    120.82064324098198       alpha =   0.98011363572859733     
 delta_qm =   0.114471E-01 delta_en =   0.226429E+03 tol =   0.100000E-04
 Iteration #          2
  pAp =    1897.2423136697553       rzold =    62.593822393156749       alpha =    3.2992002098078961E-002
 delta_qm =   0.341022E-02 delta_en =   0.200959E+02 tol =   0.100000E-04
 Iteration #          3
  pAp =    8.0309377875991661       rzold =    1.1949482940345058       alpha =   0.14879312050949572     
 delta_qm =   0.103913E-02 delta_en =   0.186587E+01 tol =   0.100000E-04
 Iteration #          4
  pAp =   0.30817403591821202       rzold =    6.4978969791248703E-002  alpha =   0.21085153912347704     
 delta_qm =   0.539284E-03 delta_en =   0.502550E+00 tol =   0.100000E-04
 Iteration #          5
  pAp =   0.27088037659735542       rzold =    2.9182465608871250E-002  alpha =   0.10773192940531431     
 delta_qm =   0.271352E-03 delta_en =   0.127236E+00 tol =   0.100000E-04
 Iteration #          6
  pAp =    8.5091782976929268E-003  rzold =    2.2956215656810414E-003  alpha =   0.26978181504358040     
 delta_qm =   0.127178E-03 delta_en =   0.279491E-01 tol =   0.100000E-04
 Iteration #          7
  pAp =    3.9991546281669304E-003  rzold =    4.6005346068296116E-004  alpha =   0.11503767757383096     
 delta_qm =   0.997041E-04 delta_en =   0.171779E-01 tol =   0.100000E-04
 Iteration #          8
  pAp =    5.3581652607498625E-004  rzold =    1.6575209620485706E-004  alpha =   0.30934487485677226     
 delta_qm =   0.467349E-04 delta_en =   0.377421E-02 tol =   0.100000E-04
 Iteration #          9
  pAp =    1.2600506444984463E-004  rzold =    3.4016062625698851E-005  alpha =   0.26995790029724315     
 delta_qm =   0.263314E-04 delta_en =   0.119810E-02 tol =   0.100000E-04
 Iteration #         10
  pAp =    7.9099663442457516E-005  rzold =    1.7062865265414725E-005  alpha =   0.21571350019494603     
 delta_qm =   0.123530E-04 delta_en =   0.263688E-03 tol =   0.100000E-04
 Iteration #         11
  pAp =    5.3386988658925127E-005  rzold =    6.3266470435887643E-006  alpha =   0.11850541119687387     
 delta_qm =   0.819552E-05 delta_en =   0.116064E-03 tol =   0.100000E-04
 Iteration #         12
  pAp =    3.1048628186233512E-006  rzold =    1.1357014229427227E-006  alpha =   0.36578151412379484     
 delta_qm =   0.427726E-05 delta_en =   0.316136E-04 tol =   0.100000E-04
 Iteration #         13
  pAp =    2.8278934773679539E-007  rzold =    1.7992572330244600E-007  alpha =   0.63625353904741444     
 delta_qm =   0.206339E-05 delta_en =   0.735710E-05 tol =   0.100000E-04
 Charges are converged, EXIT

%%%% ELECTRONS %%%%%%%%%%%%%%%%%%%%%%%%%%%%%%%%%%%%%%%%%%%%%%%%%%%%%%%%%%%%%%%%%
 number of electrons        =         30
 total electronic charge    =     30.0000000
 number of spin components  =  1

%%%% BOUNDARY %%%%%%%%%%%%%%%%%%%%%%%%%%%%%%%%%%%%%%%%%%%%%%%%%%%%%%%%%%%%%%%%%%
 boundary mode              = electronic           
 boundary is built as a function of a smooth density
 function type              =  2 
 using the modified SCCS function with parameters 
 rhomax                     =      0.0050000 
 rhomin                     =      0.0001000 
 volume of the QM region    =   1022.9403475 
 surface of the QM region   =    515.5717389 

%%%% DIELECTRIC %%%%%%%%%%%%%%%%%%%%%%%%%%%%%%%%%%%%%%%%%%%%%%%%%%%%%%%%%%%%%%%%%
 dielectric build on homogeneous background
 environment bulk permitt.  =     20.0000000 
 dielectric flags
 need gradient              =  F 
 need factor depend. sqrt   =  T 
 total dielectric charge    =      0.0046722

%%%% BOUNDARY %%%%%%%%%%%%%%%%%%%%%%%%%%%%%%%%%%%%%%%%%%%%%%%%%%%%%%%%%%%%%%%%%%
 boundary mode              = electronic           
 boundary is built as a function of a smooth density
 function type              =  2 
 using the modified SCCS function with parameters 
 rhomax                     =      0.0007000 
 rhomin                     =      0.0000150 
 volume of the QM region    =   2616.9268118 
 surface of the QM region   =    874.0645478 

%%%% ELECTROLYTE %%%%%%%%%%%%%%%%%%%%%%%%%%%%%%%%%%%%%%%%%%%%%%%%%%%%%%%%%%%%%%%%
 number electrol. species   =    2
 solvent temperature        =   300.0
 Debye length / sqrt(eps)   =      0.2301070
 modified Poisson-Boltzmann 
 maximum concentration      =      0.0190986
 electrolyte species    1
 bulk concentration  (a.u.) =      0.7139E-03
 bulk concentration (mol/L) =      8.0000000
 ionic charge               =   -1.00
 electrolyte species    2
 bulk concentration  (a.u.) =      0.7139E-03
 bulk concentration (mol/L) =      8.0000000
 ionic charge               =    1.00
 electrolyte flags
 linearized                 =  T
 total electrolyte charge   =     -0.0051863

%%%% COMPUTE ELECTROSTATIC POTENTIAL %%%%%%%%%%%%%%%%%%%%%%%%%%%%%%%%%%%%%%%%%%%
 Warning: bad guess with residual norm =   0.201802E+03, reset to no guess
 Iteration #          1
  pAp =    124.06403110849256       rzold =    122.29878324999356       alpha =   0.98577147749652516     
 delta_qm =   0.107093E-01 delta_en =   0.198184E+03 tol =   0.100000E-04
 Iteration #          2
  pAp =    2187.6295939093211       rzold =    56.301966129093238       alpha =    2.5736516952342435E-002
 delta_qm =   0.350494E-02 delta_en =   0.212278E+02 tol =   0.100000E-04
 Iteration #          3
  pAp =    15.507781336097878       rzold =    1.4968604763882440       alpha =    9.6523186905141736E-002
 delta_qm =   0.185683E-02 delta_en =   0.595785E+01 tol =   0.100000E-04
 Iteration #          4
  pAp =    2.9790967879124910       rzold =   0.34570265698035607       alpha =   0.11604277456946822     
 delta_qm =   0.800145E-03 delta_en =   0.110632E+01 tol =   0.100000E-04
 Iteration #          5
  pAp =   0.25209080479469814       rzold =    4.2844189918193006E-002  alpha =   0.16995538553294381     
 delta_qm =   0.309821E-03 delta_en =   0.165869E+00 tol =   0.100000E-04
 Iteration #          6
  pAp =    1.6327145907637761E-002  rzold =    3.5623071091703553E-003  alpha =   0.21818308780494972     
 delta_qm =   0.160596E-03 delta_en =   0.445668E-01 tol =   0.100000E-04
 Iteration #          7
  pAp =    4.0705472696557343E-003  rzold =    7.4781415015707099E-004  alpha =   0.18371341753766618     
 delta_qm =   0.105735E-03 delta_en =   0.193190E-01 tol =   0.100000E-04
 Iteration #          8
  pAp =    8.3302563814955863E-004  rzold =    1.6368476741934949E-004  alpha =   0.19649427331306468     
 delta_qm =   0.752760E-04 delta_en =   0.979166E-02 tol =   0.100000E-04
 Iteration #          9
  pAp =    1.1974512130392572E-003  rzold =    1.6764269265360618E-004  alpha =   0.13999960151037083     
 delta_qm =   0.415511E-04 delta_en =   0.298338E-02 tol =   0.100000E-04
 Iteration #         10
  pAp =    8.1822541837113307E-005  rzold =    2.5096898368841261E-005  alpha =   0.30672352392574703     
 delta_qm =   0.183574E-04 delta_en =   0.582323E-03 tol =   0.100000E-04
 Iteration #         11
  pAp =    9.2536139002884462E-005  rzold =    1.0635180767345705E-005  alpha =   0.11493002498206883     
 delta_qm =   0.130521E-04 delta_en =   0.294376E-03 tol =   0.100000E-04
 Iteration #         12
  pAp =    2.4913440967005603E-005  rzold =    3.7395963943906029E-006  alpha =   0.15010356856538523     
 delta_qm =   0.944288E-05 delta_en =   0.154082E-03 tol =   0.100000E-04
 Iteration #         13
  pAp =    6.1108343533094275E-006  rzold =    1.4078676436873532E-006  alpha =   0.23038877545828063     
 delta_qm =   0.557454E-05 delta_en =   0.536985E-04 tol =   0.100000E-04
 Iteration #         14
  pAp =    5.4275512710504043E-007  rzold =    2.1977488766857915E-007  alpha =   0.40492457222987355     
 delta_qm =   0.315962E-05 delta_en =   0.172510E-04 tol =   0.100000E-04
 Iteration #         15
  pAp =    1.6432866882129778E-005  rzold =    5.4418722690778093E-007  alpha =    3.3115781367374628E-002
 delta_qm =   0.295636E-05 delta_en =   0.151028E-04 tol =   0.100000E-04
 Iteration #         16
  pAp =    1.8553159070613248E-007  rzold =    8.1497974543968282E-008  alpha =   0.43926737346339417     
 delta_qm =   0.125552E-05 delta_en =   0.272391E-05 tol =   0.100000E-04
 Charges are converged, EXIT

%%%% ELECTRONS %%%%%%%%%%%%%%%%%%%%%%%%%%%%%%%%%%%%%%%%%%%%%%%%%%%%%%%%%%%%%%%%%
 number of electrons        =         30
 total electronic charge    =     30.0000000
 number of spin components  =  1

%%%% BOUNDARY %%%%%%%%%%%%%%%%%%%%%%%%%%%%%%%%%%%%%%%%%%%%%%%%%%%%%%%%%%%%%%%%%%
 boundary mode              = electronic           
 boundary is built as a function of a smooth density
 function type              =  2 
 using the modified SCCS function with parameters 
 rhomax                     =      0.0050000 
 rhomin                     =      0.0001000 
 volume of the QM region    =    990.2570346 
 surface of the QM region   =    507.9651891 

%%%% DIELECTRIC %%%%%%%%%%%%%%%%%%%%%%%%%%%%%%%%%%%%%%%%%%%%%%%%%%%%%%%%%%%%%%%%%
 dielectric build on homogeneous background
 environment bulk permitt.  =     20.0000000 
 dielectric flags
 need gradient              =  F 
 need factor depend. sqrt   =  T 
 total dielectric charge    =      0.0011175

%%%% BOUNDARY %%%%%%%%%%%%%%%%%%%%%%%%%%%%%%%%%%%%%%%%%%%%%%%%%%%%%%%%%%%%%%%%%%
 boundary mode              = electronic           
 boundary is built as a function of a smooth density
 function type              =  2 
 using the modified SCCS function with parameters 
 rhomax                     =      0.0007000 
 rhomin                     =      0.0000150 
 volume of the QM region    =   1838.2168150 
 surface of the QM region   =    752.8877019 

%%%% ELECTROLYTE %%%%%%%%%%%%%%%%%%%%%%%%%%%%%%%%%%%%%%%%%%%%%%%%%%%%%%%%%%%%%%%%
 number electrol. species   =    2
 solvent temperature        =   300.0
 Debye length / sqrt(eps)   =      0.2301070
 modified Poisson-Boltzmann 
 maximum concentration      =      0.0190986
 electrolyte species    1
 bulk concentration  (a.u.) =      0.7139E-03
 bulk concentration (mol/L) =      8.0000000
 ionic charge               =   -1.00
 electrolyte species    2
 bulk concentration  (a.u.) =      0.7139E-03
 bulk concentration (mol/L) =      8.0000000
 ionic charge               =    1.00
 electrolyte flags
 linearized                 =  T
 total electrolyte charge   =     -0.0011981

%%%% COMPUTE ELECTROSTATIC POTENTIAL %%%%%%%%%%%%%%%%%%%%%%%%%%%%%%%%%%%%%%%%%%%
 Warning: bad guess with residual norm =   0.171838E+03, reset to no guess
 Iteration #          1
  pAp =    124.04924755924283       rzold =    122.81984925268205       alpha =   0.99008943358585344     
 delta_qm =   0.990310E-02 delta_en =   0.169467E+03 tol =   0.100000E-04
 Iteration #          2
  pAp =    2107.8458685007267       rzold =    46.623587751934153       alpha =    2.2119068784235481E-002
 delta_qm =   0.304210E-02 delta_en =   0.159916E+02 tol =   0.100000E-04
 Iteration #          3
  pAp =    10.489403885527771       rzold =   0.97806200533131826       alpha =    9.3242858793982586E-002
 delta_qm =   0.157806E-02 delta_en =   0.430317E+01 tol =   0.100000E-04
 Iteration #          4
  pAp =    2.2389406532708760       rzold =   0.23755583236156894       alpha =   0.10610188886182527     
 delta_qm =   0.794891E-03 delta_en =   0.109184E+01 tol =   0.100000E-04
 Iteration #          5
  pAp =   0.26049261107032001       rzold =    4.1463077904362856E-002  alpha =   0.15917180043609719     
 delta_qm =   0.327639E-03 delta_en =   0.185496E+00 tol =   0.100000E-04
 Iteration #          6
  pAp =    2.2177543177240869E-002  rzold =    4.2938810348155587E-003  alpha =   0.19361391839029507     
 delta_qm =   0.164015E-03 delta_en =   0.464847E-01 tol =   0.100000E-04
 Iteration #          7
  pAp =    3.9832729814703550E-003  rzold =    7.3728317996261158E-004  alpha =   0.18509481609529471     
 delta_qm =   0.108047E-03 delta_en =   0.201729E-01 tol =   0.100000E-04
 Iteration #          8
  pAp =    3.8470105449717797E-004  rzold =    1.2863619137148415E-004  alpha =   0.33437961728391308     
 delta_qm =   0.568099E-04 delta_en =   0.557689E-02 tol =   0.100000E-04
 Iteration #          9
  pAp =    1.0049830304148346E-003  rzold =    9.0289047903674140E-005  alpha =    8.9841365646149099E-002
 delta_qm =   0.413467E-04 delta_en =   0.295410E-02 tol =   0.100000E-04
 Iteration #         10
  pAp =    1.1111807883542994E-004  rzold =    2.6064345520419804E-005  alpha =   0.23456440026309383     
 delta_qm =   0.212871E-04 delta_en =   0.783031E-03 tol =   0.100000E-04
 Iteration #         11
  pAp =    7.0866865745697078E-005  rzold =    1.1640844101065251E-005  alpha =   0.16426356631656261     
 delta_qm =   0.125463E-04 delta_en =   0.272002E-03 tol =   0.100000E-04
 Iteration #         12
  pAp =    6.4082710462813703E-006  rzold =    1.8164582045506259E-006  alpha =   0.28345527076366273     
 delta_qm =   0.731166E-05 delta_en =   0.923795E-04 tol =   0.100000E-04
 Iteration #         13
  pAp =    1.3134020962328221E-005  rzold =    1.1107373101073555E-006  alpha =    8.4569479011282103E-002
 delta_qm =   0.595908E-05 delta_en =   0.613623E-04 tol =   0.100000E-04
 Iteration #         14
  pAp =    8.6928364769345651E-007  rzold =    2.6793199655621549E-007  alpha =   0.30822159978177666     
 delta_qm =   0.368754E-05 delta_en =   0.234973E-04 tol =   0.100000E-04
 Iteration #         15
  pAp =    1.0743217586823862E-005  rzold =    3.3723358723599884E-007  alpha =    3.1390371135143223E-002
 delta_qm =   0.363285E-05 delta_en =   0.228055E-04 tol =   0.100000E-04
 Iteration #         16
  pAp =    3.4016799642485689E-007  rzold =    1.1573327287552327E-007  alpha =   0.34022387200404597     
 delta_qm =   0.169191E-05 delta_en =   0.494649E-05 tol =   0.100000E-04
 Charges are converged, EXIT

%%%% ELECTRONS %%%%%%%%%%%%%%%%%%%%%%%%%%%%%%%%%%%%%%%%%%%%%%%%%%%%%%%%%%%%%%%%%
 number of electrons        =         30
 total electronic charge    =     30.0000000
 number of spin components  =  1

%%%% BOUNDARY %%%%%%%%%%%%%%%%%%%%%%%%%%%%%%%%%%%%%%%%%%%%%%%%%%%%%%%%%%%%%%%%%%
 boundary mode              = electronic           
 boundary is built as a function of a smooth density
 function type              =  2 
 using the modified SCCS function with parameters 
 rhomax                     =      0.0050000 
 rhomin                     =      0.0001000 
 volume of the QM region    =    970.5693658 
 surface of the QM region   =    503.1696359 

%%%% DIELECTRIC %%%%%%%%%%%%%%%%%%%%%%%%%%%%%%%%%%%%%%%%%%%%%%%%%%%%%%%%%%%%%%%%%
 dielectric build on homogeneous background
 environment bulk permitt.  =     20.0000000 
 dielectric flags
 need gradient              =  F 
 need factor depend. sqrt   =  T 
 total dielectric charge    =     -0.0001562

%%%% BOUNDARY %%%%%%%%%%%%%%%%%%%%%%%%%%%%%%%%%%%%%%%%%%%%%%%%%%%%%%%%%%%%%%%%%%
 boundary mode              = electronic           
 boundary is built as a function of a smooth density
 function type              =  2 
 using the modified SCCS function with parameters 
 rhomax                     =      0.0007000 
 rhomin                     =      0.0000150 
 volume of the QM region    =   1613.5754196 
 surface of the QM region   =    689.2678335 

%%%% ELECTROLYTE %%%%%%%%%%%%%%%%%%%%%%%%%%%%%%%%%%%%%%%%%%%%%%%%%%%%%%%%%%%%%%%%
 number electrol. species   =    2
 solvent temperature        =   300.0
 Debye length / sqrt(eps)   =      0.2301070
 modified Poisson-Boltzmann 
 maximum concentration      =      0.0190986
 electrolyte species    1
 bulk concentration  (a.u.) =      0.7139E-03
 bulk concentration (mol/L) =      8.0000000
 ionic charge               =   -1.00
 electrolyte species    2
 bulk concentration  (a.u.) =      0.7139E-03
 bulk concentration (mol/L) =      8.0000000
 ionic charge               =    1.00
 electrolyte flags
 linearized                 =  T
 total electrolyte charge   =      0.0001024

%%%% COMPUTE ELECTROSTATIC POTENTIAL %%%%%%%%%%%%%%%%%%%%%%%%%%%%%%%%%%%%%%%%%%%
 Warning: bad guess with residual norm =   0.150241E+03, reset to no guess
 Iteration #          1
  pAp =    123.58952274590527       rzold =    122.59256007041273       alpha =   0.99193327514062624     
 delta_qm =   0.927034E-02 delta_en =   0.148503E+03 tol =   0.100000E-04
 Iteration #          2
  pAp =    1757.2636020649256       rzold =    37.543371414793150       alpha =    2.1364678225097633E-002
 delta_qm =   0.323817E-02 delta_en =   0.181193E+02 tol =   0.100000E-04
 Iteration #          3
  pAp =    13.052017155690802       rzold =    1.1015638105536643       alpha =    8.4397974459708106E-002
 delta_qm =   0.169330E-02 delta_en =   0.495462E+01 tol =   0.100000E-04
 Iteration #          4
  pAp =    2.2728576168988495       rzold =   0.25510432905939445       alpha =   0.11223946769154239     
 delta_qm =   0.843936E-03 delta_en =   0.123073E+01 tol =   0.100000E-04
 Iteration #          5
  pAp =   0.30939797924083834       rzold =    4.7210619922041480E-002  alpha =   0.15258864986087153     
 delta_qm =   0.346814E-03 delta_en =   0.207843E+00 tol =   0.100000E-04
 Iteration #          6
  pAp =    2.2930591875396648E-002  rzold =    4.5554044809865708E-003  alpha =   0.19866057124649655     
 delta_qm =   0.164947E-03 delta_en =   0.470146E-01 tol =   0.100000E-04
 Iteration #          7
  pAp =    3.7161176419907502E-003  rzold =    6.8382520488719759E-004  alpha =   0.18401602714624171     
 delta_qm =   0.114773E-03 delta_en =   0.227627E-01 tol =   0.100000E-04
 Iteration #          8
  pAp =    4.4765113765625621E-004  rzold =    1.4633721800548732E-004  alpha =   0.32690013650285238     
 delta_qm =   0.571971E-04 delta_en =   0.565317E-02 tol =   0.100000E-04
 Iteration #          9
  pAp =    8.2572472525608588E-004  rzold =    7.5797018762397566E-005  alpha =    9.1794536900769538E-002
 delta_qm =   0.434294E-04 delta_en =   0.325920E-02 tol =   0.100000E-04
 Iteration #         10
  pAp =    1.2284176387647230E-004  rzold =    2.9613626456885091E-005  alpha =   0.24107132234493212     
 delta_qm =   0.208305E-04 delta_en =   0.749794E-03 tol =   0.100000E-04
 Iteration #         11
  pAp =    6.4180506624872153E-005  rzold =    9.8600201137723848E-006  alpha =   0.15362951513304646     
 delta_qm =   0.139307E-04 delta_en =   0.335344E-03 tol =   0.100000E-04
 Iteration #         12
  pAp =    6.9607389531472824E-006  rzold =    2.0932148022520438E-006  alpha =   0.30071732560888548     
 delta_qm =   0.741547E-05 delta_en =   0.950214E-04 tol =   0.100000E-04
 Iteration #         13
  pAp =    1.2682477931152706E-006  rzold =    3.4900965877315114E-007  alpha =   0.27519043255408193     
 delta_qm =   0.508684E-05 delta_en =   0.447137E-04 tol =   0.100000E-04
 Iteration #         14
  pAp =    2.2967352256451417E-005  rzold =    7.9754398779815342E-007  alpha =    3.4725116717540971E-002
 delta_qm =   0.482593E-05 delta_en =   0.402444E-04 tol =   0.100000E-04
 Iteration #         15
  pAp =    3.2022969694447932E-006  rzold =    2.7415318953483034E-007  alpha =    8.5611419599963698E-002
 delta_qm =   0.391866E-05 delta_en =   0.265350E-04 tol =   0.100000E-04
 Iteration #         16
  pAp =    5.6895545535280242E-007  rzold =    1.4853579525027047E-007  alpha =   0.26106752972104857     
 delta_qm =   0.203527E-05 delta_en =   0.715795E-05 tol =   0.100000E-04
 Charges are converged, EXIT

%%%% ELECTRONS %%%%%%%%%%%%%%%%%%%%%%%%%%%%%%%%%%%%%%%%%%%%%%%%%%%%%%%%%%%%%%%%%
 number of electrons        =         30
 total electronic charge    =     30.0000000
 number of spin components  =  1

%%%% BOUNDARY %%%%%%%%%%%%%%%%%%%%%%%%%%%%%%%%%%%%%%%%%%%%%%%%%%%%%%%%%%%%%%%%%%
 boundary mode              = electronic           
 boundary is built as a function of a smooth density
 function type              =  2 
 using the modified SCCS function with parameters 
 rhomax                     =      0.0050000 
 rhomin                     =      0.0001000 
 volume of the QM region    =    968.2620761 
 surface of the QM region   =    502.9738269 

%%%% DIELECTRIC %%%%%%%%%%%%%%%%%%%%%%%%%%%%%%%%%%%%%%%%%%%%%%%%%%%%%%%%%%%%%%%%%
 dielectric build on homogeneous background
 environment bulk permitt.  =     20.0000000 
 dielectric flags
 need gradient              =  F 
 need factor depend. sqrt   =  T 
 total dielectric charge    =      0.0000827

%%%% BOUNDARY %%%%%%%%%%%%%%%%%%%%%%%%%%%%%%%%%%%%%%%%%%%%%%%%%%%%%%%%%%%%%%%%%%
 boundary mode              = electronic           
 boundary is built as a function of a smooth density
 function type              =  2 
 using the modified SCCS function with parameters 
 rhomax                     =      0.0007000 
 rhomin                     =      0.0000150 
 volume of the QM region    =   1567.9532411 
 surface of the QM region   =    678.1124004 

%%%% ELECTROLYTE %%%%%%%%%%%%%%%%%%%%%%%%%%%%%%%%%%%%%%%%%%%%%%%%%%%%%%%%%%%%%%%%
 number electrol. species   =    2
 solvent temperature        =   300.0
 Debye length / sqrt(eps)   =      0.2301070
 modified Poisson-Boltzmann 
 maximum concentration      =      0.0190986
 electrolyte species    1
 bulk concentration  (a.u.) =      0.7139E-03
 bulk concentration (mol/L) =      8.0000000
 ionic charge               =   -1.00
 electrolyte species    2
 bulk concentration  (a.u.) =      0.7139E-03
 bulk concentration (mol/L) =      8.0000000
 ionic charge               =    1.00
 electrolyte flags
 linearized                 =  T
 total electrolyte charge   =     -0.0001634

%%%% COMPUTE ELECTROSTATIC POTENTIAL %%%%%%%%%%%%%%%%%%%%%%%%%%%%%%%%%%%%%%%%%%%
 Warning: bad guess with residual norm =   0.142076E+03, reset to no guess
 Iteration #          1
  pAp =    123.63880322843377       rzold =    122.71599567597639       alpha =   0.99253626265896144     
 delta_qm =   0.901844E-02 delta_en =   0.140542E+03 tol =   0.100000E-04
 Iteration #          2
  pAp =    1623.4383628971827       rzold =    34.477970147535864       alpha =    2.1237621911315802E-002
 delta_qm =   0.326519E-02 delta_en =   0.184230E+02 tol =   0.100000E-04
 Iteration #          3
  pAp =    13.797531588683288       rzold =    1.1266946637977129       alpha =    8.1659147258037509E-002
 delta_qm =   0.170576E-02 delta_en =   0.502781E+01 tol =   0.100000E-04
 Iteration #          4
  pAp =    2.2172247363666231       rzold =   0.25368197109587343       alpha =   0.11441418947525514     
 delta_qm =   0.839537E-03 delta_en =   0.121793E+01 tol =   0.100000E-04
 Iteration #          5
  pAp =   0.30793131312498284       rzold =    4.6561597365057550E-002  alpha =   0.15120773815607111     
 delta_qm =   0.347910E-03 delta_en =   0.209159E+00 tol =   0.100000E-04
 Iteration #          6
  pAp =    2.2163126603665685E-002  rzold =    4.4650645887432568E-003  alpha =   0.20146365937397814     
 delta_qm =   0.163639E-03 delta_en =   0.462721E-01 tol =   0.100000E-04
 Iteration #          7
  pAp =    3.5374471182883032E-003  rzold =    6.5218701604884317E-004  alpha =   0.18436657686756400     
 delta_qm =   0.115517E-03 delta_en =   0.230587E-01 tol =   0.100000E-04
 Iteration #          8
  pAp =    4.7892030855101176E-004  rzold =    1.4998008057726079E-004  alpha =   0.31316291645896199     
 delta_qm =   0.585574E-04 delta_en =   0.592527E-02 tol =   0.100000E-04
 Iteration #          9
  pAp =    9.6301829208832721E-004  rzold =    8.4358783679750496E-005  alpha =    8.7598319131422256E-002
 delta_qm =   0.442318E-04 delta_en =   0.338075E-02 tol =   0.100000E-04
 Iteration #         10
  pAp =    1.0934275258950803E-004  rzold =    2.8445991120489688E-005  alpha =   0.26015433530634585     
 delta_qm =   0.207114E-04 delta_en =   0.741248E-03 tol =   0.100000E-04
 Iteration #         11
  pAp =    5.9126117586518128E-005  rzold =    9.1413903052715665E-006  alpha =   0.15460833009871050     
 delta_qm =   0.141467E-04 delta_en =   0.345823E-03 tol =   0.100000E-04
 Iteration #         12
  pAp =    7.3175178192064738E-006  rzold =    2.1413828771714445E-006  alpha =   0.29263787667874247     
 delta_qm =   0.760402E-05 delta_en =   0.999148E-04 tol =   0.100000E-04
 Iteration #         13
  pAp =    1.3885735053874918E-006  rzold =    3.5318978855366475E-007  alpha =   0.25435440557041633     
 delta_qm =   0.533494E-05 delta_en =   0.491816E-04 tol =   0.100000E-04
 Iteration #         14
  pAp =    2.6429143761122476E-005  rzold =    9.1659318297310584E-007  alpha =    3.4681153171576565E-002
 delta_qm =   0.500920E-05 delta_en =   0.433591E-04 tol =   0.100000E-04
 Iteration #         15
  pAp =    3.3223044661360647E-006  rzold =    2.8483788766306932E-007  alpha =    8.5735034391457784E-002
 delta_qm =   0.407191E-05 delta_en =   0.286510E-04 tol =   0.100000E-04
 Iteration #         16
  pAp =    5.2702538953961174E-007  rzold =    1.4342822589231681E-007  alpha =   0.27214671008091273     
 delta_qm =   0.211727E-05 delta_en =   0.774636E-05 tol =   0.100000E-04
 Charges are converged, EXIT

%%%% ELECTRONS %%%%%%%%%%%%%%%%%%%%%%%%%%%%%%%%%%%%%%%%%%%%%%%%%%%%%%%%%%%%%%%%%
 number of electrons        =         30
 total electronic charge    =     30.0000000
 number of spin components  =  1

%%%% BOUNDARY %%%%%%%%%%%%%%%%%%%%%%%%%%%%%%%%%%%%%%%%%%%%%%%%%%%%%%%%%%%%%%%%%%
 boundary mode              = electronic           
 boundary is built as a function of a smooth density
 function type              =  2 
 using the modified SCCS function with parameters 
 rhomax                     =      0.0050000 
 rhomin                     =      0.0001000 
 volume of the QM region    =    968.2620761 
 surface of the QM region   =    502.9738269 

%%%% DIELECTRIC %%%%%%%%%%%%%%%%%%%%%%%%%%%%%%%%%%%%%%%%%%%%%%%%%%%%%%%%%%%%%%%%%
 dielectric build on homogeneous background
 environment bulk permitt.  =     20.0000000 
 dielectric flags
 need gradient              =  F 
 need factor depend. sqrt   =  T 
 total dielectric charge    =      0.0000559

%%%% BOUNDARY %%%%%%%%%%%%%%%%%%%%%%%%%%%%%%%%%%%%%%%%%%%%%%%%%%%%%%%%%%%%%%%%%%
 boundary mode              = electronic           
 boundary is built as a function of a smooth density
 function type              =  2 
 using the modified SCCS function with parameters 
 rhomax                     =      0.0007000 
 rhomin                     =      0.0000150 
 volume of the QM region    =   1567.9532411 
 surface of the QM region   =    678.1124004 

%%%% ELECTROLYTE %%%%%%%%%%%%%%%%%%%%%%%%%%%%%%%%%%%%%%%%%%%%%%%%%%%%%%%%%%%%%%%%
 number electrol. species   =    2
 solvent temperature        =   300.0
 Debye length / sqrt(eps)   =      0.2301070
 modified Poisson-Boltzmann 
 maximum concentration      =      0.0190986
 electrolyte species    1
 bulk concentration  (a.u.) =      0.7139E-03
 bulk concentration (mol/L) =      8.0000000
 ionic charge               =   -1.00
 electrolyte species    2
 bulk concentration  (a.u.) =      0.7139E-03
 bulk concentration (mol/L) =      8.0000000
 ionic charge               =    1.00
 electrolyte flags
 linearized                 =  T
 total electrolyte charge   =     -0.0001402
