
     Program PWSCF v.7.0 starts on 22Apr2022 at 20:22:27 

     This program is part of the open-source Quantum ESPRESSO suite
     for quantum simulation of materials; please cite
         "P. Giannozzi et al., J. Phys.:Condens. Matter 21 395502 (2009);
         "P. Giannozzi et al., J. Phys.:Condens. Matter 29 465901 (2017);
         "P. Giannozzi et al., J. Chem. Phys. 152 154105 (2020);
          URL http://www.quantum-espresso.org", 
     in publications or presentations arising from this work. More details at
     http://www.quantum-espresso.org/quote

     Parallel version (MPI), running on     1 processors

     MPI processes distributed on     1 nodes
     22868 MiB available memory on the printing compute node when the environment starts
 
     Reading input from pw.in

     Current dimensions of program PWSCF are:
     Max number of different atomic species (ntypx) = 10
     Max number of k-points (npk) =  40000
     Max angular momentum in pseudopotentials (lmaxx) =  4
 
     Reading input from environ.in:
     * using electronic solvent mode
     * setting boundary derivatives method to SCCS default
     * setting electrolyte-boundary derivatives method to SCCS default
     
     file N.pbe-rrkjus.UPF: wavefunction(s)  2S renormalized
     file C.pbe-rrkjus.UPF: wavefunction(s)  2S 2P renormalized
     file H.pbe-rrkjus.UPF: wavefunction(s)  1S renormalized

     gamma-point specific algorithms are used

     Subspace diagonalization in iterative solution of the eigenvalue problem:
     a serial algorithm will be used

 
     G-vector sticks info
     --------------------
     sticks:   dense  smooth     PW     G-vecs:    dense   smooth      PW
     Sum        9549    3809    949               701475   177509   22119
 
     Using Slab Decomposition
 


     bravais-lattice index     =            1
     lattice parameter (alat)  =      20.0000  a.u.
     unit-cell volume          =    8000.0000 (a.u.)^3
     number of atoms/cell      =           11
     number of atomic types    =            3
     number of electrons       =        30.00
     number of Kohn-Sham states=           15
     kinetic-energy cutoff     =      30.0000  Ry
     charge density cutoff     =     300.0000  Ry
     scf convergence threshold =      5.0E-04
     mixing beta               =       0.7000
     number of iterations used =            8  plain     mixing
     Exchange-correlation= SLA  PW   PBE  PBE
                           (   1   4   3   4   0   0   0)

     ================================================================================
 
                                  Environ Setup Summary

     ================================================================================
 
     Please cite

          O. Andreussi, I. Dabo and N. Marzari, J. Chem. Phys. 136, 064102 (2012)
          F. Nattino, M. Truscott, N. Marzari, and O. Andreussi, J. Chem. Phys. 150, 041722 (2019)

     in publications or presentations arising from this work.

     ================================================================================
 
     Parameters
     ==========

     compensation onset threshold      =               0.1000E+03
     static permittivity               =                    20.00

     Solvent Boundary
     ================

     solvent mode                      =               electronic
     derivatives method                =                    chain
     electrolyte derivatives method    =                    chain
     numerical core for derivatives    =                      fft
     switching function adopted        =                     SCCS
     density limit for vacuum region   =               0.5000E-02
     density limit for bulk solvent    =               0.1000E-03

     Electrostatic Setup
     ===================

     electrostatic problem to solve    =                    linpb
     numerical solver adopted          =                       cg
     type of auxiliary density adopted =                     none
     numerical core for poisson        =                      fft
     type of pbc corrections           =                parabolic
     numerical core for corrections    =                      1da

     ================================================================================
 

     celldm(1)=  20.000000  celldm(2)=   0.000000  celldm(3)=   0.000000
     celldm(4)=   0.000000  celldm(5)=   0.000000  celldm(6)=   0.000000

     crystal axes: (cart. coord. in units of alat)
               a(1) = (   1.000000   0.000000   0.000000 )  
               a(2) = (   0.000000   1.000000   0.000000 )  
               a(3) = (   0.000000   0.000000   1.000000 )  

     reciprocal axes: (cart. coord. in units 2 pi/alat)
               b(1) = (  1.000000  0.000000  0.000000 )  
               b(2) = (  0.000000  1.000000  0.000000 )  
               b(3) = (  0.000000  0.000000  1.000000 )  


     PseudoPot. # 1 for N  read from file:
     MD5 check sum: 28c76d763763edb36c62a6ca2be9aebd
     Pseudo is Ultrasoft, Zval =  5.0
     Generated by new atomic code, or converted to UPF format
     Using radial grid of 1257 points,  4 beta functions with: 
                l(1) =   0
                l(2) =   0
                l(3) =   1
                l(4) =   1
     Q(r) pseudized with 0 coefficients 


     PseudoPot. # 2 for C  read from file:
     MD5 check sum: c9ac5a99bc85b198593446162950cd17
     Pseudo is Ultrasoft, Zval =  4.0
     Generated by new atomic code, or converted to UPF format
     Using radial grid of  627 points,  4 beta functions with: 
                l(1) =   0
                l(2) =   0
                l(3) =   1
                l(4) =   1
     Q(r) pseudized with 0 coefficients 


     PseudoPot. # 3 for H  read from file:
     MD5 check sum: 2d52a7f45632fd764c17cc6affed14c8
     Pseudo is Ultrasoft, Zval =  1.0
     Generated by new atomic code, or converted to UPF format
     Using radial grid of 1061 points,  2 beta functions with: 
                l(1) =   0
                l(2) =   0
     Q(r) pseudized with 0 coefficients 


     atomic species   valence    mass     pseudopotential
        N              5.00    14.00000     N ( 1.00)
        C              4.00    12.00000     C ( 1.00)
        H              1.00     1.00000     H ( 1.00)

     No symmetry found



   Cartesian axes

     site n.     atom                  positions (alat units)
         1           N   tau(   1) = (  -0.1222704   0.0000000   0.0001514  )
         2           C   tau(   2) = (  -0.0616572   0.1123679   0.0001037  )
         3           C   tau(   3) = (   0.0689061   0.1142596   0.0000731  )
         4           C   tau(   4) = (   0.1346968   0.0000000   0.0000659  )
         5           C   tau(   5) = (   0.0689062  -0.1142596   0.0001326  )
         6           C   tau(   6) = (  -0.0616572  -0.1123679   0.0001773  )
         7           H   tau(   7) = (  -0.1206366   0.1969071   0.0000855  )
         8           H   tau(   8) = (   0.1179548   0.2049361   0.0000402  )
         9           H   tau(   9) = (   0.2379293  -0.0000000   0.0000010  )
        10           H   tau(  10) = (   0.1179548  -0.2049361   0.0001604  )
        11           H   tau(  11) = (  -0.1206365  -0.1969070   0.0002440  )

     number of k points=     1
                       cart. coord. in units 2pi/alat
        k(    1) = (   0.0000000   0.0000000   0.0000000), wk =   2.0000000

     Dense  grid:   350738 G-vectors     FFT dimensions: ( 120, 120, 120)

     Smooth grid:    88755 G-vectors     FFT dimensions: (  72,  72,  72)

     Estimated max dynamical RAM per process >     599.84 MB

     Initial potential from superposition of free atoms

     starting charge      29.5187, renormalised to      30.0000

     negative rho (up, down):  4.533E-04 0.000E+00
     Starting wfcs are   29 randomized atomic wfcs

     total cpu time spent up to now is        4.2 secs

     Self-consistent Calculation

     iteration #  1     ecut=    30.00 Ry     beta= 0.70
     Davidson diagonalization with overlap
     ethr =  1.00E-02,  avg # of iterations =  2.0

     negative rho (up, down):  1.343E-04 0.000E+00

     add environment contribution to local potential
     Polarization accuracy = 3.1E-06, # of iterations =  14

     total cpu time spent up to now is        9.7 secs

     total energy              =     -82.28425256 Ry
     estimated scf accuracy    <       2.00743679 Ry
     electrostatic embedding   =       0.00000000 Ry
     electrolyte free energy   =       0.01382708 Ry
     correction to one-el term =       0.00000000 Ry

     iteration #  2     ecut=    30.00 Ry     beta= 0.70
     Davidson diagonalization with overlap
     ethr =  6.69E-03,  avg # of iterations =  3.0

     negative rho (up, down):  8.678E-05 0.000E+00

     add environment contribution to local potential
     Polarization accuracy = 7.9E-06, # of iterations =  14

     total cpu time spent up to now is       14.3 secs

     total energy              =     -82.54786735 Ry
     estimated scf accuracy    <       0.29786951 Ry
     electrostatic embedding   =      -0.02775618 Ry
     electrolyte free energy   =       0.00755957 Ry
     correction to one-el term =       0.07767389 Ry

     iteration #  3     ecut=    30.00 Ry     beta= 0.70
     Davidson diagonalization with overlap
     ethr =  9.93E-04,  avg # of iterations =  4.0

     negative rho (up, down):  6.719E-05 0.000E+00

     add environment contribution to local potential
     Polarization accuracy = 7.1E-06, # of iterations =  15

     total cpu time spent up to now is       18.8 secs

     total energy              =     -82.63288323 Ry
     estimated scf accuracy    <       0.05353252 Ry
     electrostatic embedding   =      -0.01956922 Ry
     electrolyte free energy   =       0.00486498 Ry
     correction to one-el term =       0.62750686 Ry

     iteration #  4     ecut=    30.00 Ry     beta= 0.70
     Davidson diagonalization with overlap
     ethr =  1.78E-04,  avg # of iterations =  3.0

     negative rho (up, down):  4.806E-05 0.000E+00

     add environment contribution to local potential
     Polarization accuracy = 7.5E-06, # of iterations =  15

     total cpu time spent up to now is       24.0 secs

     total energy              =     -82.64618937 Ry
     estimated scf accuracy    <       0.00341913 Ry
     electrostatic embedding   =      -0.01721457 Ry
     electrolyte free energy   =       0.00389266 Ry
     correction to one-el term =       0.87332753 Ry

     iteration #  5     ecut=    30.00 Ry     beta= 0.70
     Davidson diagonalization with overlap
     ethr =  1.14E-05,  avg # of iterations =  2.0

     negative rho (up, down):  1.386E-04 0.000E+00

     the potential shift due to the Gaussian-smeared nuclei is    -0.0801 ev

     total cpu time spent up to now is       26.1 secs

     End of self-consistent calculation

          k = 0.0000 0.0000 0.0000 ( 11060 PWs)   bands (ev):

   -23.3051 -19.6203 -18.8650 -15.3999 -15.2732 -12.8015 -11.6555 -11.1930
   -10.4404  -9.8030  -9.4469  -8.6791  -7.0507  -6.6435  -5.6427

     highest occupied level (ev):    -5.6427

!    total energy              =     -82.64684851 Ry
     estimated scf accuracy    <       0.00046878 Ry

     The total energy is the sum of the following terms:
     one-electron contribution =    -292.44194531 Ry
     hartree contribution      =     149.44887265 Ry
     xc contribution           =     -25.97735966 Ry
     ewald contribution        =      85.35745758 Ry
     electrostatic embedding   =      -0.01761225 Ry
     electrolyte free energy   =       0.00369099 Ry
     correction to one-el term =       0.98004748 Ry

     WARNING: you are using the parabolic pbc correction;
              the potential shift above must be added to 
              band and Fermi energies.

     convergence has been achieved in   5 iterations

     Forces acting on atoms (cartesian axes, Ry/au):

     atom    1 type  1   force =    -0.04649586    0.00022814   -0.00000102
     atom    2 type  2   force =    -0.00577096   -0.06079660    0.00008620
     atom    3 type  2   force =     0.01769887    0.01609274   -0.00003938
     atom    4 type  2   force =     0.00785147    0.00004166    0.00001397
     atom    5 type  2   force =     0.01743808   -0.01629803    0.00001125
     atom    6 type  2   force =    -0.00557921    0.06052175   -0.00001159
     atom    7 type  3   force =     0.00303266   -0.00089236    0.00001662
     atom    8 type  3   force =     0.00579340   -0.00126190   -0.00004832
     atom    9 type  3   force =    -0.00274038   -0.00005393    0.00002032
     atom   10 type  3   force =     0.00570158    0.00146492   -0.00003813
     atom   11 type  3   force =     0.00307036    0.00095360   -0.00000992

     Total force =     0.104339     Total SCF correction =     0.036972
     SCF correction compared to forces is large: reduce conv_thr to get better values

 
     init_run     :      3.94s CPU      4.14s WALL (       1 calls)
     electrons    :     20.38s CPU     21.93s WALL (       1 calls)
     forces       :      0.63s CPU      0.73s WALL (       1 calls)

     Called by init_run:
     wfcinit      :      0.14s CPU      0.17s WALL (       1 calls)
     potinit      :      1.42s CPU      1.50s WALL (       1 calls)
     hinit0       :      1.93s CPU      1.93s WALL (       1 calls)

     Called by electrons:
     c_bands      :      1.22s CPU      1.26s WALL (       5 calls)
     sum_band     :      1.61s CPU      1.95s WALL (       5 calls)
     v_of_rho     :      2.22s CPU      2.58s WALL (       6 calls)
     newd         :      1.16s CPU      1.44s WALL (       6 calls)
     mix_rho      :      0.22s CPU      0.24s WALL (       5 calls)

     Called by c_bands:
     init_us_2    :      0.03s CPU      0.03s WALL (      11 calls)
     init_us_2:cp :      0.03s CPU      0.03s WALL (      11 calls)
     regterg      :      1.13s CPU      1.15s WALL (       5 calls)

     Called by *egterg:
     rdiaghg      :      0.01s CPU      0.01s WALL (      19 calls)
     h_psi        :      1.13s CPU      1.15s WALL (      20 calls)
     s_psi        :      0.03s CPU      0.03s WALL (      20 calls)
     g_psi        :      0.00s CPU      0.00s WALL (      14 calls)

     Called by h_psi:
     h_psi:calbec :      0.03s CPU      0.03s WALL (      20 calls)
     vloc_psi     :      1.06s CPU      1.07s WALL (      20 calls)
     add_vuspsi   :      0.04s CPU      0.04s WALL (      20 calls)

     General routines
     calbec       :      0.05s CPU      0.07s WALL (      29 calls)
     fft          :      1.05s CPU      1.07s WALL (      66 calls)
     ffts         :      0.03s CPU      0.03s WALL (      11 calls)
     fftw         :      0.89s CPU      0.89s WALL (     304 calls)
     interpolate  :      0.14s CPU      0.14s WALL (       6 calls)
 
     Parallel routines
 
     Environ routines
 
     PWSCF        :     24.99s CPU     26.88s WALL

 
   This run was terminated on:  20:22:53  22Apr2022            

=------------------------------------------------------------------------------=
   JOB DONE.
=------------------------------------------------------------------------------=

%%%% CELL %%%%%%%%%%%%%%%%%%%%%%%%%%%%%%%%%%%%%%%%%%%%%%%%%%%%%%%%%%%%%%%%%%%%%%

 cell label                 = system         

 cell volume                =    8000.000000

%%%% IONS %%%%%%%%%%%%%%%%%%%%%%%%%%%%%%%%%%%%%%%%%%%%%%%%%%%%%%%%%%%%%%%%%%%%%%

 total charge               =    -30.0000000
 center of charge           =      0.0793278     0.0000003     0.0023500
 dipole                     =      0.0000000     0.0000000     0.0000000
 quadrupole (pc)            =   -131.2025915  -146.7987081    -0.0000315
 quadrupole (gauss)         =   -134.9525915  -150.5487081    -3.7500315

   i | type | coordinates
 -----------------------------------------------------------------------
   1 |    1 |                     -2.4454071     0.0000002     0.0030272
   2 |    2 |                     -1.2331440     2.2473584     0.0020749
   3 |    2 |                      1.3781229     2.2851921     0.0014627
   4 |    2 |                      2.6939354     0.0000002     0.0013189
   5 |    2 |                      1.3781232    -2.2851919     0.0026521
   6 |    2 |                     -1.2331437    -2.2473574     0.0035464
   7 |    3 |                     -2.4127312     3.9381412     0.0017094
   8 |    3 |                      2.3590962     4.0987221     0.0008035
   9 |    3 |                      4.7585861    -0.0000002     0.0000199
  10 |    3 |                      2.3590968    -4.0987217     0.0032074
  11 |    3 |                     -2.4127303    -3.9381403     0.0048805

%%%% SYSTEM %%%%%%%%%%%%%%%%%%%%%%%%%%%%%%%%%%%%%%%%%%%%%%%%%%%%%%%%%%%%%%%%%%%%

 system is built from all present ionic types

 system defined dimension   =              0
 system defined axis        =              3

 system center              =      0.0793278     0.0000003     0.0023500
 system width               =      4.6900820

%%%% IONS %%%%%%%%%%%%%%%%%%%%%%%%%%%%%%%%%%%%%%%%%%%%%%%%%%%%%%%%%%%%%%%%%%%%%%

 total charge               =    -30.0000000
 center of charge           =      0.0793278     0.0000003     0.0023500
 dipole                     =      0.0000000     0.0000000     0.0000000
 quadrupole (pc)            =   -131.2025915  -146.7987081    -0.0000315
 quadrupole (gauss)         =   -134.9525915  -150.5487081    -3.7500315

   i | type | coordinates
 -----------------------------------------------------------------------
   1 |    1 |                     -2.4454071     0.0000002     0.0030272
   2 |    2 |                     -1.2331440     2.2473584     0.0020749
   3 |    2 |                      1.3781229     2.2851921     0.0014627
   4 |    2 |                      2.6939354     0.0000002     0.0013189
   5 |    2 |                      1.3781232    -2.2851919     0.0026521
   6 |    2 |                     -1.2331437    -2.2473574     0.0035464
   7 |    3 |                     -2.4127312     3.9381412     0.0017094
   8 |    3 |                      2.3590962     4.0987221     0.0008035
   9 |    3 |                      4.7585861    -0.0000002     0.0000199
  10 |    3 |                      2.3590968    -4.0987217     0.0032074
  11 |    3 |                     -2.4127303    -3.9381403     0.0048805

%%%% SYSTEM %%%%%%%%%%%%%%%%%%%%%%%%%%%%%%%%%%%%%%%%%%%%%%%%%%%%%%%%%%%%%%%%%%%%

 system is built from all present ionic types

 system defined dimension   =              0
 system defined axis        =              3

 system center              =      0.0793278     0.0000003     0.0023500
 system width               =      4.6900820

%%%% CHARGES %%%%%%%%%%%%%%%%%%%%%%%%%%%%%%%%%%%%%%%%%%%%%%%%%%%%%%%%%%%%%%%%%%%

 total number of charges    =             11

 total charge               =    -30.0000000

%%%% CHARGES %%%%%%%%%%%%%%%%%%%%%%%%%%%%%%%%%%%%%%%%%%%%%%%%%%%%%%%%%%%%%%%%%%%

 total number of charges    =             11

 total charge               =    -30.0000000

%%%% CELL %%%%%%%%%%%%%%%%%%%%%%%%%%%%%%%%%%%%%%%%%%%%%%%%%%%%%%%%%%%%%%%%%%%%%%

 cell label                 = system         

 cell volume                =    8000.000000

%%%% ELECTROLYTE %%%%%%%%%%%%%%%%%%%%%%%%%%%%%%%%%%%%%%%%%%%%%%%%%%%%%%%%%%%%%%%%

 number electrolyte species =              2
 solvent temperature        =          300.0
 Debye length / sqrt(eps)   =      0.2301070

 electrolyte flags:
 linearized                 =              T

 total electrolyte charge   =      0.0000000

 species
 =======

   i |  c_bulk (a.u.) | c_bulk (mol/L) | ionic charge
 ----------------------------------------------------
   1 |     0.7139E-03 |      8.0000000 |        -1.00
   2 |     0.7139E-03 |      8.0000000 |         1.00

%%%% ELECTRONS %%%%%%%%%%%%%%%%%%%%%%%%%%%%%%%%%%%%%%%%%%%%%%%%%%%%%%%%%%%%%%%%%

 number of electrons        =             30

 total electronic charge    =     30.0000000

%%%% ELECTRONS %%%%%%%%%%%%%%%%%%%%%%%%%%%%%%%%%%%%%%%%%%%%%%%%%%%%%%%%%%%%%%%%%

 number of electrons        =             30

 total electronic charge    =     30.0000000

%%%% CHARGES %%%%%%%%%%%%%%%%%%%%%%%%%%%%%%%%%%%%%%%%%%%%%%%%%%%%%%%%%%%%%%%%%%%

 total number of charges    =             41

 total charge               =     -0.0000000

%%%% CHARGES %%%%%%%%%%%%%%%%%%%%%%%%%%%%%%%%%%%%%%%%%%%%%%%%%%%%%%%%%%%%%%%%%%%

 total number of charges    =             41

 total charge               =     -0.0000000

%%%% BOUNDARY %%%%%%%%%%%%%%%%%%%%%%%%%%%%%%%%%%%%%%%%%%%%%%%%%%%%%%%%%%%%%%%%%%

 boundary label             = solvent             
 boundary mode              = electronic          

 using the optimal SCCS function:
 rhomax                     =      0.0050000
 rhomin                     =      0.0001000

 volume of the QM region    =   1645.5958300

 surface of the QM region   =    654.4345041

%%%% BOUNDARY %%%%%%%%%%%%%%%%%%%%%%%%%%%%%%%%%%%%%%%%%%%%%%%%%%%%%%%%%%%%%%%%%%

 boundary label             = electrolyte         
 boundary mode              = electronic          

 using the optimal SCCS function:
 rhomax                     =      0.0007000
 rhomin                     =      0.0000150

 volume of the QM region    =   5096.6193324

 surface of the QM region   =   1077.4268563

%%%% ELECTROLYTE %%%%%%%%%%%%%%%%%%%%%%%%%%%%%%%%%%%%%%%%%%%%%%%%%%%%%%%%%%%%%%%%

 number electrolyte species =              2
 solvent temperature        =          300.0
 Debye length / sqrt(eps)   =      0.2301070

 electrolyte flags:
 linearized                 =              T

 total electrolyte charge   =      0.0000000

 species
 =======

   i |  c_bulk (a.u.) | c_bulk (mol/L) | ionic charge
 ----------------------------------------------------
   1 |     0.7139E-03 |      8.0000000 |        -1.00
   2 |     0.7139E-03 |      8.0000000 |         1.00

%%%% DENSITY %%%%%%%%%%%%%%%%%%%%%%%%%%%%%%%%%%%%%%%%%%%%%%%%%%%%%%%%%%%%%%%%%%%

 density label              = dvtot                                             

 integral of density        =    0.000000000    

%%%% DENSITY %%%%%%%%%%%%%%%%%%%%%%%%%%%%%%%%%%%%%%%%%%%%%%%%%%%%%%%%%%%%%%%%%%%

 density label              = vreference                                        

 integral of density        =    0.000000000    

%%%% DENSITY %%%%%%%%%%%%%%%%%%%%%%%%%%%%%%%%%%%%%%%%%%%%%%%%%%%%%%%%%%%%%%%%%%%

 density label              = velectrostatic                                    

 integral of density        =    0.000000000    

%%%% CHARGES %%%%%%%%%%%%%%%%%%%%%%%%%%%%%%%%%%%%%%%%%%%%%%%%%%%%%%%%%%%%%%%%%%%

 total number of charges    =             41

 total charge               =     -0.0000000

%%%% DENSITY %%%%%%%%%%%%%%%%%%%%%%%%%%%%%%%%%%%%%%%%%%%%%%%%%%%%%%%%%%%%%%%%%%%

 density label              = vsoftcavity                                       

 integral of density        =    0.000000000    

%%%% ELECTRONS %%%%%%%%%%%%%%%%%%%%%%%%%%%%%%%%%%%%%%%%%%%%%%%%%%%%%%%%%%%%%%%%%

 number of electrons        =             30

 total electronic charge    =     30.0000000

%%%% ELECTRONS %%%%%%%%%%%%%%%%%%%%%%%%%%%%%%%%%%%%%%%%%%%%%%%%%%%%%%%%%%%%%%%%%

 number of electrons        =             30

 total electronic charge    =     30.0000000

%%%% CHARGES %%%%%%%%%%%%%%%%%%%%%%%%%%%%%%%%%%%%%%%%%%%%%%%%%%%%%%%%%%%%%%%%%%%

 total number of charges    =             41

 total charge               =      0.0000000

%%%% CHARGES %%%%%%%%%%%%%%%%%%%%%%%%%%%%%%%%%%%%%%%%%%%%%%%%%%%%%%%%%%%%%%%%%%%

 total number of charges    =             41

 total charge               =      0.0000000

%%%% BOUNDARY %%%%%%%%%%%%%%%%%%%%%%%%%%%%%%%%%%%%%%%%%%%%%%%%%%%%%%%%%%%%%%%%%%

 boundary label             = solvent             
 boundary mode              = electronic          

 using the optimal SCCS function:
 rhomax                     =      0.0050000
 rhomin                     =      0.0001000

 volume of the QM region    =    879.4715570

 surface of the QM region   =    466.4431217

%%%% BOUNDARY %%%%%%%%%%%%%%%%%%%%%%%%%%%%%%%%%%%%%%%%%%%%%%%%%%%%%%%%%%%%%%%%%%

 boundary label             = electrolyte         
 boundary mode              = electronic          

 using the optimal SCCS function:
 rhomax                     =      0.0007000
 rhomin                     =      0.0000150

 volume of the QM region    =   2833.4331599

 surface of the QM region   =    867.8164698

%%%% ELECTROLYTE %%%%%%%%%%%%%%%%%%%%%%%%%%%%%%%%%%%%%%%%%%%%%%%%%%%%%%%%%%%%%%%%

 number electrolyte species =              2
 solvent temperature        =          300.0
 Debye length / sqrt(eps)   =      0.2301070

 electrolyte flags:
 linearized                 =              T

 total electrolyte charge   =      0.0000000

 species
 =======

   i |  c_bulk (a.u.) | c_bulk (mol/L) | ionic charge
 ----------------------------------------------------
   1 |     0.7139E-03 |      8.0000000 |        -1.00
   2 |     0.7139E-03 |      8.0000000 |         1.00

%%%% DENSITY %%%%%%%%%%%%%%%%%%%%%%%%%%%%%%%%%%%%%%%%%%%%%%%%%%%%%%%%%%%%%%%%%%%

 density label              = vreference                                        

 integral of density        =  -0.3850088972E-12

%%%% COMPUTE ELECTROSTATIC POTENTIAL %%%%%%%%%%%%%%%%%%%%%%%%%%%%%%%%%%%%%%%%%%%

   i |      alpha     |       pAp      |      rzold     |    delta_qm    |    delta_en    |       tol
 ---------------------------------------------------------------------------------------------------------
   1 |   0.975876E+00 |   0.124176E+03 |   0.121180E+03 |   0.128064E-01 |   0.283398E+03 |   0.100000E-04
   2 |   0.269746E-01 |   0.354148E+04 |   0.955299E+02 |   0.341299E-02 |   0.201286E+02 |   0.100000E-04
   3 |   0.141407E+00 |   0.907797E+01 |   0.128368E+01 |   0.120183E-02 |   0.249592E+01 |   0.100000E-04
   4 |   0.204592E+00 |   0.429265E+00 |   0.878242E-01 |   0.556236E-03 |   0.534641E+00 |   0.100000E-04
   5 |   0.959145E-01 |   0.318746E+00 |   0.305723E-01 |   0.337195E-03 |   0.196474E+00 |   0.100000E-04
   6 |   0.195593E+00 |   0.285633E-01 |   0.558679E-02 |   0.170005E-03 |   0.499420E-01 |   0.100000E-04
   7 |   0.163986E+00 |   0.633235E-02 |   0.103842E-02 |   0.106324E-03 |   0.195348E-01 |   0.100000E-04
   8 |   0.130596E+00 |   0.192608E-02 |   0.251538E-03 |   0.831611E-04 |   0.119505E-01 |   0.100000E-04
   9 |   0.246351E+00 |   0.587136E-03 |   0.144642E-03 |   0.354234E-04 |   0.216833E-02 |   0.100000E-04
  10 |   0.344654E+00 |   0.592439E-04 |   0.204186E-04 |   0.145163E-04 |   0.364128E-03 |   0.100000E-04
  11 |   0.106146E+00 |   0.842054E-04 |   0.893804E-05 |   0.978634E-05 |   0.165495E-03 |   0.100000E-04
  12 |   0.219545E+00 |   0.129640E-04 |   0.284617E-05 |   0.472560E-05 |   0.385885E-04 |   0.100000E-04
  13 |   0.172638E+00 |   0.374646E-05 |   0.646783E-06 |   0.268454E-05 |   0.124533E-04 |   0.100000E-04
  14 |   0.366754E+00 |   0.268910E-06 |   0.986238E-07 |   0.133121E-05 |   0.306222E-05 |   0.100000E-04

 Charges are converged, EXIT

%%%% DENSITY %%%%%%%%%%%%%%%%%%%%%%%%%%%%%%%%%%%%%%%%%%%%%%%%%%%%%%%%%%%%%%%%%%%

 density label              = velectrostatic                                    

 integral of density        =   -280.0091243    

%%%% CHARGES %%%%%%%%%%%%%%%%%%%%%%%%%%%%%%%%%%%%%%%%%%%%%%%%%%%%%%%%%%%%%%%%%%%

 total number of charges    =             41

 total charge               =      0.0000000

%%%% DENSITY %%%%%%%%%%%%%%%%%%%%%%%%%%%%%%%%%%%%%%%%%%%%%%%%%%%%%%%%%%%%%%%%%%%

 density label              = vsoftcavity                                       

 integral of density        =    84.48074826    

%%%% DENSITY %%%%%%%%%%%%%%%%%%%%%%%%%%%%%%%%%%%%%%%%%%%%%%%%%%%%%%%%%%%%%%%%%%%

 density label              = dvtot                                             

 integral of density        =   -195.5283760    

%%%% ELECTRONS %%%%%%%%%%%%%%%%%%%%%%%%%%%%%%%%%%%%%%%%%%%%%%%%%%%%%%%%%%%%%%%%%

 number of electrons        =             30

 total electronic charge    =     30.0000000

%%%% ELECTRONS %%%%%%%%%%%%%%%%%%%%%%%%%%%%%%%%%%%%%%%%%%%%%%%%%%%%%%%%%%%%%%%%%

 number of electrons        =             30

 total electronic charge    =     30.0000000

%%%% CHARGES %%%%%%%%%%%%%%%%%%%%%%%%%%%%%%%%%%%%%%%%%%%%%%%%%%%%%%%%%%%%%%%%%%%

 total number of charges    =             41

 total charge               =      0.0000000

%%%% CHARGES %%%%%%%%%%%%%%%%%%%%%%%%%%%%%%%%%%%%%%%%%%%%%%%%%%%%%%%%%%%%%%%%%%%

 total number of charges    =             41

 total charge               =      0.0000000

%%%% BOUNDARY %%%%%%%%%%%%%%%%%%%%%%%%%%%%%%%%%%%%%%%%%%%%%%%%%%%%%%%%%%%%%%%%%%

 boundary label             = solvent             
 boundary mode              = electronic          

 using the optimal SCCS function:
 rhomax                     =      0.0050000
 rhomin                     =      0.0001000

 volume of the QM region    =    853.0284182

 surface of the QM region   =    461.7569930

%%%% BOUNDARY %%%%%%%%%%%%%%%%%%%%%%%%%%%%%%%%%%%%%%%%%%%%%%%%%%%%%%%%%%%%%%%%%%

 boundary label             = electrolyte         
 boundary mode              = electronic          

 using the optimal SCCS function:
 rhomax                     =      0.0007000
 rhomin                     =      0.0000150

 volume of the QM region    =   1835.7304877

 surface of the QM region   =    719.3847559

%%%% ELECTROLYTE %%%%%%%%%%%%%%%%%%%%%%%%%%%%%%%%%%%%%%%%%%%%%%%%%%%%%%%%%%%%%%%%

 number electrolyte species =              2
 solvent temperature        =          300.0
 Debye length / sqrt(eps)   =      0.2301070

 electrolyte flags:
 linearized                 =              T

 total electrolyte charge   =      0.0003632

 species
 =======

   i |  c_bulk (a.u.) | c_bulk (mol/L) | ionic charge
 ----------------------------------------------------
   1 |     0.7139E-03 |      8.0000000 |        -1.00
   2 |     0.7139E-03 |      8.0000000 |         1.00

%%%% DENSITY %%%%%%%%%%%%%%%%%%%%%%%%%%%%%%%%%%%%%%%%%%%%%%%%%%%%%%%%%%%%%%%%%%%

 density label              = vreference                                        

 integral of density        =  -0.6147510484E-12

%%%% COMPUTE ELECTROSTATIC POTENTIAL %%%%%%%%%%%%%%%%%%%%%%%%%%%%%%%%%%%%%%%%%%%

 Warning: Bad guess with residual norm =   0.215087E+03, reset to no guess

   i |      alpha     |       pAp      |      rzold     |    delta_qm    |    delta_en    |       tol
 ---------------------------------------------------------------------------------------------------------
   1 |   0.985679E+00 |   0.124051E+03 |   0.122275E+03 |   0.110523E-01 |   0.211082E+03 |   0.100000E-04
   2 |   0.222727E-01 |   0.304101E+04 |   0.677315E+02 |   0.323114E-02 |   0.180408E+02 |   0.100000E-04
   3 |   0.930500E-01 |   0.137921E+02 |   0.128335E+01 |   0.171611E-02 |   0.508900E+01 |   0.100000E-04
   4 |   0.105000E+00 |   0.291062E+01 |   0.305616E+00 |   0.836318E-03 |   0.120861E+01 |   0.100000E-04
   5 |   0.161974E+00 |   0.290562E+00 |   0.470633E-01 |   0.339189E-03 |   0.198805E+00 |   0.100000E-04
   6 |   0.197406E+00 |   0.240218E-01 |   0.474204E-02 |   0.174822E-03 |   0.528126E-01 |   0.100000E-04
   7 |   0.181561E+00 |   0.489617E-02 |   0.888954E-03 |   0.110538E-03 |   0.211137E-01 |   0.100000E-04
   8 |   0.292889E+00 |   0.503029E-03 |   0.147332E-03 |   0.638647E-04 |   0.704800E-02 |   0.100000E-04
   9 |   0.926451E-01 |   0.169353E-02 |   0.156897E-03 |   0.410494E-04 |   0.291178E-02 |   0.100000E-04
  10 |   0.254248E+00 |   0.105950E-03 |   0.269374E-04 |   0.200241E-04 |   0.692865E-03 |   0.100000E-04
  11 |   0.169052E+00 |   0.725874E-04 |   0.122710E-04 |   0.100536E-04 |   0.174656E-03 |   0.100000E-04
  12 |   0.316831E+00 |   0.523610E-05 |   0.165896E-05 |   0.425002E-05 |   0.312123E-04 |   0.100000E-04
  13 |   0.186708E+00 |   0.134897E-05 |   0.251863E-06 |   0.309100E-05 |   0.165098E-04 |   0.100000E-04
  14 |   0.111011E+00 |   0.225668E-05 |   0.250517E-06 |   0.214436E-05 |   0.794582E-05 |   0.100000E-04

 Charges are converged, EXIT

%%%% DENSITY %%%%%%%%%%%%%%%%%%%%%%%%%%%%%%%%%%%%%%%%%%%%%%%%%%%%%%%%%%%%%%%%%%%

 density label              = velectrostatic                                    

 integral of density        =   -281.9486219    

%%%% CHARGES %%%%%%%%%%%%%%%%%%%%%%%%%%%%%%%%%%%%%%%%%%%%%%%%%%%%%%%%%%%%%%%%%%%

 total number of charges    =             41

 total charge               =      0.0000000

%%%% DENSITY %%%%%%%%%%%%%%%%%%%%%%%%%%%%%%%%%%%%%%%%%%%%%%%%%%%%%%%%%%%%%%%%%%%

 density label              = vsoftcavity                                       

 integral of density        =    58.83066408    

%%%% DENSITY %%%%%%%%%%%%%%%%%%%%%%%%%%%%%%%%%%%%%%%%%%%%%%%%%%%%%%%%%%%%%%%%%%%

 density label              = dvtot                                             

 integral of density        =   -223.1179578    

%%%% ELECTRONS %%%%%%%%%%%%%%%%%%%%%%%%%%%%%%%%%%%%%%%%%%%%%%%%%%%%%%%%%%%%%%%%%

 number of electrons        =             30

 total electronic charge    =     30.0000000

%%%% ELECTRONS %%%%%%%%%%%%%%%%%%%%%%%%%%%%%%%%%%%%%%%%%%%%%%%%%%%%%%%%%%%%%%%%%

 number of electrons        =             30

 total electronic charge    =     30.0000000

%%%% CHARGES %%%%%%%%%%%%%%%%%%%%%%%%%%%%%%%%%%%%%%%%%%%%%%%%%%%%%%%%%%%%%%%%%%%

 total number of charges    =             41

 total charge               =      0.0000000

%%%% CHARGES %%%%%%%%%%%%%%%%%%%%%%%%%%%%%%%%%%%%%%%%%%%%%%%%%%%%%%%%%%%%%%%%%%%

 total number of charges    =             41

 total charge               =      0.0000000

%%%% BOUNDARY %%%%%%%%%%%%%%%%%%%%%%%%%%%%%%%%%%%%%%%%%%%%%%%%%%%%%%%%%%%%%%%%%%

 boundary label             = solvent             
 boundary mode              = electronic          

 using the optimal SCCS function:
 rhomax                     =      0.0050000
 rhomin                     =      0.0001000

 volume of the QM region    =    840.3819573

 surface of the QM region   =    459.8872693

%%%% BOUNDARY %%%%%%%%%%%%%%%%%%%%%%%%%%%%%%%%%%%%%%%%%%%%%%%%%%%%%%%%%%%%%%%%%%

 boundary label             = electrolyte         
 boundary mode              = electronic          

 using the optimal SCCS function:
 rhomax                     =      0.0007000
 rhomin                     =      0.0000150

 volume of the QM region    =   1475.4748921

 surface of the QM region   =    648.8118779

%%%% ELECTROLYTE %%%%%%%%%%%%%%%%%%%%%%%%%%%%%%%%%%%%%%%%%%%%%%%%%%%%%%%%%%%%%%%%

 number electrolyte species =              2
 solvent temperature        =          300.0
 Debye length / sqrt(eps)   =      0.2301070

 electrolyte flags:
 linearized                 =              T

 total electrolyte charge   =      0.0006720

 species
 =======

   i |  c_bulk (a.u.) | c_bulk (mol/L) | ionic charge
 ----------------------------------------------------
   1 |     0.7139E-03 |      8.0000000 |        -1.00
   2 |     0.7139E-03 |      8.0000000 |         1.00

%%%% DENSITY %%%%%%%%%%%%%%%%%%%%%%%%%%%%%%%%%%%%%%%%%%%%%%%%%%%%%%%%%%%%%%%%%%%

 density label              = vreference                                        

 integral of density        =   0.2119785828E-12

%%%% COMPUTE ELECTROSTATIC POTENTIAL %%%%%%%%%%%%%%%%%%%%%%%%%%%%%%%%%%%%%%%%%%%

 Warning: Bad guess with residual norm =   0.166219E+03, reset to no guess

   i |      alpha     |       pAp      |      rzold     |    delta_qm    |    delta_en    |       tol
 ---------------------------------------------------------------------------------------------------------
   1 |   0.990349E+00 |   0.123782E+03 |   0.122587E+03 |   0.974181E-02 |   0.163992E+03 |   0.100000E-04
   2 |   0.207566E-01 |   0.230950E+04 |   0.479372E+02 |   0.308124E-02 |   0.164057E+02 |   0.100000E-04
   3 |   0.886406E-01 |   0.118701E+02 |   0.105218E+01 |   0.161615E-02 |   0.451341E+01 |   0.100000E-04
   4 |   0.104870E+00 |   0.240185E+01 |   0.251883E+00 |   0.841763E-03 |   0.122440E+01 |   0.100000E-04
   5 |   0.153606E+00 |   0.312472E+00 |   0.479977E-01 |   0.347336E-03 |   0.208470E+00 |   0.100000E-04
   6 |   0.194199E+00 |   0.247432E-01 |   0.480512E-02 |   0.173121E-03 |   0.517895E-01 |   0.100000E-04
   7 |   0.183962E+00 |   0.414889E-02 |   0.763238E-03 |   0.115003E-03 |   0.228542E-01 |   0.100000E-04
   8 |   0.350679E+00 |   0.433788E-03 |   0.152120E-03 |   0.510851E-04 |   0.450953E-02 |   0.100000E-04
   9 |   0.184765E+00 |   0.200588E-03 |   0.370616E-04 |   0.337296E-04 |   0.196592E-02 |   0.100000E-04
  10 |   0.123019E+00 |   0.307445E-03 |   0.378217E-04 |   0.180173E-04 |   0.560950E-03 |   0.100000E-04
  11 |   0.139215E+00 |   0.662878E-04 |   0.922824E-05 |   0.112559E-04 |   0.218930E-03 |   0.100000E-04
  12 |   0.280158E+00 |   0.717855E-05 |   0.201113E-05 |   0.483440E-05 |   0.403859E-04 |   0.100000E-04
  13 |   0.313551E+00 |   0.774572E-06 |   0.242868E-06 |   0.282562E-05 |   0.137966E-04 |   0.100000E-04
  14 |   0.445812E-01 |   0.251863E-05 |   0.112283E-06 |   0.276102E-05 |   0.131729E-04 |   0.100000E-04
  15 |   0.993917E-01 |   0.101881E-05 |   0.101261E-06 |   0.202794E-05 |   0.710649E-05 |   0.100000E-04

 Charges are converged, EXIT

%%%% DENSITY %%%%%%%%%%%%%%%%%%%%%%%%%%%%%%%%%%%%%%%%%%%%%%%%%%%%%%%%%%%%%%%%%%%

 density label              = velectrostatic                                    

 integral of density        =   -275.6609637    

%%%% CHARGES %%%%%%%%%%%%%%%%%%%%%%%%%%%%%%%%%%%%%%%%%%%%%%%%%%%%%%%%%%%%%%%%%%%

 total number of charges    =             41

 total charge               =      0.0000000

%%%% DENSITY %%%%%%%%%%%%%%%%%%%%%%%%%%%%%%%%%%%%%%%%%%%%%%%%%%%%%%%%%%%%%%%%%%%

 density label              = vsoftcavity                                       

 integral of density        =    29.35892355    

%%%% DENSITY %%%%%%%%%%%%%%%%%%%%%%%%%%%%%%%%%%%%%%%%%%%%%%%%%%%%%%%%%%%%%%%%%%%

 density label              = dvtot                                             

 integral of density        =   -246.3020401    

%%%% ELECTRONS %%%%%%%%%%%%%%%%%%%%%%%%%%%%%%%%%%%%%%%%%%%%%%%%%%%%%%%%%%%%%%%%%

 number of electrons        =             30

 total electronic charge    =     30.0000000

%%%% ELECTRONS %%%%%%%%%%%%%%%%%%%%%%%%%%%%%%%%%%%%%%%%%%%%%%%%%%%%%%%%%%%%%%%%%

 number of electrons        =             30

 total electronic charge    =     30.0000000

%%%% CHARGES %%%%%%%%%%%%%%%%%%%%%%%%%%%%%%%%%%%%%%%%%%%%%%%%%%%%%%%%%%%%%%%%%%%

 total number of charges    =             41

 total charge               =     -0.0000000

%%%% CHARGES %%%%%%%%%%%%%%%%%%%%%%%%%%%%%%%%%%%%%%%%%%%%%%%%%%%%%%%%%%%%%%%%%%%

 total number of charges    =             41

 total charge               =     -0.0000000

%%%% BOUNDARY %%%%%%%%%%%%%%%%%%%%%%%%%%%%%%%%%%%%%%%%%%%%%%%%%%%%%%%%%%%%%%%%%%

 boundary label             = solvent             
 boundary mode              = electronic          

 using the optimal SCCS function:
 rhomax                     =      0.0050000
 rhomin                     =      0.0001000

 volume of the QM region    =    838.4375559

 surface of the QM region   =    460.3009799

%%%% BOUNDARY %%%%%%%%%%%%%%%%%%%%%%%%%%%%%%%%%%%%%%%%%%%%%%%%%%%%%%%%%%%%%%%%%%

 boundary label             = electrolyte         
 boundary mode              = electronic          

 using the optimal SCCS function:
 rhomax                     =      0.0007000
 rhomin                     =      0.0000150

 volume of the QM region    =   1403.6877101

 surface of the QM region   =    631.2190506

%%%% ELECTROLYTE %%%%%%%%%%%%%%%%%%%%%%%%%%%%%%%%%%%%%%%%%%%%%%%%%%%%%%%%%%%%%%%%

 number electrolyte species =              2
 solvent temperature        =          300.0
 Debye length / sqrt(eps)   =      0.2301070

 electrolyte flags:
 linearized                 =              T

 total electrolyte charge   =      0.0011835

 species
 =======

   i |  c_bulk (a.u.) | c_bulk (mol/L) | ionic charge
 ----------------------------------------------------
   1 |     0.7139E-03 |      8.0000000 |        -1.00
   2 |     0.7139E-03 |      8.0000000 |         1.00

%%%% DENSITY %%%%%%%%%%%%%%%%%%%%%%%%%%%%%%%%%%%%%%%%%%%%%%%%%%%%%%%%%%%%%%%%%%%

 density label              = vreference                                        

 integral of density        =  -0.2861908241E-12

%%%% COMPUTE ELECTROSTATIC POTENTIAL %%%%%%%%%%%%%%%%%%%%%%%%%%%%%%%%%%%%%%%%%%%

 Warning: Bad guess with residual norm =   0.146982E+03, reset to no guess

   i |      alpha     |       pAp      |      rzold     |    delta_qm    |    delta_en    |       tol
 ---------------------------------------------------------------------------------------------------------
   1 |   0.991829E+00 |   0.123713E+03 |   0.122702E+03 |   0.916930E-02 |   0.145284E+03 |   0.100000E-04
   2 |   0.205729E-01 |   0.193146E+04 |   0.397356E+02 |   0.316971E-02 |   0.173613E+02 |   0.100000E-04
   3 |   0.819918E-01 |   0.138383E+02 |   0.113462E+01 |   0.166606E-02 |   0.479650E+01 |   0.100000E-04
   4 |   0.110221E+00 |   0.233006E+01 |   0.256820E+00 |   0.842894E-03 |   0.122769E+01 |   0.100000E-04
   5 |   0.151317E+00 |   0.317214E+00 |   0.479998E-01 |   0.352358E-03 |   0.214541E+00 |   0.100000E-04
   6 |   0.199914E+00 |   0.234527E-01 |   0.468852E-02 |   0.170925E-03 |   0.504840E-01 |   0.100000E-04
   7 |   0.184447E+00 |   0.376207E-02 |   0.693901E-03 |   0.117074E-03 |   0.236847E-01 |   0.100000E-04
   8 |   0.334499E+00 |   0.476043E-03 |   0.159236E-03 |   0.519121E-04 |   0.465673E-02 |   0.100000E-04
   9 |   0.201422E+00 |   0.174200E-03 |   0.350876E-04 |   0.335194E-04 |   0.194150E-02 |   0.100000E-04
  10 |   0.114057E+00 |   0.356077E-03 |   0.406130E-04 |   0.175911E-04 |   0.534726E-03 |   0.100000E-04
  11 |   0.149559E+00 |   0.492287E-04 |   0.736259E-05 |   0.114679E-04 |   0.227253E-03 |   0.100000E-04
  12 |   0.254939E+00 |   0.842463E-05 |   0.214777E-05 |   0.514107E-05 |   0.456721E-04 |   0.100000E-04
  13 |   0.313935E+00 |   0.800843E-06 |   0.251413E-06 |   0.311698E-05 |   0.167885E-04 |   0.100000E-04
  14 |   0.117746E+00 |   0.664089E-06 |   0.781938E-07 |   0.277021E-05 |   0.132608E-04 |   0.100000E-04
  15 |   0.479798E-01 |   0.334484E-05 |   0.160485E-06 |   0.208913E-05 |   0.754178E-05 |   0.100000E-04

 Charges are converged, EXIT

%%%% DENSITY %%%%%%%%%%%%%%%%%%%%%%%%%%%%%%%%%%%%%%%%%%%%%%%%%%%%%%%%%%%%%%%%%%%

 density label              = velectrostatic                                    

 integral of density        =   -273.7976765    

%%%% CHARGES %%%%%%%%%%%%%%%%%%%%%%%%%%%%%%%%%%%%%%%%%%%%%%%%%%%%%%%%%%%%%%%%%%%

 total number of charges    =             41

 total charge               =     -0.0000000

%%%% DENSITY %%%%%%%%%%%%%%%%%%%%%%%%%%%%%%%%%%%%%%%%%%%%%%%%%%%%%%%%%%%%%%%%%%%

 density label              = vsoftcavity                                       

 integral of density        =    22.25651108    

%%%% DENSITY %%%%%%%%%%%%%%%%%%%%%%%%%%%%%%%%%%%%%%%%%%%%%%%%%%%%%%%%%%%%%%%%%%%

 density label              = dvtot                                             

 integral of density        =   -251.5411654    

%%%% ELECTRONS %%%%%%%%%%%%%%%%%%%%%%%%%%%%%%%%%%%%%%%%%%%%%%%%%%%%%%%%%%%%%%%%%

 number of electrons        =             30

 total electronic charge    =     30.0000000

%%%% ELECTRONS %%%%%%%%%%%%%%%%%%%%%%%%%%%%%%%%%%%%%%%%%%%%%%%%%%%%%%%%%%%%%%%%%

 number of electrons        =             30

 total electronic charge    =     30.0000000

%%%% CHARGES %%%%%%%%%%%%%%%%%%%%%%%%%%%%%%%%%%%%%%%%%%%%%%%%%%%%%%%%%%%%%%%%%%%

 total number of charges    =             41

 total charge               =     -0.0000000

%%%% CHARGES %%%%%%%%%%%%%%%%%%%%%%%%%%%%%%%%%%%%%%%%%%%%%%%%%%%%%%%%%%%%%%%%%%%

 total number of charges    =             41

 total charge               =     -0.0000000

%%%% BOUNDARY %%%%%%%%%%%%%%%%%%%%%%%%%%%%%%%%%%%%%%%%%%%%%%%%%%%%%%%%%%%%%%%%%%

 boundary label             = solvent             
 boundary mode              = electronic          

 using the optimal SCCS function:
 rhomax                     =      0.0050000
 rhomin                     =      0.0001000

 volume of the QM region    =    838.4375559

 surface of the QM region   =    460.3009799

%%%% BOUNDARY %%%%%%%%%%%%%%%%%%%%%%%%%%%%%%%%%%%%%%%%%%%%%%%%%%%%%%%%%%%%%%%%%%

 boundary label             = electrolyte         
 boundary mode              = electronic          

 using the optimal SCCS function:
 rhomax                     =      0.0007000
 rhomin                     =      0.0000150

 volume of the QM region    =   1403.6877101

 surface of the QM region   =    631.2190506

%%%% ELECTROLYTE %%%%%%%%%%%%%%%%%%%%%%%%%%%%%%%%%%%%%%%%%%%%%%%%%%%%%%%%%%%%%%%%

 number electrolyte species =              2
 solvent temperature        =          300.0
 Debye length / sqrt(eps)   =      0.2301070

 electrolyte flags:
 linearized                 =              T

 total electrolyte charge   =      0.0016168

 species
 =======

   i |  c_bulk (a.u.) | c_bulk (mol/L) | ionic charge
 ----------------------------------------------------
   1 |     0.7139E-03 |      8.0000000 |        -1.00
   2 |     0.7139E-03 |      8.0000000 |         1.00

%%%% DENSITY %%%%%%%%%%%%%%%%%%%%%%%%%%%%%%%%%%%%%%%%%%%%%%%%%%%%%%%%%%%%%%%%%%%

 density label              = dvtot                                             

 integral of density        =   -251.5411654    

%%%% DENSITY %%%%%%%%%%%%%%%%%%%%%%%%%%%%%%%%%%%%%%%%%%%%%%%%%%%%%%%%%%%%%%%%%%%

 density label              = vreference                                        

 integral of density        =  -0.2861908241E-12

%%%% DENSITY %%%%%%%%%%%%%%%%%%%%%%%%%%%%%%%%%%%%%%%%%%%%%%%%%%%%%%%%%%%%%%%%%%%

 density label              = velectrostatic                                    

 integral of density        =   -273.7976765    

%%%% CHARGES %%%%%%%%%%%%%%%%%%%%%%%%%%%%%%%%%%%%%%%%%%%%%%%%%%%%%%%%%%%%%%%%%%%

 total number of charges    =             41

 total charge               =     -0.0000000

%%%% DENSITY %%%%%%%%%%%%%%%%%%%%%%%%%%%%%%%%%%%%%%%%%%%%%%%%%%%%%%%%%%%%%%%%%%%

 density label              = vsoftcavity                                       

 integral of density        =    22.25651108    
