
     Program PWSCF v.6.1 (svn rev. 13369) starts on  1Feb2018 at 12:23:20 

     This program is part of the open-source Quantum ESPRESSO suite
     for quantum simulation of materials; please cite
         "P. Giannozzi et al., J. Phys.:Condens. Matter 21 395502 (2009);
          URL http://www.quantum-espresso.org", 
     in publications or presentations arising from this work. More details at
     http://www.quantum-espresso.org/quote

     Parallel version (MPI), running on     1 processors
     Reading input from pw.in

     Current dimensions of program PWSCF are:
     Max number of different atomic species (ntypx) = 10
     Max number of k-points (npk) =  40000
     Max angular momentum in pseudopotentials (lmaxx) =  3
               file N.pbe-rrkjus.UPF: wavefunction(s)  2S renormalized
               file C.pbe-rrkjus.UPF: wavefunction(s)  2S 2P renormalized
               file H.pbe-rrkjus.UPF: wavefunction(s)  1S renormalized

     gamma-point specific algorithms are used

     Subspace diagonalization in iterative solution of the eigenvalue problem:
     a serial algorithm will be used

 
     G-vector sticks info
     --------------------
     sticks:   dense  smooth     PW     G-vecs:    dense   smooth      PW
     Sum        9549    3809    949               701475   177509   22119
 


     bravais-lattice index     =            1
     lattice parameter (alat)  =      20.0000  a.u.
     unit-cell volume          =    8000.0000 (a.u.)^3
     number of atoms/cell      =           11
     number of atomic types    =            3
     number of electrons       =        30.00
     number of Kohn-Sham states=           15
     kinetic-energy cutoff     =      30.0000  Ry
     charge density cutoff     =     300.0000  Ry
     convergence threshold     =      5.0E-04
     mixing beta               =       0.7000
     number of iterations used =            8  plain     mixing
     Exchange-correlation      =  SLA  PW   PBE  PBE ( 1  4  3  4 0 0)
 

     Environ Module
     ==============

     Plese cite
         O. Andreussi, I. Dabo and N. Marzari, J. Chem. Phys. 136, 064102 (2012)         
     in publications or presentations arising from this work.

     compensation onset threshold      =               0.1000E+03 
     static permittivity               =                    20.00 
     epsilon calculation mode          =               electronic 

     Electrostatic Setup
     -------------------
     electrostatic problem to solve    = linpb                    
     numerical solver adopted          = cg                       
     type of auxiliary density adopted = none                     
     type of core tool for poisson     = fft                      
     type of core tool for s(r) deriv  = analytic                 



     celldm(1)=  20.000000  celldm(2)=   0.000000  celldm(3)=   0.000000
     celldm(4)=   0.000000  celldm(5)=   0.000000  celldm(6)=   0.000000

     crystal axes: (cart. coord. in units of alat)
               a(1) = (   1.000000   0.000000   0.000000 )  
               a(2) = (   0.000000   1.000000   0.000000 )  
               a(3) = (   0.000000   0.000000   1.000000 )  

     reciprocal axes: (cart. coord. in units 2 pi/alat)
               b(1) = (  1.000000  0.000000  0.000000 )  
               b(2) = (  0.000000  1.000000  0.000000 )  
               b(3) = (  0.000000  0.000000  1.000000 )  


     PseudoPot. # 1 for N  read from file:
     /home/fnattino/Programs/qe-6.1/Environ/tests/../..//pseudo/N.pbe-rrkjus.UPF
     MD5 check sum: 0c3fbe5807a93f9ba59d5a7019aa238b
     Pseudo is Ultrasoft, Zval =  5.0
     Generated by new atomic code, or converted to UPF format
     Using radial grid of 1257 points,  4 beta functions with: 
                l(1) =   0
                l(2) =   0
                l(3) =   1
                l(4) =   1
     Q(r) pseudized with 0 coefficients 


     PseudoPot. # 2 for C  read from file:
     /home/fnattino/Programs/qe-6.1/Environ/tests/../..//pseudo/C.pbe-rrkjus.UPF
     MD5 check sum: 00fb224312de0c5b6853bd333518df6f
     Pseudo is Ultrasoft, Zval =  4.0
     Generated by new atomic code, or converted to UPF format
     Using radial grid of  627 points,  4 beta functions with: 
                l(1) =   0
                l(2) =   0
                l(3) =   1
                l(4) =   1
     Q(r) pseudized with 0 coefficients 


     PseudoPot. # 3 for H  read from file:
     /home/fnattino/Programs/qe-6.1/Environ/tests/../..//pseudo/H.pbe-rrkjus.UPF
     MD5 check sum: 7cc9d459525c9a0585f487a71c3c9563
     Pseudo is Ultrasoft, Zval =  1.0
     Generated by new atomic code, or converted to UPF format
     Using radial grid of 1061 points,  2 beta functions with: 
                l(1) =   0
                l(2) =   0
     Q(r) pseudized with 0 coefficients 


     atomic species   valence    mass     pseudopotential
        N              5.00    14.00000     N ( 1.00)
        C              4.00    12.00000     C ( 1.00)
        H              1.00     1.00000     H ( 1.00)

     No symmetry found



   Cartesian axes

     site n.     atom                  positions (alat units)
         1           N   tau(   1) = (  -0.1222704   0.0000000   0.0001514  )
         2           C   tau(   2) = (  -0.0616572   0.1123679   0.0001037  )
         3           C   tau(   3) = (   0.0689061   0.1142596   0.0000731  )
         4           C   tau(   4) = (   0.1346968   0.0000000   0.0000659  )
         5           C   tau(   5) = (   0.0689062  -0.1142596   0.0001326  )
         6           C   tau(   6) = (  -0.0616572  -0.1123679   0.0001773  )
         7           H   tau(   7) = (  -0.1206366   0.1969071   0.0000855  )
         8           H   tau(   8) = (   0.1179548   0.2049361   0.0000402  )
         9           H   tau(   9) = (   0.2379293  -0.0000000   0.0000010  )
        10           H   tau(  10) = (   0.1179548  -0.2049361   0.0001604  )
        11           H   tau(  11) = (  -0.1206365  -0.1969070   0.0002440  )

     number of k points=     1
                       cart. coord. in units 2pi/alat
        k(    1) = (   0.0000000   0.0000000   0.0000000), wk =   2.0000000

     Dense  grid:   350738 G-vectors     FFT dimensions: ( 120, 120, 120)

     Smooth grid:    88755 G-vectors     FFT dimensions: (  72,  72,  72)

     Estimated max dynamical RAM per process >     300.59MB

     Initial potential from superposition of free atoms
     Check: negative starting charge=   -0.000446

     starting charge   29.51871, renormalised to   30.00000

     negative rho (up, down):  4.533E-04 0.000E+00
     Starting wfc are   29 randomized atomic wfcs

     total cpu time spent up to now is        4.3 secs

     per-process dynamical memory:   873.1 Mb

     Self-consistent Calculation

     iteration #  1     ecut=    30.00 Ry     beta=0.70
     Davidson diagonalization with overlap
     ethr =  1.00E-02,  avg # of iterations =  2.0

     negative rho (up, down):  1.360E-04 0.000E+00

     add environment contribution to local potential
     polarization accuracy = 8.1E-06, # of iterations =  13

     total cpu time spent up to now is        9.9 secs

     total energy              =     -82.24212427 Ry
     Harris-Foulkes estimate   =     -83.63778213 Ry
     estimated scf accuracy    <       2.07062237 Ry
     electrostatic embedding   =       0.00000000 Ry
     electrolyte free energy   =       0.01609534 Ry
     correction to one-el term =       0.00000000 Ry

     iteration #  2     ecut=    30.00 Ry     beta=0.70
     Davidson diagonalization with overlap
     ethr =  6.90E-03,  avg # of iterations =  3.0

     negative rho (up, down):  1.552E-04 0.000E+00

     add environment contribution to local potential
     polarization accuracy = 2.7E-06, # of iterations =  16

     total cpu time spent up to now is       16.0 secs

     total energy              =     -82.44656699 Ry
     Harris-Foulkes estimate   =     -82.81939294 Ry
     estimated scf accuracy    <       0.49833363 Ry
     electrostatic embedding   =      -0.02763098 Ry
     electrolyte free energy   =       0.01048040 Ry
     correction to one-el term =       0.06929435 Ry

     iteration #  3     ecut=    30.00 Ry     beta=0.70
     Davidson diagonalization with overlap
     ethr =  1.66E-03,  avg # of iterations =  4.0

     negative rho (up, down):  1.955E-04 0.000E+00

     add environment contribution to local potential
     polarization accuracy = 5.0E-06, # of iterations =  16

     total cpu time spent up to now is       22.1 secs

     total energy              =     -82.59348835 Ry
     Harris-Foulkes estimate   =     -83.25969096 Ry
     estimated scf accuracy    <       0.20655455 Ry
     electrostatic embedding   =      -0.02435293 Ry
     electrolyte free energy   =       0.00698445 Ry
     correction to one-el term =       0.58161470 Ry

     iteration #  4     ecut=    30.00 Ry     beta=0.70
     Davidson diagonalization with overlap
     ethr =  6.89E-04,  avg # of iterations =  4.0

     negative rho (up, down):  5.024E-05 0.000E+00

     add environment contribution to local potential
     polarization accuracy = 7.2E-06, # of iterations =  16

     total cpu time spent up to now is       28.0 secs

     total energy              =     -82.64359852 Ry
     Harris-Foulkes estimate   =     -83.44805444 Ry
     estimated scf accuracy    <       0.00853935 Ry
     electrostatic embedding   =      -0.01658382 Ry
     electrolyte free energy   =       0.00490522 Ry
     correction to one-el term =       0.81191537 Ry

     iteration #  5     ecut=    30.00 Ry     beta=0.70
     Davidson diagonalization with overlap
     ethr =  2.85E-05,  avg # of iterations =  4.0

     negative rho (up, down):  5.283E-05 0.000E+00

     add environment contribution to local potential
     polarization accuracy = 9.4E-06, # of iterations =  15

     total cpu time spent up to now is       33.7 secs

     total energy              =     -82.64626006 Ry
     Harris-Foulkes estimate   =     -83.60546123 Ry
     estimated scf accuracy    <       0.00114227 Ry
     electrostatic embedding   =      -0.01813241 Ry
     electrolyte free energy   =       0.00427885 Ry
     correction to one-el term =       0.97261475 Ry

     iteration #  6     ecut=    30.00 Ry     beta=0.70
     Davidson diagonalization with overlap
     ethr =  3.81E-06,  avg # of iterations =  3.0

     negative rho (up, down):  1.399E-04 0.000E+00

     total cpu time spent up to now is       36.0 secs

     End of self-consistent calculation

          k = 0.0000 0.0000 0.0000 ( 11060 PWs)   bands (ev):

   -23.2526 -19.6368 -18.8571 -15.3854 -15.2770 -12.8033 -11.6476 -11.1982
   -10.4395  -9.7796  -9.4587  -8.6848  -7.0459  -6.6428  -5.5803

     highest occupied level (ev):    -5.5803

!    total energy              =     -82.64650942 Ry
     Harris-Foulkes estimate   =     -83.64877590 Ry
     estimated scf accuracy    <       0.00009168 Ry

     The total energy is the sum of the following terms:

     one-electron contribution =    -292.45827065 Ry
     hartree contribution      =     149.42703118 Ry
     xc contribution           =     -25.97494718 Ry
     ewald contribution        =      85.35745671 Ry
     electrostatic embedding   =      -0.01804168 Ry
     electrolyte free energy   =       0.00415366 Ry
     correction to one-el term =       1.01610854 Ry

     convergence has been achieved in   6 iterations

     Forces acting on atoms (cartesian axes, Ry/au):

     atom    1 type  1   force =    -0.04652589    0.00000397    0.00000313
     atom    2 type  2   force =    -0.00612839   -0.06238681    0.00002568
     atom    3 type  2   force =     0.02094564    0.01704110   -0.00004645
     atom    4 type  2   force =     0.00624715   -0.00000206    0.00000523
     atom    5 type  2   force =     0.02095300   -0.01702857    0.00000608
     atom    6 type  2   force =    -0.00614450    0.06238943    0.00001123
     atom    7 type  3   force =     0.00205406    0.00189753    0.00000948
     atom    8 type  3   force =     0.00530881   -0.00374340   -0.00000780
     atom    9 type  3   force =    -0.00407589    0.00000160    0.00002965
     atom   10 type  3   force =     0.00531671    0.00372812   -0.00002445
     atom   11 type  3   force =     0.00204932   -0.00190091   -0.00001179

     Total force =     0.107881     Total SCF correction =     0.015662
     SCF correction compared to forces is large: reduce conv_thr to get better values

     Writing output data file pwscf.save
 
     init_run     :      4.01s CPU      4.23s WALL (       1 calls)
     electrons    :     30.50s CPU     31.76s WALL (       1 calls)
     forces       :      0.75s CPU      0.80s WALL (       1 calls)

     Called by init_run:
     wfcinit      :      0.12s CPU      0.13s WALL (       1 calls)
     potinit      :      2.04s CPU      2.08s WALL (       1 calls)

     Called by electrons:
     c_bands      :      1.30s CPU      1.32s WALL (       6 calls)
     sum_band     :      2.31s CPU      2.54s WALL (       6 calls)
     v_of_rho     :      3.62s CPU      3.78s WALL (       7 calls)
     newd         :      1.29s CPU      1.48s WALL (       7 calls)
     mix_rho      :      0.32s CPU      0.32s WALL (       6 calls)

     Called by c_bands:
     init_us_2    :      0.05s CPU      0.05s WALL (      13 calls)
     regterg      :      1.20s CPU      1.22s WALL (       6 calls)

     Called by sum_band:
     sum_band:bec :      0.00s CPU      0.00s WALL (       6 calls)
     addusdens    :      1.53s CPU      1.76s WALL (       6 calls)

     Called by *egterg:
     h_psi        :      1.16s CPU      1.16s WALL (      27 calls)
     s_psi        :      0.02s CPU      0.03s WALL (      27 calls)
     g_psi        :      0.00s CPU      0.01s WALL (      20 calls)
     rdiaghg      :      0.02s CPU      0.01s WALL (      26 calls)

     Called by h_psi:
     h_psi:pot    :      1.15s CPU      1.15s WALL (      27 calls)
     h_psi:calbec :      0.02s CPU      0.05s WALL (      27 calls)
     vloc_psi     :      1.08s CPU      1.07s WALL (      27 calls)
     add_vuspsi   :      0.05s CPU      0.04s WALL (      27 calls)

     General routines
     calbec       :      0.04s CPU      0.07s WALL (      37 calls)
     fft          :      8.40s CPU      8.91s WALL (     405 calls)
     ffts         :      0.04s CPU      0.04s WALL (      13 calls)
     fftw         :      0.84s CPU      0.83s WALL (     364 calls)
     interpolate  :      0.40s CPU      0.42s WALL (      13 calls)
     davcio       :      0.00s CPU      0.00s WALL (       1 calls)
 
     Parallel routines
     fft_scatter  :      2.32s CPU      2.53s WALL (     782 calls)
 
     Environ routines
     calc_eelect  :      0.03s CPU      0.03s WALL (      12 calls)
     calc_velect  :     14.80s CPU     15.26s WALL (      10 calls)
     dielectric   :      0.37s CPU      0.37s WALL (       8 calls)
     electrolyte  :      0.03s CPU      0.03s WALL (       8 calls)
     calc_felect  :      0.17s CPU      0.17s WALL (       1 calls)
 
     PWSCF        :    35.42s CPU        36.95s WALL

 
   This run was terminated on:  12:23:57   1Feb2018            

=------------------------------------------------------------------------------=
   JOB DONE.
=------------------------------------------------------------------------------=

%%%% IONS %%%%%%%%%%%%%%%%%%%%%%%%%%%%%%%%%%%%%%%%%%%%%%%%%%%%%%%%%%%%%%%%%%%%%%
 number of ions             =         11
 ionic center of charge     =      0.0072664     0.0000000     0.0001166
 total ionic charge         =    -30.0000000
 ionic dipole               =      0.0000000     0.0000000     0.0000000
 ionic quadrupole (pc)      =   -131.0719095  -146.7987094    -0.0000314
 ionic quadrupole (gauss)   =   -134.8219095  -150.5487094    -3.7500314
 ion   1 type =  1 coordinates =     -2.4454071     0.0000002     0.0030272
 ion   2 type =  2 coordinates =     -1.2331440     2.2473584     0.0020749
 ion   3 type =  2 coordinates =      1.3781229     2.2851921     0.0014627
 ion   4 type =  2 coordinates =      2.6939354     0.0000002     0.0013189
 ion   5 type =  2 coordinates =      1.3781232    -2.2851919     0.0026521
 ion   6 type =  2 coordinates =     -1.2331437    -2.2473574     0.0035464
 ion   7 type =  3 coordinates =     -2.4127312     3.9381412     0.0017094
 ion   8 type =  3 coordinates =      2.3590962     4.0987221     0.0008035
 ion   9 type =  3 coordinates =      4.7585861    -0.0000002     0.0000199
 ion  10 type =  3 coordinates =      2.3590968    -4.0987217     0.0032074
 ion  11 type =  3 coordinates =     -2.4127303    -3.9381403     0.0048805

%%%% SYSTEM %%%%%%%%%%%%%%%%%%%%%%%%%%%%%%%%%%%%%%%%%%%%%%%%%%%%%%%%%%%%%%%%%%%%
 system is built from all present ionic types
 system defined dimension   =  0 
 system defined axis        =  3 
 system center              =      0.0072664     0.0000000     0.0001166 
 system width               =      0.2348011 

%%%% ELECTRONS %%%%%%%%%%%%%%%%%%%%%%%%%%%%%%%%%%%%%%%%%%%%%%%%%%%%%%%%%%%%%%%%%
 number of electrons        =         30
 total electronic charge    =     30.0000000
 number of spin components  =  1

%%%% BOUNDARY %%%%%%%%%%%%%%%%%%%%%%%%%%%%%%%%%%%%%%%%%%%%%%%%%%%%%%%%%%%%%%%%%%
 boundary mode              = electronic           
 boundary is built as a function of a smooth density
 function type              =  2 
 using the modified SCCS function with parameters 
 rhomax                     =      0.0050000 
 rhomin                     =      0.0001000 
 volume of the QM region    =   2407.1059985 
 surface of the QM region   =    815.5587051 

%%%% DIELECTRIC %%%%%%%%%%%%%%%%%%%%%%%%%%%%%%%%%%%%%%%%%%%%%%%%%%%%%%%%%%%%%%%%%
 dielectric build on homogeneous background
 environment bulk permitt.  =     20.0000000 
 dielectric flags
 need gradient              =  F 
 need factor depend. sqrt   =  T 
 total dielectric charge    =      0.0000000

%%%% BOUNDARY %%%%%%%%%%%%%%%%%%%%%%%%%%%%%%%%%%%%%%%%%%%%%%%%%%%%%%%%%%%%%%%%%%
 boundary mode              = electronic           
 boundary is built as a function of a smooth density
 function type              =  2 
 using the modified SCCS function with parameters 
 rhomax                     =      0.0007000 
 rhomin                     =      0.0000150 
 volume of the QM region    =   5932.6916041 
 surface of the QM region   =   1117.5224416 

%%%% ELECTROLYTE %%%%%%%%%%%%%%%%%%%%%%%%%%%%%%%%%%%%%%%%%%%%%%%%%%%%%%%%%%%%%%%%
 number electrol. species   =    2
 solvent temperature        =   300.0
 Debye length / sqrt(eps)   =      0.2301070
 electrolyte species    1
 bulk concentration  (a.u.) =      0.7139E-03
 bulk concentration (mol/L) =      8.0000000
 ionic charge               =   -1.00
 electrolyte species    2
 bulk concentration  (a.u.) =      0.7139E-03
 bulk concentration (mol/L) =      8.0000000
 ionic charge               =    1.00
 electrolyte flags
 linearized                 =  T
 total electrolyte charge   =      0.0000000

%%%% ELECTRONS %%%%%%%%%%%%%%%%%%%%%%%%%%%%%%%%%%%%%%%%%%%%%%%%%%%%%%%%%%%%%%%%%
 number of electrons        =         29
 total electronic charge    =     30.0000000
 number of spin components  =  1

%%%% BOUNDARY %%%%%%%%%%%%%%%%%%%%%%%%%%%%%%%%%%%%%%%%%%%%%%%%%%%%%%%%%%%%%%%%%%
 boundary mode              = electronic           
 boundary is built as a function of a smooth density
 function type              =  2 
 using the modified SCCS function with parameters 
 rhomax                     =      0.0050000 
 rhomin                     =      0.0001000 
 volume of the QM region    =   1074.1872471 
 surface of the QM region   =    527.4241024 

%%%% DIELECTRIC %%%%%%%%%%%%%%%%%%%%%%%%%%%%%%%%%%%%%%%%%%%%%%%%%%%%%%%%%%%%%%%%%
 dielectric build on homogeneous background
 environment bulk permitt.  =     20.0000000 
 dielectric flags
 need gradient              =  F 
 need factor depend. sqrt   =  T 
 total dielectric charge    =      0.0000000

%%%% BOUNDARY %%%%%%%%%%%%%%%%%%%%%%%%%%%%%%%%%%%%%%%%%%%%%%%%%%%%%%%%%%%%%%%%%%
 boundary mode              = electronic           
 boundary is built as a function of a smooth density
 function type              =  2 
 using the modified SCCS function with parameters 
 rhomax                     =      0.0007000 
 rhomin                     =      0.0000150 
 volume of the QM region    =   3892.6005199 
 surface of the QM region   =   1002.4964145 

%%%% ELECTROLYTE %%%%%%%%%%%%%%%%%%%%%%%%%%%%%%%%%%%%%%%%%%%%%%%%%%%%%%%%%%%%%%%%
 number electrol. species   =    2
 solvent temperature        =   300.0
 Debye length / sqrt(eps)   =      0.2301070
 electrolyte species    1
 bulk concentration  (a.u.) =      0.7139E-03
 bulk concentration (mol/L) =      8.0000000
 ionic charge               =   -1.00
 electrolyte species    2
 bulk concentration  (a.u.) =      0.7139E-03
 bulk concentration (mol/L) =      8.0000000
 ionic charge               =    1.00
 electrolyte flags
 linearized                 =  T
 total electrolyte charge   =      0.0000000

%%%% COMPUTE ELECTROSTATIC POTENTIAL %%%%%%%%%%%%%%%%%%%%%%%%%%%%%%%%%%%%%%%%%%%
 Iteration #          1
  pAp =    123.246403319207       rzold =    120.820643240974       alpha = 
  0.980317802281419     
 delta_qm =   0.113770E-01 delta_en =   0.223666E+03 tol =   0.100000E-04
 Iteration #          2
  pAp =    1831.84272561542       rzold =    61.1486557609658       alpha = 
  3.338095290927463E-002
 delta_qm =   0.340736E-02 delta_en =   0.200622E+02 tol =   0.100000E-04
 Iteration #          3
  pAp =    7.97731185256093       rzold =    1.18910761592943       alpha = 
  0.149061192279665     
 delta_qm =   0.103088E-02 delta_en =   0.183635E+01 tol =   0.100000E-04
 Iteration #          4
  pAp =   0.303119855167490       rzold =   6.398624574126081E-002  alpha = 
  0.211092228537471     
 delta_qm =   0.538328E-03 delta_en =   0.500769E+00 tol =   0.100000E-04
 Iteration #          5
  pAp =   0.265289215809758       rzold =   2.892236975574494E-002  alpha = 
  0.109022033434203     
 delta_qm =   0.267711E-03 delta_en =   0.123844E+00 tol =   0.100000E-04
 Iteration #          6
  pAp =   8.054197641334885E-003  rzold =   2.186468187417106E-003  alpha = 
  0.271469398291886     
 delta_qm =   0.127041E-03 delta_en =   0.278887E-01 tol =   0.100000E-04
 Iteration #          7
  pAp =   3.983142199555726E-003  rzold =   4.581273328709876E-004  alpha = 
  0.115016564792009     
 delta_qm =   0.991326E-04 delta_en =   0.169815E-01 tol =   0.100000E-04
 Iteration #          8
  pAp =   5.079632328356647E-004  rzold =   1.602114644921847E-004  alpha = 
  0.315399726074300     
 delta_qm =   0.457873E-04 delta_en =   0.362270E-02 tol =   0.100000E-04
 Iteration #          9
  pAp =   1.177132205103295E-004  rzold =   3.250225846582393E-005  alpha = 
  0.276113917577948     
 delta_qm =   0.256109E-04 delta_en =   0.113343E-02 tol =   0.100000E-04
 Iteration #         10
  pAp =   7.819426413104694E-005  rzold =   1.654154002012359E-005  alpha = 
  0.211544161249492     
 delta_qm =   0.122148E-04 delta_en =   0.257819E-03 tol =   0.100000E-04
 Iteration #         11
  pAp =   5.010101615901103E-005  rzold =   6.069661973186528E-006  alpha = 
  0.121148480380569     
 delta_qm =   0.814431E-05 delta_en =   0.114618E-03 tol =   0.100000E-04
 Iteration #         12
  pAp =   2.989671330605927E-006  rzold =   1.106557254370410E-006  alpha = 
  0.370126723644281     
 delta_qm =   0.431517E-05 delta_en =   0.321765E-04 tol =   0.100000E-04
 Iteration #         13
  pAp =   3.068524834220577E-007  rzold =   1.901531463778053E-007  alpha = 
  0.619689123116077     
 delta_qm =   0.217109E-05 delta_en =   0.814519E-05 tol =   0.100000E-04
 Charges are converged, EXIT

%%%% ELECTRONS %%%%%%%%%%%%%%%%%%%%%%%%%%%%%%%%%%%%%%%%%%%%%%%%%%%%%%%%%%%%%%%%%
 number of electrons        =         29
 total electronic charge    =     30.0000000
 number of spin components  =  1

%%%% BOUNDARY %%%%%%%%%%%%%%%%%%%%%%%%%%%%%%%%%%%%%%%%%%%%%%%%%%%%%%%%%%%%%%%%%%
 boundary mode              = electronic           
 boundary is built as a function of a smooth density
 function type              =  2 
 using the modified SCCS function with parameters 
 rhomax                     =      0.0050000 
 rhomin                     =      0.0001000 
 volume of the QM region    =   1022.9674933 
 surface of the QM region   =    515.5808647 

%%%% DIELECTRIC %%%%%%%%%%%%%%%%%%%%%%%%%%%%%%%%%%%%%%%%%%%%%%%%%%%%%%%%%%%%%%%%%
 dielectric build on homogeneous background
 environment bulk permitt.  =     20.0000000 
 dielectric flags
 need gradient              =  F 
 need factor depend. sqrt   =  T 
 total dielectric charge    =      0.0040872

%%%% BOUNDARY %%%%%%%%%%%%%%%%%%%%%%%%%%%%%%%%%%%%%%%%%%%%%%%%%%%%%%%%%%%%%%%%%%
 boundary mode              = electronic           
 boundary is built as a function of a smooth density
 function type              =  2 
 using the modified SCCS function with parameters 
 rhomax                     =      0.0007000 
 rhomin                     =      0.0000150 
 volume of the QM region    =   2617.1088243 
 surface of the QM region   =    874.0880057 

%%%% ELECTROLYTE %%%%%%%%%%%%%%%%%%%%%%%%%%%%%%%%%%%%%%%%%%%%%%%%%%%%%%%%%%%%%%%%
 number electrol. species   =    2
 solvent temperature        =   300.0
 Debye length / sqrt(eps)   =      0.2301070
 electrolyte species    1
 bulk concentration  (a.u.) =      0.7139E-03
 bulk concentration (mol/L) =      8.0000000
 ionic charge               =   -1.00
 electrolyte species    2
 bulk concentration  (a.u.) =      0.7139E-03
 bulk concentration (mol/L) =      8.0000000
 ionic charge               =    1.00
 electrolyte flags
 linearized                 =  T
 total electrolyte charge   =     -0.0045828

%%%% COMPUTE ELECTROSTATIC POTENTIAL %%%%%%%%%%%%%%%%%%%%%%%%%%%%%%%%%%%%%%%%%%%
 Warning: bad guess with residual norm =   0.199883E+03, reset to no guess
 Iteration #          1
  pAp =    124.050837611373       rzold =    122.299014171675       alpha = 
  0.985878181288980     
 delta_qm =   0.106591E-01 delta_en =   0.196330E+03 tol =   0.100000E-04
 Iteration #          2
  pAp =    2136.10133632949       rzold =    55.3936111422427       alpha = 
  2.593210827601781E-002
 delta_qm =   0.350158E-02 delta_en =   0.211871E+02 tol =   0.100000E-04
 Iteration #          3
  pAp =    15.3135518169198       rzold =    1.48698799999710       alpha = 
  9.710275041183745E-002
 delta_qm =   0.185052E-02 delta_en =   0.591740E+01 tol =   0.100000E-04
 Iteration #          4
  pAp =    2.94944883328207       rzold =   0.342642447193293       alpha = 
  0.116171687173163     
 delta_qm =   0.795401E-03 delta_en =   0.109324E+01 tol =   0.100000E-04
 Iteration #          5
  pAp =   0.247928638093354       rzold =   4.227584414914348E-002  alpha = 
  0.170516179471066     
 delta_qm =   0.306781E-03 delta_en =   0.162630E+00 tol =   0.100000E-04
 Iteration #          6
  pAp =   1.579284270591799E-002  rzold =   3.466468917374695E-003  alpha = 
  0.219496197228363     
 delta_qm =   0.159154E-03 delta_en =   0.437700E-01 tol =   0.100000E-04
 Iteration #          7
  pAp =   3.960719988723155E-003  rzold =   7.287993260028826E-004  alpha = 
  0.184006778585181     
 delta_qm =   0.105262E-03 delta_en =   0.191462E-01 tol =   0.100000E-04
 Iteration #          8
  pAp =   8.510997702119079E-004  rzold =   1.643379610166989E-004  alpha = 
  0.193088950048455     
 delta_qm =   0.753059E-04 delta_en =   0.979946E-02 tol =   0.100000E-04
 Iteration #          9
  pAp =   1.156206452256220E-003  rzold =   1.649280126780253E-004  alpha = 
  0.142645815854240     
 delta_qm =   0.414018E-04 delta_en =   0.296198E-02 tol =   0.100000E-04
 Iteration #         10
  pAp =   8.038000965668256E-005  rzold =   2.480280012962339E-005  alpha = 
  0.308569260386514     
 delta_qm =   0.183233E-04 delta_en =   0.580165E-03 tol =   0.100000E-04
 Iteration #         11
  pAp =   9.825484021635761E-005  rzold =   1.084740992850007E-005  alpha = 
  0.110400769108311     
 delta_qm =   0.131596E-04 delta_en =   0.299247E-03 tol =   0.100000E-04
 Iteration #         12
  pAp =   2.253647440969559E-005  rzold =   3.613437624481440E-006  alpha = 
  0.160337307370796     
 delta_qm =   0.946753E-05 delta_en =   0.154888E-03 tol =   0.100000E-04
 Iteration #         13
  pAp =   6.039513941566268E-006  rzold =   1.388767929127658E-006  alpha = 
  0.229946969667480     
 delta_qm =   0.564233E-05 delta_en =   0.550123E-04 tol =   0.100000E-04
 Iteration #         14
  pAp =   4.634141556550856E-007  rzold =   2.231360409175627E-007  alpha = 
  0.481504585465534     
 delta_qm =   0.303100E-05 delta_en =   0.158750E-04 tol =   0.100000E-04
 Iteration #         15
  pAp =   1.177119940606553E-006  rzold =   1.071067847209126E-007  alpha = 
  9.099054482563776E-002
 delta_qm =   0.284315E-05 delta_en =   0.139683E-04 tol =   0.100000E-04
 Iteration #         16
  pAp =   1.682254903792699E-006  rzold =   2.324036638188610E-007  alpha = 
  0.138150088488314     
 delta_qm =   0.124705E-05 delta_en =   0.268726E-05 tol =   0.100000E-04
 Charges are converged, EXIT

%%%% ELECTRONS %%%%%%%%%%%%%%%%%%%%%%%%%%%%%%%%%%%%%%%%%%%%%%%%%%%%%%%%%%%%%%%%%
 number of electrons        =         30
 total electronic charge    =     30.0000000
 number of spin components  =  1

%%%% BOUNDARY %%%%%%%%%%%%%%%%%%%%%%%%%%%%%%%%%%%%%%%%%%%%%%%%%%%%%%%%%%%%%%%%%%
 boundary mode              = electronic           
 boundary is built as a function of a smooth density
 function type              =  2 
 using the modified SCCS function with parameters 
 rhomax                     =      0.0050000 
 rhomin                     =      0.0001000 
 volume of the QM region    =    990.3003585 
 surface of the QM region   =    507.9805332 

%%%% DIELECTRIC %%%%%%%%%%%%%%%%%%%%%%%%%%%%%%%%%%%%%%%%%%%%%%%%%%%%%%%%%%%%%%%%%
 dielectric build on homogeneous background
 environment bulk permitt.  =     20.0000000 
 dielectric flags
 need gradient              =  F 
 need factor depend. sqrt   =  T 
 total dielectric charge    =      0.0012197

%%%% BOUNDARY %%%%%%%%%%%%%%%%%%%%%%%%%%%%%%%%%%%%%%%%%%%%%%%%%%%%%%%%%%%%%%%%%%
 boundary mode              = electronic           
 boundary is built as a function of a smooth density
 function type              =  2 
 using the modified SCCS function with parameters 
 rhomax                     =      0.0007000 
 rhomin                     =      0.0000150 
 volume of the QM region    =   1838.5602516 
 surface of the QM region   =    752.9739514 

%%%% ELECTROLYTE %%%%%%%%%%%%%%%%%%%%%%%%%%%%%%%%%%%%%%%%%%%%%%%%%%%%%%%%%%%%%%%%
 number electrol. species   =    2
 solvent temperature        =   300.0
 Debye length / sqrt(eps)   =      0.2301070
 electrolyte species    1
 bulk concentration  (a.u.) =      0.7139E-03
 bulk concentration (mol/L) =      8.0000000
 ionic charge               =   -1.00
 electrolyte species    2
 bulk concentration  (a.u.) =      0.7139E-03
 bulk concentration (mol/L) =      8.0000000
 ionic charge               =    1.00
 electrolyte flags
 linearized                 =  T
 total electrolyte charge   =     -0.0013033

%%%% COMPUTE ELECTROSTATIC POTENTIAL %%%%%%%%%%%%%%%%%%%%%%%%%%%%%%%%%%%%%%%%%%%
 Warning: bad guess with residual norm =   0.171262E+03, reset to no guess
 Iteration #          1
  pAp =    124.045314781570       rzold =    122.820111967929       alpha = 
  0.990122941637915     
 delta_qm =   0.988674E-02 delta_en =   0.168908E+03 tol =   0.100000E-04
 Iteration #          2
  pAp =    2086.25824414750       rzold =    46.2956925514770       alpha = 
  2.219077752303608E-002
 delta_qm =   0.304102E-02 delta_en =   0.159802E+02 tol =   0.100000E-04
 Iteration #          3
  pAp =    10.4182880398773       rzold =   0.974276600602477       alpha = 
  9.351599772182490E-002
 delta_qm =   0.157661E-02 delta_en =   0.429528E+01 tol =   0.100000E-04
 Iteration #          4
  pAp =    2.23166582975293       rzold =   0.236909485778002       alpha = 
  0.106158136500316     
 delta_qm =   0.792843E-03 delta_en =   0.108622E+01 tol =   0.100000E-04
 Iteration #          5
  pAp =   0.258621796912386       rzold =   4.121726627394233E-002  alpha = 
  0.159372747254964     
 delta_qm =   0.326670E-03 delta_en =   0.184401E+00 tol =   0.100000E-04
 Iteration #          6
  pAp =   2.200856683149018E-002  rzold =   4.264863644258371E-003  alpha = 
  0.193781979395230     
 delta_qm =   0.163429E-03 delta_en =   0.461530E-01 tol =   0.100000E-04
 Iteration #          7
  pAp =   3.963741867279729E-003  rzold =   7.336195778870280E-004  alpha = 
  0.185082581674397     
 delta_qm =   0.107760E-03 delta_en =   0.200660E-01 tol =   0.100000E-04
 Iteration #          8
  pAp =   3.859077676083880E-004  rzold =   1.280100591161859E-004  alpha = 
  0.331711537991348     
 delta_qm =   0.573116E-04 delta_en =   0.567583E-02 tol =   0.100000E-04
 Iteration #          9
  pAp =   1.051327339995140E-003  rzold =   9.402097254724751E-005  alpha = 
  8.943073101065001E-002
 delta_qm =   0.414584E-04 delta_en =   0.297008E-02 tol =   0.100000E-04
 Iteration #         10
  pAp =   1.088030793640095E-004  rzold =   2.579187244968294E-005  alpha = 
  0.237050941944337     
 delta_qm =   0.214115E-04 delta_en =   0.792203E-03 tol =   0.100000E-04
 Iteration #         11
  pAp =   7.063057179829551E-005  rzold =   1.168723233347290E-005  alpha = 
  0.165469881326303     
 delta_qm =   0.126291E-04 delta_en =   0.275606E-03 tol =   0.100000E-04
 Iteration #         12
  pAp =   6.554926135029268E-006  rzold =   1.826342164898401E-006  alpha = 
  0.278621318879323     
 delta_qm =   0.753212E-05 delta_en =   0.980343E-04 tol =   0.100000E-04
 Iteration #         13
  pAp =   1.437329353746381E-005  rzold =   1.219480493509574E-006  alpha = 
  8.484349744413229E-002
 delta_qm =   0.604740E-05 delta_en =   0.631948E-04 tol =   0.100000E-04
 Iteration #         14
  pAp =   7.999735393931398E-007  rzold =   2.692851108411537E-007  alpha = 
  0.336617522431346     
 delta_qm =   0.394174E-05 delta_en =   0.268485E-04 tol =   0.100000E-04
 Iteration #         15
  pAp =   3.529220435706346E-006  rzold =   1.723854691922709E-007  alpha = 
  4.884519749692804E-002
 delta_qm =   0.340518E-05 delta_en =   0.200366E-04 tol =   0.100000E-04
 Iteration #         16
  pAp =   9.158204248347619E-007  rzold =   1.907268773697577E-007  alpha = 
  0.208257942493661     
 delta_qm =   0.169983E-05 delta_en =   0.499291E-05 tol =   0.100000E-04
 Charges are converged, EXIT

%%%% ELECTRONS %%%%%%%%%%%%%%%%%%%%%%%%%%%%%%%%%%%%%%%%%%%%%%%%%%%%%%%%%%%%%%%%%
 number of electrons        =         29
 total electronic charge    =     30.0000000
 number of spin components  =  1

%%%% BOUNDARY %%%%%%%%%%%%%%%%%%%%%%%%%%%%%%%%%%%%%%%%%%%%%%%%%%%%%%%%%%%%%%%%%%
 boundary mode              = electronic           
 boundary is built as a function of a smooth density
 function type              =  2 
 using the modified SCCS function with parameters 
 rhomax                     =      0.0050000 
 rhomin                     =      0.0001000 
 volume of the QM region    =    970.6216441 
 surface of the QM region   =    503.1880147 

%%%% DIELECTRIC %%%%%%%%%%%%%%%%%%%%%%%%%%%%%%%%%%%%%%%%%%%%%%%%%%%%%%%%%%%%%%%%%
 dielectric build on homogeneous background
 environment bulk permitt.  =     20.0000000 
 dielectric flags
 need gradient              =  F 
 need factor depend. sqrt   =  T 
 total dielectric charge    =     -0.0000621

%%%% BOUNDARY %%%%%%%%%%%%%%%%%%%%%%%%%%%%%%%%%%%%%%%%%%%%%%%%%%%%%%%%%%%%%%%%%%
 boundary mode              = electronic           
 boundary is built as a function of a smooth density
 function type              =  2 
 using the modified SCCS function with parameters 
 rhomax                     =      0.0007000 
 rhomin                     =      0.0000150 
 volume of the QM region    =   1613.9134657 
 surface of the QM region   =    689.3611565 

%%%% ELECTROLYTE %%%%%%%%%%%%%%%%%%%%%%%%%%%%%%%%%%%%%%%%%%%%%%%%%%%%%%%%%%%%%%%%
 number electrol. species   =    2
 solvent temperature        =   300.0
 Debye length / sqrt(eps)   =      0.2301070
 electrolyte species    1
 bulk concentration  (a.u.) =      0.7139E-03
 bulk concentration (mol/L) =      8.0000000
 ionic charge               =   -1.00
 electrolyte species    2
 bulk concentration  (a.u.) =      0.7139E-03
 bulk concentration (mol/L) =      8.0000000
 ionic charge               =    1.00
 electrolyte flags
 linearized                 =  T
 total electrolyte charge   =      0.0000018

%%%% COMPUTE ELECTROSTATIC POTENTIAL %%%%%%%%%%%%%%%%%%%%%%%%%%%%%%%%%%%%%%%%%%%
 Warning: bad guess with residual norm =   0.150075E+03, reset to no guess
 Iteration #          1
  pAp =    123.587844531237       rzold =    122.592778902721       alpha = 
  0.991948515387657     
 delta_qm =   0.926531E-02 delta_en =   0.148342E+03 tol =   0.100000E-04
 Iteration #          2
  pAp =    1746.67806606547       rzold =    37.3914957025554       alpha = 
  2.140720515646184E-002
 delta_qm =   0.323712E-02 delta_en =   0.181077E+02 tol =   0.100000E-04
 Iteration #          3
  pAp =    12.9807017599146       rzold =    1.09767059314814       alpha = 
  8.456172966995029E-002
 delta_qm =   0.169258E-02 delta_en =   0.495042E+01 tol =   0.100000E-04
 Iteration #          4
  pAp =    2.26676141944020       rzold =   0.254577753543576       alpha = 
  0.112309019979018     
 delta_qm =   0.843106E-03 delta_en =   0.122831E+01 tol =   0.100000E-04
 Iteration #          5
  pAp =   0.308399219529117       rzold =   4.708066170076668E-002  alpha = 
  0.152661416499861     
 delta_qm =   0.346131E-03 delta_en =   0.207025E+00 tol =   0.100000E-04
 Iteration #          6
  pAp =   2.285513661527986E-002  rzold =   4.539219214012805E-003  alpha = 
  0.198608273073201     
 delta_qm =   0.164501E-03 delta_en =   0.467609E-01 tol =   0.100000E-04
 Iteration #          7
  pAp =   3.706409471505631E-003  rzold =   6.820856190561623E-004  alpha = 
  0.184028673653017     
 delta_qm =   0.114562E-03 delta_en =   0.226791E-01 tol =   0.100000E-04
 Iteration #          8
  pAp =   4.475410457474905E-004  rzold =   1.457142012298486E-004  alpha = 
  0.325588463034657     
 delta_qm =   0.575688E-04 delta_en =   0.572689E-02 tol =   0.100000E-04
 Iteration #          9
  pAp =   8.717772697983102E-004  rzold =   7.894471620632093E-005  alpha = 
  9.055606166995517E-002
 delta_qm =   0.435903E-04 delta_en =   0.328340E-02 tol =   0.100000E-04
 Iteration #         10
  pAp =   1.190683337399527E-004  rzold =   2.920399969446272E-005  alpha = 
  0.245270919455754     
 delta_qm =   0.209756E-04 delta_en =   0.760278E-03 tol =   0.100000E-04
 Iteration #         11
  pAp =   6.472787165545779E-005  rzold =   9.966899561119605E-006  alpha = 
  0.153981574030006     
 delta_qm =   0.140534E-04 delta_en =   0.341279E-03 tol =   0.100000E-04
 Iteration #         12
  pAp =   6.927172039104283E-006  rzold =   2.095663690539321E-006  alpha = 
  0.302528027124082     
 delta_qm =   0.750351E-05 delta_en =   0.972910E-04 tol =   0.100000E-04
 Iteration #         13
  pAp =   1.176103910854205E-006  rzold =   3.550267849363532E-007  alpha = 
  0.301866851780552     
 delta_qm =   0.543885E-05 delta_en =   0.511161E-04 tol =   0.100000E-04
 Iteration #         14
  pAp =   9.191859185764690E-006  rzold =   4.798045936737812E-007  alpha = 
  5.219886249093635E-002
 delta_qm =   0.445578E-05 delta_en =   0.343076E-04 tol =   0.100000E-04
 Iteration #         15
  pAp =   6.902210438207253E-006  rzold =   3.683342826210335E-007  alpha = 
  5.336468453382927E-002
 delta_qm =   0.404100E-05 delta_en =   0.282177E-04 tol =   0.100000E-04
 Iteration #         16
  pAp =   6.149539388061160E-007  rzold =   1.588381049055788E-007  alpha = 
  0.258292686463559     
 delta_qm =   0.204455E-05 delta_en =   0.722339E-05 tol =   0.100000E-04
 Charges are converged, EXIT

%%%% ELECTRONS %%%%%%%%%%%%%%%%%%%%%%%%%%%%%%%%%%%%%%%%%%%%%%%%%%%%%%%%%%%%%%%%%
 number of electrons        =         30
 total electronic charge    =     30.0000000
 number of spin components  =  1

%%%% BOUNDARY %%%%%%%%%%%%%%%%%%%%%%%%%%%%%%%%%%%%%%%%%%%%%%%%%%%%%%%%%%%%%%%%%%
 boundary mode              = electronic           
 boundary is built as a function of a smooth density
 function type              =  2 
 using the modified SCCS function with parameters 
 rhomax                     =      0.0050000 
 rhomin                     =      0.0001000 
 volume of the QM region    =    968.3195691 
 surface of the QM region   =    502.9937345 

%%%% DIELECTRIC %%%%%%%%%%%%%%%%%%%%%%%%%%%%%%%%%%%%%%%%%%%%%%%%%%%%%%%%%%%%%%%%%
 dielectric build on homogeneous background
 environment bulk permitt.  =     20.0000000 
 dielectric flags
 need gradient              =  F 
 need factor depend. sqrt   =  T 
 total dielectric charge    =      0.0000726

%%%% BOUNDARY %%%%%%%%%%%%%%%%%%%%%%%%%%%%%%%%%%%%%%%%%%%%%%%%%%%%%%%%%%%%%%%%%%
 boundary mode              = electronic           
 boundary is built as a function of a smooth density
 function type              =  2 
 using the modified SCCS function with parameters 
 rhomax                     =      0.0007000 
 rhomin                     =      0.0000150 
 volume of the QM region    =   1568.2696607 
 surface of the QM region   =    678.2001013 

%%%% ELECTROLYTE %%%%%%%%%%%%%%%%%%%%%%%%%%%%%%%%%%%%%%%%%%%%%%%%%%%%%%%%%%%%%%%%
 number electrol. species   =    2
 solvent temperature        =   300.0
 Debye length / sqrt(eps)   =      0.2301070
 electrolyte species    1
 bulk concentration  (a.u.) =      0.7139E-03
 bulk concentration (mol/L) =      8.0000000
 ionic charge               =   -1.00
 electrolyte species    2
 bulk concentration  (a.u.) =      0.7139E-03
 bulk concentration (mol/L) =      8.0000000
 ionic charge               =    1.00
 electrolyte flags
 linearized                 =  T
 total electrolyte charge   =     -0.0001518

%%%% COMPUTE ELECTROSTATIC POTENTIAL %%%%%%%%%%%%%%%%%%%%%%%%%%%%%%%%%%%%%%%%%%%
 Warning: bad guess with residual norm =   0.141963E+03, reset to no guess
 Iteration #          1
  pAp =    123.637488410190       rzold =    122.716206978244       alpha = 
  0.992548526795613     
 delta_qm =   0.901494E-02 delta_en =   0.140433E+03 tol =   0.100000E-04
 Iteration #          2
  pAp =    1614.87365817035       rzold =    34.3564810233343       alpha = 
  2.127502721312588E-002
 delta_qm =   0.326424E-02 delta_en =   0.184123E+02 tol =   0.100000E-04
 Iteration #          3
  pAp =    13.7265899396566       rzold =    1.12286271428600       alpha = 
  8.180201486474133E-002
 delta_qm =   0.170520E-02 delta_en =   0.502452E+01 tol =   0.100000E-04
 Iteration #          4
  pAp =    2.21166632315158       rzold =   0.253201095537548       alpha = 
  0.114484311167130     
 delta_qm =   0.838886E-03 delta_en =   0.121605E+01 tol =   0.100000E-04
 Iteration #          5
  pAp =   0.307089788425878       rzold =   4.645334550328093E-002  alpha = 
  0.151269587117819     
 delta_qm =   0.347280E-03 delta_en =   0.208403E+00 tol =   0.100000E-04
 Iteration #          6
  pAp =   2.209925865235552E-002  rzold =   4.450770178796659E-003  alpha = 
  0.201399071743172     
 delta_qm =   0.163222E-03 delta_en =   0.460363E-01 tol =   0.100000E-04
 Iteration #          7
  pAp =   3.530955429452007E-003  rzold =   6.509117980110435E-004  alpha = 
  0.184344382424579     
 delta_qm =   0.115329E-03 delta_en =   0.229837E-01 tol =   0.100000E-04
 Iteration #          8
  pAp =   4.791793371386775E-004  rzold =   1.494111836441122E-004  alpha = 
  0.311806399116228     
 delta_qm =   0.589468E-04 delta_en =   0.600432E-02 tol =   0.100000E-04
 Iteration #          9
  pAp =   1.007042013586401E-003  rzold =   8.749138157888421E-005  alpha = 
  8.687957443532987E-002
 delta_qm =   0.443607E-04 delta_en =   0.340048E-02 tol =   0.100000E-04
 Iteration #         10
  pAp =   1.067569179705507E-004  rzold =   2.813264247121494E-005  alpha = 
  0.263520556850240     
 delta_qm =   0.208596E-04 delta_en =   0.751893E-03 tol =   0.100000E-04
 Iteration #         11
  pAp =   5.979590732132910E-005  rzold =   9.252141417539509E-006  alpha = 
  0.154728673449517     
 delta_qm =   0.142768E-04 delta_en =   0.352212E-03 tol =   0.100000E-04
 Iteration #         12
  pAp =   7.281502183462519E-006  rzold =   2.144229034838284E-006  alpha = 
  0.294476191974258     
 delta_qm =   0.770012E-05 delta_en =   0.102456E-03 tol =   0.100000E-04
 Iteration #         13
  pAp =   1.230735334883387E-006  rzold =   3.592573666940636E-007  alpha = 
  0.291904649611855     
 delta_qm =   0.549322E-05 delta_en =   0.521432E-04 tol =   0.100000E-04
 Iteration #         14
  pAp =   4.167150015856471E-006  rzold =   4.038911695688898E-007  alpha = 
  9.692263730176232E-002
 delta_qm =   0.443244E-05 delta_en =   0.339491E-04 tol =   0.100000E-04
 Iteration #         15
  pAp =   4.470299736918338E-007  rzold =   1.328888378953879E-007  alpha = 
  0.297270531543812     
 delta_qm =   0.233254E-05 delta_en =   0.940162E-05 tol =   0.100000E-04
 Charges are converged, EXIT

%%%% ELECTRONS %%%%%%%%%%%%%%%%%%%%%%%%%%%%%%%%%%%%%%%%%%%%%%%%%%%%%%%%%%%%%%%%%
 number of electrons        =         30
 total electronic charge    =     30.0000000
 number of spin components  =  1

%%%% BOUNDARY %%%%%%%%%%%%%%%%%%%%%%%%%%%%%%%%%%%%%%%%%%%%%%%%%%%%%%%%%%%%%%%%%%
 boundary mode              = electronic           
 boundary is built as a function of a smooth density
 function type              =  2 
 using the modified SCCS function with parameters 
 rhomax                     =      0.0050000 
 rhomin                     =      0.0001000 
 volume of the QM region    =    968.3195691 
 surface of the QM region   =    502.9937345 

%%%% DIELECTRIC %%%%%%%%%%%%%%%%%%%%%%%%%%%%%%%%%%%%%%%%%%%%%%%%%%%%%%%%%%%%%%%%%
 dielectric build on homogeneous background
 environment bulk permitt.  =     20.0000000 
 dielectric flags
 need gradient              =  F 
 need factor depend. sqrt   =  T 
 total dielectric charge    =     -0.0044522

%%%% BOUNDARY %%%%%%%%%%%%%%%%%%%%%%%%%%%%%%%%%%%%%%%%%%%%%%%%%%%%%%%%%%%%%%%%%%
 boundary mode              = electronic           
 boundary is built as a function of a smooth density
 function type              =  2 
 using the modified SCCS function with parameters 
 rhomax                     =      0.0007000 
 rhomin                     =      0.0000150 
 volume of the QM region    =   1568.2696607 
 surface of the QM region   =    678.2001013 

%%%% ELECTROLYTE %%%%%%%%%%%%%%%%%%%%%%%%%%%%%%%%%%%%%%%%%%%%%%%%%%%%%%%%%%%%%%%%
 number electrol. species   =    2
 solvent temperature        =   300.0
 Debye length / sqrt(eps)   =      0.2301070
 electrolyte species    1
 bulk concentration  (a.u.) =      0.7139E-03
 bulk concentration (mol/L) =      8.0000000
 ionic charge               =   -1.00
 electrolyte species    2
 bulk concentration  (a.u.) =      0.7139E-03
 bulk concentration (mol/L) =      8.0000000
 ionic charge               =    1.00
 electrolyte flags
 linearized                 =  T
 total electrolyte charge   =      0.0047313
