
     Program PWSCF v.6.3MaX starts on 21Apr2019 at 23:21:33 

     This program is part of the open-source Quantum ESPRESSO suite
     for quantum simulation of materials; please cite
         "P. Giannozzi et al., J. Phys.:Condens. Matter 21 395502 (2009);
         "P. Giannozzi et al., J. Phys.:Condens. Matter 29 465901 (2017);
          URL http://www.quantum-espresso.org", 
     in publications or presentations arising from this work. More details at
     http://www.quantum-espresso.org/quote

     Parallel version (MPI), running on     1 processors

     MPI processes distributed on     1 nodes
     Reading input from pw.in

     Current dimensions of program PWSCF are:
     Max number of different atomic species (ntypx) = 10
     Max number of k-points (npk) =  40000
     Max angular momentum in pseudopotentials (lmaxx) =  3
               file N.pbe-rrkjus.UPF: wavefunction(s)  2S renormalized
               file C.pbe-rrkjus.UPF: wavefunction(s)  2S 2P renormalized
               file H.pbe-rrkjus.UPF: wavefunction(s)  1S renormalized

     gamma-point specific algorithms are used

     Subspace diagonalization in iterative solution of the eigenvalue problem:
     a serial algorithm will be used

 
     G-vector sticks info
     --------------------
     sticks:   dense  smooth     PW     G-vecs:    dense   smooth      PW
     Sum        9549    3809    949               701475   177509   22119
 


     bravais-lattice index     =            1
     lattice parameter (alat)  =      20.0000  a.u.
     unit-cell volume          =    8000.0000 (a.u.)^3
     number of atoms/cell      =           11
     number of atomic types    =            3
     number of electrons       =        30.00
     number of Kohn-Sham states=           15
     kinetic-energy cutoff     =      30.0000  Ry
     charge density cutoff     =     300.0000  Ry
     convergence threshold     =      5.0E-04
     mixing beta               =       0.7000
     number of iterations used =            8  plain     mixing
     Exchange-correlation      = SLA PW PBE PBE ( 1  4  3  4 0 0)
 

     Environ Module
     ==============

     Plese cite
         O. Andreussi, I. Dabo and N. Marzari, J. Chem. Phys. 136, 064102 (2012)         
     in publications or presentations arising from this work.

     compensation onset threshold      =               0.1000E+03 
     static permittivity               =                    20.00 
     epsilon calculation mode          =               electronic 

     Electrostatic Setup
     -------------------
     electrostatic problem to solve    = linmodpb                 
     numerical solver adopted          = cg                       
     type of auxiliary density adopted = none                     
     type of core tool for poisson     = fft                      
     type of core tool for s(r) deriv  = analytic                 



     celldm(1)=  20.000000  celldm(2)=   0.000000  celldm(3)=   0.000000
     celldm(4)=   0.000000  celldm(5)=   0.000000  celldm(6)=   0.000000

     crystal axes: (cart. coord. in units of alat)
               a(1) = (   1.000000   0.000000   0.000000 )  
               a(2) = (   0.000000   1.000000   0.000000 )  
               a(3) = (   0.000000   0.000000   1.000000 )  

     reciprocal axes: (cart. coord. in units 2 pi/alat)
               b(1) = (  1.000000  0.000000  0.000000 )  
               b(2) = (  0.000000  1.000000  0.000000 )  
               b(3) = (  0.000000  0.000000  1.000000 )  


     PseudoPot. # 1 for N  read from file:
     /home/fnattino/Programs/quantumespresso/q-e-qe-6.3-develop/Environ/tests/../..//pseudo/N.pbe-rrkjus.UPF
     MD5 check sum: 28c76d763763edb36c62a6ca2be9aebd
     Pseudo is Ultrasoft, Zval =  5.0
     Generated by new atomic code, or converted to UPF format
     Using radial grid of 1257 points,  4 beta functions with: 
                l(1) =   0
                l(2) =   0
                l(3) =   1
                l(4) =   1
     Q(r) pseudized with 0 coefficients 


     PseudoPot. # 2 for C  read from file:
     /home/fnattino/Programs/quantumespresso/q-e-qe-6.3-develop/Environ/tests/../..//pseudo/C.pbe-rrkjus.UPF
     MD5 check sum: c9ac5a99bc85b198593446162950cd17
     Pseudo is Ultrasoft, Zval =  4.0
     Generated by new atomic code, or converted to UPF format
     Using radial grid of  627 points,  4 beta functions with: 
                l(1) =   0
                l(2) =   0
                l(3) =   1
                l(4) =   1
     Q(r) pseudized with 0 coefficients 


     PseudoPot. # 3 for H  read from file:
     /home/fnattino/Programs/quantumespresso/q-e-qe-6.3-develop/Environ/tests/../..//pseudo/H.pbe-rrkjus.UPF
     MD5 check sum: 2d52a7f45632fd764c17cc6affed14c8
     Pseudo is Ultrasoft, Zval =  1.0
     Generated by new atomic code, or converted to UPF format
     Using radial grid of 1061 points,  2 beta functions with: 
                l(1) =   0
                l(2) =   0
     Q(r) pseudized with 0 coefficients 


     atomic species   valence    mass     pseudopotential
        N              5.00    14.00000     N ( 1.00)
        C              4.00    12.00000     C ( 1.00)
        H              1.00     1.00000     H ( 1.00)

     No symmetry found



   Cartesian axes

     site n.     atom                  positions (alat units)
         1           N   tau(   1) = (  -0.1222704   0.0000000   0.0001514  )
         2           C   tau(   2) = (  -0.0616572   0.1123679   0.0001037  )
         3           C   tau(   3) = (   0.0689061   0.1142596   0.0000731  )
         4           C   tau(   4) = (   0.1346968   0.0000000   0.0000659  )
         5           C   tau(   5) = (   0.0689062  -0.1142596   0.0001326  )
         6           C   tau(   6) = (  -0.0616572  -0.1123679   0.0001773  )
         7           H   tau(   7) = (  -0.1206366   0.1969071   0.0000855  )
         8           H   tau(   8) = (   0.1179548   0.2049361   0.0000402  )
         9           H   tau(   9) = (   0.2379293  -0.0000000   0.0000010  )
        10           H   tau(  10) = (   0.1179548  -0.2049361   0.0001604  )
        11           H   tau(  11) = (  -0.1206365  -0.1969070   0.0002440  )

     number of k points=     1
                       cart. coord. in units 2pi/alat
        k(    1) = (   0.0000000   0.0000000   0.0000000), wk =   2.0000000

     Dense  grid:   350738 G-vectors     FFT dimensions: ( 120, 120, 120)

     Smooth grid:    88755 G-vectors     FFT dimensions: (  72,  72,  72)

     Estimated max dynamical RAM per process >     698.77 MB

     Initial potential from superposition of free atoms
     Check: negative starting charge=   -0.000446

     starting charge   29.51871, renormalised to   30.00000

     negative rho (up, down):  4.533E-04 0.000E+00
     Starting wfcs are   29 randomized atomic wfcs

     total cpu time spent up to now is        5.4 secs

     Self-consistent Calculation

     iteration #  1     ecut=    30.00 Ry     beta= 0.70
     Davidson diagonalization with overlap
     ethr =  1.00E-02,  avg # of iterations =  2.0

     negative rho (up, down):  1.360E-04 0.000E+00

     add environment contribution to local potential
     polarization accuracy = 7.2E-06, # of iterations =  13

     total cpu time spent up to now is       11.3 secs

     total energy              =     -82.24157110 Ry
     Harris-Foulkes estimate   =     -83.63781479 Ry
     estimated scf accuracy    <       2.07062588 Ry
     electrostatic embedding   =       0.00000000 Ry
     electrolyte free energy   =       0.01667930 Ry
     correction to one-el term =       0.00000000 Ry

     iteration #  2     ecut=    30.00 Ry     beta= 0.70
     Davidson diagonalization with overlap
     ethr =  6.90E-03,  avg # of iterations =  3.0

     negative rho (up, down):  1.552E-04 0.000E+00

     add environment contribution to local potential
     polarization accuracy = 2.7E-06, # of iterations =  16

     total cpu time spent up to now is       17.8 secs

     total energy              =     -82.44647254 Ry
     Harris-Foulkes estimate   =     -82.81925703 Ry
     estimated scf accuracy    <       0.49832297 Ry
     electrostatic embedding   =      -0.02763436 Ry
     electrolyte free energy   =       0.01081637 Ry
     correction to one-el term =       0.06892500 Ry

     iteration #  3     ecut=    30.00 Ry     beta= 0.70
     Davidson diagonalization with overlap
     ethr =  1.66E-03,  avg # of iterations =  4.0

     negative rho (up, down):  1.955E-04 0.000E+00

     add environment contribution to local potential
     polarization accuracy = 4.9E-06, # of iterations =  16

     total cpu time spent up to now is       24.3 secs

     total energy              =     -82.59341628 Ry
     Harris-Foulkes estimate   =     -83.25971369 Ry
     estimated scf accuracy    <       0.20653531 Ry
     electrostatic embedding   =      -0.02435850 Ry
     electrolyte free energy   =       0.00720446 Ry
     correction to one-el term =       0.58150379 Ry

     iteration #  4     ecut=    30.00 Ry     beta= 0.70
     Davidson diagonalization with overlap
     ethr =  6.88E-04,  avg # of iterations =  4.0

     negative rho (up, down):  5.025E-05 0.000E+00

     add environment contribution to local potential
     polarization accuracy = 7.2E-06, # of iterations =  16

     total cpu time spent up to now is       30.6 secs

     total energy              =     -82.64348705 Ry
     Harris-Foulkes estimate   =     -83.44822608 Ry
     estimated scf accuracy    <       0.00853557 Ry
     electrostatic embedding   =      -0.01658756 Ry
     electrolyte free energy   =       0.00507471 Ry
     correction to one-el term =       0.81203466 Ry

     iteration #  5     ecut=    30.00 Ry     beta= 0.70
     Davidson diagonalization with overlap
     ethr =  2.85E-05,  avg # of iterations =  4.0

     negative rho (up, down):  5.284E-05 0.000E+00

     add environment contribution to local potential
     polarization accuracy = 7.8E-06, # of iterations =  16

     total cpu time spent up to now is       37.0 secs

     total energy              =     -82.64614232 Ry
     Harris-Foulkes estimate   =     -83.60567844 Ry
     estimated scf accuracy    <       0.00114216 Ry
     electrostatic embedding   =      -0.01813655 Ry
     electrolyte free energy   =       0.00443408 Ry
     correction to one-el term =       0.97279863 Ry

     iteration #  6     ecut=    30.00 Ry     beta= 0.70
     Davidson diagonalization with overlap
     ethr =  3.81E-06,  avg # of iterations =  3.0

     negative rho (up, down):  1.399E-04 0.000E+00

     the potential shift due to the Gaussian-smeared nuclei is    -0.0801 ev

     total cpu time spent up to now is       39.4 secs

     End of self-consistent calculation

          k = 0.0000 0.0000 0.0000 ( 11060 PWs)   bands (ev):

   -23.2523 -19.6365 -18.8568 -15.3851 -15.2767 -12.8030 -11.6472 -11.1979
   -10.4392  -9.7793  -9.4583  -8.6845  -7.0456  -6.6425  -5.5799

     highest occupied level (ev):    -5.5799

!    total energy              =     -82.64639191 Ry
     Harris-Foulkes estimate   =     -83.64883474 Ry
     estimated scf accuracy    <       0.00009165 Ry

     The total energy is the sum of the following terms:

     one-electron contribution =    -292.45887591 Ry
     hartree contribution      =     149.42768345 Ry
     xc contribution           =     -25.97505304 Ry
     ewald contribution        =      85.35745671 Ry
     electrostatic embedding   =      -0.01804618 Ry
     electrolyte free energy   =       0.00430578 Ry
     correction to one-el term =       1.01613728 Ry

     WARNING: you are using the parabolic pbc correction;
              the potential shift above must be added to 
              band and Fermi energies.

     convergence has been achieved in   6 iterations

     Forces acting on atoms (cartesian axes, Ry/au):

     atom    1 type  1   force =    -0.04652508    0.00000123    0.00000388
     atom    2 type  2   force =    -0.00612757   -0.06238161    0.00002607
     atom    3 type  2   force =     0.02094310    0.01704501   -0.00004607
     atom    4 type  2   force =     0.00624445   -0.00000370    0.00000559
     atom    5 type  2   force =     0.02095048   -0.01703517    0.00000646
     atom    6 type  2   force =    -0.00614374    0.06238163    0.00001162
     atom    7 type  3   force =     0.00205984    0.00189665    0.00000896
     atom    8 type  3   force =     0.00530773   -0.00374515   -0.00000832
     atom    9 type  3   force =    -0.00407989    0.00000310    0.00002910
     atom   10 type  3   force =     0.00531548    0.00373399   -0.00002498
     atom   11 type  3   force =     0.00205520   -0.00189598   -0.00001232

     Total force =     0.107874     Total SCF correction =     0.015662
     SCF correction compared to forces is large: reduce conv_thr to get better values

     Writing output data file pwscf.save/
 
     init_run     :      4.41s CPU      4.92s WALL (       1 calls)
     electrons    :     30.40s CPU     34.08s WALL (       1 calls)
     forces       :      0.80s CPU      0.97s WALL (       1 calls)

     Called by init_run:
     wfcinit      :      0.18s CPU      0.18s WALL (       1 calls)
     potinit      :      2.03s CPU      2.16s WALL (       1 calls)
     hinit0       :      1.85s CPU      1.92s WALL (       1 calls)

     Called by electrons:
     c_bands      :      1.80s CPU      1.81s WALL (       6 calls)
     sum_band     :      2.06s CPU      2.74s WALL (       6 calls)
     v_of_rho     :      3.14s CPU      3.46s WALL (       7 calls)
     newd         :      1.40s CPU      2.31s WALL (       7 calls)
     mix_rho      :      0.29s CPU      0.30s WALL (       6 calls)

     Called by c_bands:
     init_us_2    :      0.05s CPU      0.05s WALL (      13 calls)
     regterg      :      1.70s CPU      1.70s WALL (       6 calls)

     Called by sum_band:
     sum_band:bec :      0.00s CPU      0.00s WALL (       6 calls)
     addusdens    :      1.55s CPU      2.22s WALL (       6 calls)

     Called by *egterg:
     h_psi        :      1.70s CPU      1.68s WALL (      27 calls)
     s_psi        :      0.03s CPU      0.03s WALL (      27 calls)
     g_psi        :      0.01s CPU      0.01s WALL (      20 calls)
     rdiaghg      :      0.01s CPU      0.01s WALL (      26 calls)

     Called by h_psi:
     h_psi:pot    :      1.68s CPU      1.68s WALL (      27 calls)
     h_psi:calbec :      0.04s CPU      0.04s WALL (      27 calls)
     vloc_psi     :      1.62s CPU      1.59s WALL (      27 calls)
     add_vuspsi   :      0.03s CPU      0.04s WALL (      27 calls)

     General routines
     calbec       :      0.06s CPU      0.06s WALL (      37 calls)
     fft          :      6.60s CPU      6.63s WALL (     375 calls)
     ffts         :      0.04s CPU      0.04s WALL (      13 calls)
     fftw         :      1.41s CPU      1.43s WALL (     364 calls)
     interpolate  :      0.18s CPU      0.20s WALL (       7 calls)
 
     Parallel routines
 
     Environ routines
     calc_eelect  :      0.04s CPU      0.03s WALL (      12 calls)
     calc_velect  :     14.82s CPU     16.40s WALL (      10 calls)
     dielectric   :      0.38s CPU      0.38s WALL (       8 calls)
     electrolyte  :      0.03s CPU      0.03s WALL (       8 calls)
     calc_felect  :      0.18s CPU      0.18s WALL (       1 calls)
 
     PWSCF        :    36.04s CPU        40.44s WALL

 
   This run was terminated on:  23:22:14  21Apr2019            

=------------------------------------------------------------------------------=
   JOB DONE.
=------------------------------------------------------------------------------=

%%%% IONS %%%%%%%%%%%%%%%%%%%%%%%%%%%%%%%%%%%%%%%%%%%%%%%%%%%%%%%%%%%%%%%%%%%%%%
 number of ions             =         11
 ionic center of charge     =      0.0072664     0.0000000     0.0001166
 total ionic charge         =    -30.0000000
 ionic dipole               =      0.0000000     0.0000000     0.0000000
 ionic quadrupole (pc)      =   -131.0719095  -146.7987094    -0.0000314
 ionic quadrupole (gauss)   =   -134.8219095  -150.5487094    -3.7500314
 ion   1 type =  1 coordinates =     -2.4454071     0.0000002     0.0030272
 ion   2 type =  2 coordinates =     -1.2331440     2.2473584     0.0020749
 ion   3 type =  2 coordinates =      1.3781229     2.2851921     0.0014627
 ion   4 type =  2 coordinates =      2.6939354     0.0000002     0.0013189
 ion   5 type =  2 coordinates =      1.3781232    -2.2851919     0.0026521
 ion   6 type =  2 coordinates =     -1.2331437    -2.2473574     0.0035464
 ion   7 type =  3 coordinates =     -2.4127312     3.9381412     0.0017094
 ion   8 type =  3 coordinates =      2.3590962     4.0987221     0.0008035
 ion   9 type =  3 coordinates =      4.7585861    -0.0000002     0.0000199
 ion  10 type =  3 coordinates =      2.3590968    -4.0987217     0.0032074
 ion  11 type =  3 coordinates =     -2.4127303    -3.9381403     0.0048805

%%%% SYSTEM %%%%%%%%%%%%%%%%%%%%%%%%%%%%%%%%%%%%%%%%%%%%%%%%%%%%%%%%%%%%%%%%%%%%
 system is built from all present ionic types
 system defined dimension   =  0 
 system defined axis        =  3 
 system center              =      0.0072664     0.0000000     0.0001166 
 system width               =      0.2348011 

%%%% ELECTRONS %%%%%%%%%%%%%%%%%%%%%%%%%%%%%%%%%%%%%%%%%%%%%%%%%%%%%%%%%%%%%%%%%
 number of electrons        =         30
 total electronic charge    =     30.0000000
 number of spin components  =  1

%%%% BOUNDARY %%%%%%%%%%%%%%%%%%%%%%%%%%%%%%%%%%%%%%%%%%%%%%%%%%%%%%%%%%%%%%%%%%
 boundary label             = solvent              
 boundary mode              = electronic           
 boundary is built as a function of a smooth density
 function type              =  2 
 using the modified SCCS function with parameters 
 rhomax                     =      0.0050000 
 rhomin                     =      0.0001000 
 volume of the QM region    =   2407.1059985 
 surface of the QM region   =    815.5587051 

%%%% DIELECTRIC %%%%%%%%%%%%%%%%%%%%%%%%%%%%%%%%%%%%%%%%%%%%%%%%%%%%%%%%%%%%%%%%%
 dielectric build on homogeneous background
 environment bulk permitt.  =     20.0000000 
 dielectric flags
 need gradient              =  F 
 need factor depend. sqrt   =  T 
 total dielectric charge    =      0.0000000

%%%% BOUNDARY %%%%%%%%%%%%%%%%%%%%%%%%%%%%%%%%%%%%%%%%%%%%%%%%%%%%%%%%%%%%%%%%%%
 boundary label             = electrolyte          
 boundary mode              = electronic           
 boundary is built as a function of a smooth density
 function type              =  2 
 using the modified SCCS function with parameters 
 rhomax                     =      0.0007000 
 rhomin                     =      0.0000150 
 volume of the QM region    =   5932.6916041 
 surface of the QM region   =   1117.5224416 

%%%% ELECTROLYTE %%%%%%%%%%%%%%%%%%%%%%%%%%%%%%%%%%%%%%%%%%%%%%%%%%%%%%%%%%%%%%%%
 number electrol. species   =    2
 solvent temperature        =   300.0
 Debye length / sqrt(eps)   =      0.2301070
 modified Poisson-Boltzmann 
 maximum concentration      =      0.0190986
 electrolyte species    1
 bulk concentration  (a.u.) =      0.7139E-03
 bulk concentration (mol/L) =      8.0000000
 ionic charge               =   -1.00
 electrolyte species    2
 bulk concentration  (a.u.) =      0.7139E-03
 bulk concentration (mol/L) =      8.0000000
 ionic charge               =    1.00
 electrolyte flags
 linearized                 =  T
 total electrolyte charge   =      0.0000000

%%%% DENSITY %%%%%%%%%%%%%%%%%%%%%%%%%%%%%%%%%%%%%%%%%%%%%%%%%%%%%%%%%%%%%%%%%%%
 density label              = vreference                                                                      
 integral of density        =      0.000000000    

%%%% DENSITY %%%%%%%%%%%%%%%%%%%%%%%%%%%%%%%%%%%%%%%%%%%%%%%%%%%%%%%%%%%%%%%%%%%
 density label              = velectrostatic                                                                  
 integral of density        =      0.000000000    

%%%% CHARGES %%%%%%%%%%%%%%%%%%%%%%%%%%%%%%%%%%%%%%%%%%%%%%%%%%%%%%%%%%%%%%%%%%%
 total number of charges    =         41
 total charge               =      0.0000000

%%%% DENSITY %%%%%%%%%%%%%%%%%%%%%%%%%%%%%%%%%%%%%%%%%%%%%%%%%%%%%%%%%%%%%%%%%%%
 density label              = vsoftcavity                                                                     
 integral of density        =      0.000000000    

%%%% ELECTRONS %%%%%%%%%%%%%%%%%%%%%%%%%%%%%%%%%%%%%%%%%%%%%%%%%%%%%%%%%%%%%%%%%
 number of electrons        =         30
 total electronic charge    =     30.0000000
 number of spin components  =  1

%%%% BOUNDARY %%%%%%%%%%%%%%%%%%%%%%%%%%%%%%%%%%%%%%%%%%%%%%%%%%%%%%%%%%%%%%%%%%
 boundary label             = solvent              
 boundary mode              = electronic           
 boundary is built as a function of a smooth density
 function type              =  2 
 using the modified SCCS function with parameters 
 rhomax                     =      0.0050000 
 rhomin                     =      0.0001000 
 volume of the QM region    =   1074.1872031 
 surface of the QM region   =    527.4240928 

%%%% DIELECTRIC %%%%%%%%%%%%%%%%%%%%%%%%%%%%%%%%%%%%%%%%%%%%%%%%%%%%%%%%%%%%%%%%%
 dielectric build on homogeneous background
 environment bulk permitt.  =     20.0000000 
 dielectric flags
 need gradient              =  F 
 need factor depend. sqrt   =  T 
 total dielectric charge    =      0.0000000

%%%% BOUNDARY %%%%%%%%%%%%%%%%%%%%%%%%%%%%%%%%%%%%%%%%%%%%%%%%%%%%%%%%%%%%%%%%%%
 boundary label             = electrolyte          
 boundary mode              = electronic           
 boundary is built as a function of a smooth density
 function type              =  2 
 using the modified SCCS function with parameters 
 rhomax                     =      0.0007000 
 rhomin                     =      0.0000150 
 volume of the QM region    =   3892.6005160 
 surface of the QM region   =   1002.4964165 

%%%% ELECTROLYTE %%%%%%%%%%%%%%%%%%%%%%%%%%%%%%%%%%%%%%%%%%%%%%%%%%%%%%%%%%%%%%%%
 number electrol. species   =    2
 solvent temperature        =   300.0
 Debye length / sqrt(eps)   =      0.2301070
 modified Poisson-Boltzmann 
 maximum concentration      =      0.0190986
 electrolyte species    1
 bulk concentration  (a.u.) =      0.7139E-03
 bulk concentration (mol/L) =      8.0000000
 ionic charge               =   -1.00
 electrolyte species    2
 bulk concentration  (a.u.) =      0.7139E-03
 bulk concentration (mol/L) =      8.0000000
 ionic charge               =    1.00
 electrolyte flags
 linearized                 =  T
 total electrolyte charge   =      0.0000000

%%%% DENSITY %%%%%%%%%%%%%%%%%%%%%%%%%%%%%%%%%%%%%%%%%%%%%%%%%%%%%%%%%%%%%%%%%%%
 density label              = vreference                                                                      
 integral of density        =    -0.6446201597E-12

%%%% COMPUTE ELECTROSTATIC POTENTIAL %%%%%%%%%%%%%%%%%%%%%%%%%%%%%%%%%%%%%%%%%%%
 Iteration #          1
  pAp =    123.272043874912       rzold =    120.820610365997       alpha = 
  0.980113629726111     
 delta_qm =   0.114471E-01 delta_en =   0.226429E+03 tol =   0.100000E-04
 Iteration #          2
  pAp =    1897.24223714965       rzold =    62.5938218880144       alpha = 
  3.299200316247083E-002
 delta_qm =   0.341022E-02 delta_en =   0.200959E+02 tol =   0.100000E-04
 Iteration #          3
  pAp =    8.03093854505016       rzold =    1.19494838257372       alpha = 
  0.148793117500596     
 delta_qm =   0.103913E-02 delta_en =   0.186587E+01 tol =   0.100000E-04
 Iteration #          4
  pAp =   0.308175094083596       rzold =   6.497905499801214E-002  alpha = 
  0.210851091621265     
 delta_qm =   0.539285E-03 delta_en =   0.502551E+00 tol =   0.100000E-04
 Iteration #          5
  pAp =   0.270880867160980       rzold =   2.918256921387648E-002  alpha = 
  0.107732116777867     
 delta_qm =   0.271352E-03 delta_en =   0.127236E+00 tol =   0.100000E-04
 Iteration #          6
  pAp =   8.509168832515263E-003  rzold =   2.295619994928370E-003  alpha = 
  0.269781930540189     
 delta_qm =   0.127178E-03 delta_en =   0.279491E-01 tol =   0.100000E-04
 Iteration #          7
  pAp =   3.999171774705023E-003  rzold =   4.600548572947180E-004  alpha = 
  0.115037533572474     
 delta_qm =   0.997041E-04 delta_en =   0.171779E-01 tol =   0.100000E-04
 Iteration #          8
  pAp =   5.358157778113605E-004  rzold =   1.657519999386619E-004  alpha = 
  0.309345127192236     
 delta_qm =   0.467349E-04 delta_en =   0.377421E-02 tol =   0.100000E-04
 Iteration #          9
  pAp =   1.260052290187259E-004  rzold =   3.401609154884850E-005  alpha = 
  0.269957777258540     
 delta_qm =   0.263315E-04 delta_en =   0.119810E-02 tol =   0.100000E-04
 Iteration #         10
  pAp =   7.909970202374207E-005  rzold =   1.706287645782603E-005  alpha = 
  0.215713536477098     
 delta_qm =   0.123531E-04 delta_en =   0.263691E-03 tol =   0.100000E-04
 Iteration #         11
  pAp =   5.338709582052770E-005  rzold =   6.326659643176385E-006  alpha = 
  0.118505409330465     
 delta_qm =   0.819538E-05 delta_en =   0.116060E-03 tol =   0.100000E-04
 Iteration #         12
  pAp =   3.104856941904940E-006  rzold =   1.135700921648141E-006  alpha = 
  0.365782045001838     
 delta_qm =   0.427860E-05 delta_en =   0.316335E-04 tol =   0.100000E-04
 Iteration #         13
  pAp =   2.824725972839269E-007  rzold =   1.799156541936154E-007  alpha = 
  0.636931355195398     
 delta_qm =   0.204461E-05 delta_en =   0.722378E-05 tol =   0.100000E-04
 Charges are converged, EXIT

%%%% DENSITY %%%%%%%%%%%%%%%%%%%%%%%%%%%%%%%%%%%%%%%%%%%%%%%%%%%%%%%%%%%%%%%%%%%
 density label              = velectrostatic                                                                  
 integral of density        =     -278.3101445    

%%%% CHARGES %%%%%%%%%%%%%%%%%%%%%%%%%%%%%%%%%%%%%%%%%%%%%%%%%%%%%%%%%%%%%%%%%%%
 total number of charges    =         41
 total charge               =     -0.0000000

%%%% DENSITY %%%%%%%%%%%%%%%%%%%%%%%%%%%%%%%%%%%%%%%%%%%%%%%%%%%%%%%%%%%%%%%%%%%
 density label              = vsoftcavity                                                                     
 integral of density        =      124.9178525    

%%%% ELECTRONS %%%%%%%%%%%%%%%%%%%%%%%%%%%%%%%%%%%%%%%%%%%%%%%%%%%%%%%%%%%%%%%%%
 number of electrons        =         30
 total electronic charge    =     30.0000000
 number of spin components  =  1

%%%% BOUNDARY %%%%%%%%%%%%%%%%%%%%%%%%%%%%%%%%%%%%%%%%%%%%%%%%%%%%%%%%%%%%%%%%%%
 boundary label             = solvent              
 boundary mode              = electronic           
 boundary is built as a function of a smooth density
 function type              =  2 
 using the modified SCCS function with parameters 
 rhomax                     =      0.0050000 
 rhomin                     =      0.0001000 
 volume of the QM region    =   1022.9403157 
 surface of the QM region   =    515.5717040 

%%%% DIELECTRIC %%%%%%%%%%%%%%%%%%%%%%%%%%%%%%%%%%%%%%%%%%%%%%%%%%%%%%%%%%%%%%%%%
 dielectric build on homogeneous background
 environment bulk permitt.  =     20.0000000 
 dielectric flags
 need gradient              =  F 
 need factor depend. sqrt   =  T 
 total dielectric charge    =      0.0042192

%%%% BOUNDARY %%%%%%%%%%%%%%%%%%%%%%%%%%%%%%%%%%%%%%%%%%%%%%%%%%%%%%%%%%%%%%%%%%
 boundary label             = electrolyte          
 boundary mode              = electronic           
 boundary is built as a function of a smooth density
 function type              =  2 
 using the modified SCCS function with parameters 
 rhomax                     =      0.0007000 
 rhomin                     =      0.0000150 
 volume of the QM region    =   2616.9254433 
 surface of the QM region   =    874.0642490 

%%%% ELECTROLYTE %%%%%%%%%%%%%%%%%%%%%%%%%%%%%%%%%%%%%%%%%%%%%%%%%%%%%%%%%%%%%%%%
 number electrol. species   =    2
 solvent temperature        =   300.0
 Debye length / sqrt(eps)   =      0.2301070
 modified Poisson-Boltzmann 
 maximum concentration      =      0.0190986
 electrolyte species    1
 bulk concentration  (a.u.) =      0.7139E-03
 bulk concentration (mol/L) =      8.0000000
 ionic charge               =   -1.00
 electrolyte species    2
 bulk concentration  (a.u.) =      0.7139E-03
 bulk concentration (mol/L) =      8.0000000
 ionic charge               =    1.00
 electrolyte flags
 linearized                 =  T
 total electrolyte charge   =     -0.0046853

%%%% DENSITY %%%%%%%%%%%%%%%%%%%%%%%%%%%%%%%%%%%%%%%%%%%%%%%%%%%%%%%%%%%%%%%%%%%
 density label              = vreference                                                                      
 integral of density        =    -0.6588310144E-12

%%%% COMPUTE ELECTROSTATIC POTENTIAL %%%%%%%%%%%%%%%%%%%%%%%%%%%%%%%%%%%%%%%%%%%
 Warning: bad guess with residual norm =   0.201802E+03, reset to no guess
 Iteration #          1
  pAp =    124.064004035090       rzold =    122.298756665766       alpha = 
  0.985771478334480     
 delta_qm =   0.107093E-01 delta_en =   0.198184E+03 tol =   0.100000E-04
 Iteration #          2
  pAp =    2187.63010053368       rzold =    56.3019652993624       alpha = 
  2.573651061284416E-002
 delta_qm =   0.350494E-02 delta_en =   0.212278E+02 tol =   0.100000E-04
 Iteration #          3
  pAp =    15.5077824792757       rzold =    1.49686028358283       alpha = 
  9.652316735698377E-002
 delta_qm =   0.185683E-02 delta_en =   0.595785E+01 tol =   0.100000E-04
 Iteration #          4
  pAp =    2.97909706604590       rzold =   0.345702658488177       alpha = 
  0.116042764241657     
 delta_qm =   0.800144E-03 delta_en =   0.110632E+01 tol =   0.100000E-04
 Iteration #          5
  pAp =   0.252090809395237       rzold =   4.284418337141076E-002  alpha = 
  0.169955356461402     
 delta_qm =   0.309821E-03 delta_en =   0.165869E+00 tol =   0.100000E-04
 Iteration #          6
  pAp =   1.632715118156055E-002  rzold =   3.562307294806094E-003  alpha = 
  0.218183028698189     
 delta_qm =   0.160596E-03 delta_en =   0.445668E-01 tol =   0.100000E-04
 Iteration #          7
  pAp =   4.070547348711867E-003  rzold =   7.478141874504665E-004  alpha = 
  0.183713423131441     
 delta_qm =   0.105735E-03 delta_en =   0.193190E-01 tol =   0.100000E-04
 Iteration #          8
  pAp =   8.330236160172797E-004  rzold =   1.636845895578025E-004  alpha = 
  0.196494536782025     
 delta_qm =   0.752759E-04 delta_en =   0.979165E-02 tol =   0.100000E-04
 Iteration #          9
  pAp =   1.197452683534186E-003  rzold =   1.676426621500601E-004  alpha = 
  0.139999404114471     
 delta_qm =   0.415511E-04 delta_en =   0.298338E-02 tol =   0.100000E-04
 Iteration #         10
  pAp =   8.182249059760004E-005  rzold =   2.509688098619306E-005  alpha = 
  0.306723503561125     
 delta_qm =   0.183575E-04 delta_en =   0.582330E-03 tol =   0.100000E-04
 Iteration #         11
  pAp =   9.253548812472626E-005  rzold =   1.063514210001312E-005  alpha = 
  0.114930415514514     
 delta_qm =   0.130517E-04 delta_en =   0.294358E-03 tol =   0.100000E-04
 Iteration #         12
  pAp =   2.491351049590302E-005  rzold =   3.739599018469354E-006  alpha = 
  0.150103254982244     
 delta_qm =   0.944455E-05 delta_en =   0.154137E-03 tol =   0.100000E-04
 Iteration #         13
  pAp =   6.109701840460544E-006  rzold =   1.407840810235261E-006  alpha = 
  0.230427089078563     
 delta_qm =   0.556008E-05 delta_en =   0.534201E-04 tol =   0.100000E-04
 Iteration #         14
  pAp =   4.656218572935687E-007  rzold =   2.178780998253035E-007  alpha = 
  0.467929278689196     
 delta_qm =   0.302643E-05 delta_en =   0.158273E-04 tol =   0.100000E-04
 Iteration #         15
  pAp =   1.598365426425872E-006  rzold =   1.144230891485132E-007  alpha = 
  7.158756518174719E-002
 delta_qm =   0.289665E-05 delta_en =   0.144990E-04 tol =   0.100000E-04
 Iteration #         16
  pAp =   1.052094962970579E-006  rzold =   1.852614267383688E-007  alpha = 
  0.176088122516322     
 delta_qm =   0.125418E-05 delta_en =   0.271808E-05 tol =   0.100000E-04
 Charges are converged, EXIT

%%%% DENSITY %%%%%%%%%%%%%%%%%%%%%%%%%%%%%%%%%%%%%%%%%%%%%%%%%%%%%%%%%%%%%%%%%%%
 density label              = velectrostatic                                                                  
 integral of density        =     -285.7174561    

%%%% CHARGES %%%%%%%%%%%%%%%%%%%%%%%%%%%%%%%%%%%%%%%%%%%%%%%%%%%%%%%%%%%%%%%%%%%
 total number of charges    =         41
 total charge               =     -0.0000000

%%%% DENSITY %%%%%%%%%%%%%%%%%%%%%%%%%%%%%%%%%%%%%%%%%%%%%%%%%%%%%%%%%%%%%%%%%%%
 density label              = vsoftcavity                                                                     
 integral of density        =      117.2040997    

%%%% ELECTRONS %%%%%%%%%%%%%%%%%%%%%%%%%%%%%%%%%%%%%%%%%%%%%%%%%%%%%%%%%%%%%%%%%
 number of electrons        =         30
 total electronic charge    =     30.0000000
 number of spin components  =  1

%%%% BOUNDARY %%%%%%%%%%%%%%%%%%%%%%%%%%%%%%%%%%%%%%%%%%%%%%%%%%%%%%%%%%%%%%%%%%
 boundary label             = solvent              
 boundary mode              = electronic           
 boundary is built as a function of a smooth density
 function type              =  2 
 using the modified SCCS function with parameters 
 rhomax                     =      0.0050000 
 rhomin                     =      0.0001000 
 volume of the QM region    =    990.2571758 
 surface of the QM region   =    507.9652080 

%%%% DIELECTRIC %%%%%%%%%%%%%%%%%%%%%%%%%%%%%%%%%%%%%%%%%%%%%%%%%%%%%%%%%%%%%%%%%
 dielectric build on homogeneous background
 environment bulk permitt.  =     20.0000000 
 dielectric flags
 need gradient              =  F 
 need factor depend. sqrt   =  T 
 total dielectric charge    =      0.0010795

%%%% BOUNDARY %%%%%%%%%%%%%%%%%%%%%%%%%%%%%%%%%%%%%%%%%%%%%%%%%%%%%%%%%%%%%%%%%%
 boundary label             = electrolyte          
 boundary mode              = electronic           
 boundary is built as a function of a smooth density
 function type              =  2 
 using the modified SCCS function with parameters 
 rhomax                     =      0.0007000 
 rhomin                     =      0.0000150 
 volume of the QM region    =   1838.2171192 
 surface of the QM region   =    752.8877263 

%%%% ELECTROLYTE %%%%%%%%%%%%%%%%%%%%%%%%%%%%%%%%%%%%%%%%%%%%%%%%%%%%%%%%%%%%%%%%
 number electrol. species   =    2
 solvent temperature        =   300.0
 Debye length / sqrt(eps)   =      0.2301070
 modified Poisson-Boltzmann 
 maximum concentration      =      0.0190986
 electrolyte species    1
 bulk concentration  (a.u.) =      0.7139E-03
 bulk concentration (mol/L) =      8.0000000
 ionic charge               =   -1.00
 electrolyte species    2
 bulk concentration  (a.u.) =      0.7139E-03
 bulk concentration (mol/L) =      8.0000000
 ionic charge               =    1.00
 electrolyte flags
 linearized                 =  T
 total electrolyte charge   =     -0.0011564

%%%% DENSITY %%%%%%%%%%%%%%%%%%%%%%%%%%%%%%%%%%%%%%%%%%%%%%%%%%%%%%%%%%%%%%%%%%%
 density label              = vreference                                                                      
 integral of density        =     0.6421201019E-13

%%%% COMPUTE ELECTROSTATIC POTENTIAL %%%%%%%%%%%%%%%%%%%%%%%%%%%%%%%%%%%%%%%%%%%
 Warning: bad guess with residual norm =   0.171838E+03, reset to no guess
 Iteration #          1
  pAp =    124.049220216669       rzold =    122.819821501173       alpha = 
  0.990089428104836     
 delta_qm =   0.990310E-02 delta_en =   0.169468E+03 tol =   0.100000E-04
 Iteration #          2
  pAp =    2107.84656620205       rzold =    46.6236057111490       alpha = 
  2.211906998295233E-002
 delta_qm =   0.304210E-02 delta_en =   0.159916E+02 tol =   0.100000E-04
 Iteration #          3
  pAp =    10.4893961829388       rzold =   0.978061521072853       alpha = 
  9.324288109774065E-002
 delta_qm =   0.157806E-02 delta_en =   0.430317E+01 tol =   0.100000E-04
 Iteration #          4
  pAp =    2.23894027478143       rzold =   0.237555732049778       alpha = 
  0.106101861994942     
 delta_qm =   0.794891E-03 delta_en =   0.109184E+01 tol =   0.100000E-04
 Iteration #          5
  pAp =   0.260492368540995       rzold =   4.146303963141550E-002  alpha = 
  0.159171801706314     
 delta_qm =   0.327639E-03 delta_en =   0.185496E+00 tol =   0.100000E-04
 Iteration #          6
  pAp =   2.217752866123622E-002  rzold =   4.293877954496469E-003  alpha = 
  0.193613906223991     
 delta_qm =   0.164015E-03 delta_en =   0.464846E-01 tol =   0.100000E-04
 Iteration #          7
  pAp =   3.983272200178647E-003  rzold =   7.372831559907218E-004  alpha = 
  0.185094846382242     
 delta_qm =   0.108047E-03 delta_en =   0.201728E-01 tol =   0.100000E-04
 Iteration #          8
  pAp =   3.847003283227542E-004  rzold =   1.286360852795281E-004  alpha = 
  0.334379972692941     
 delta_qm =   0.568098E-04 delta_en =   0.557687E-02 tol =   0.100000E-04
 Iteration #          9
  pAp =   1.004975762512177E-003  rzold =   9.028849622927237E-005  alpha = 
  8.984146642857802E-002
 delta_qm =   0.413466E-04 delta_en =   0.295409E-02 tol =   0.100000E-04
 Iteration #         10
  pAp =   1.111183257805812E-004  rzold =   2.606434847906479E-005  alpha = 
  0.234563905602146     
 delta_qm =   0.212872E-04 delta_en =   0.783032E-03 tol =   0.100000E-04
 Iteration #         11
  pAp =   7.086680631330421E-005  rzold =   1.164083530228494E-005  alpha = 
  0.164263579916675     
 delta_qm =   0.125460E-04 delta_en =   0.271993E-03 tol =   0.100000E-04
 Iteration #         12
  pAp =   6.408206473779071E-006  rzold =   1.816455308664233E-006  alpha = 
  0.283457675107186     
 delta_qm =   0.731430E-05 delta_en =   0.924462E-04 tol =   0.100000E-04
 Iteration #         13
  pAp =   1.312751733578441E-005  rzold =   1.110588406006394E-006  alpha = 
  8.460003347160179E-002
 delta_qm =   0.595103E-05 delta_en =   0.611967E-04 tol =   0.100000E-04
 Iteration #         14
  pAp =   8.230598333997263E-007  rzold =   2.669403365252023E-007  alpha = 
  0.324326769078962     
 delta_qm =   0.367551E-05 delta_en =   0.233442E-04 tol =   0.100000E-04
 Iteration #         15
  pAp =   3.885885694809410E-006  rzold =   1.754715342823273E-007  alpha = 
  4.515612348472169E-002
 delta_qm =   0.361691E-05 delta_en =   0.226058E-04 tol =   0.100000E-04
 Iteration #         16
  pAp =   7.523139419988018E-007  rzold =   1.691211472155961E-007  alpha = 
  0.224801293415170     
 delta_qm =   0.169113E-05 delta_en =   0.494193E-05 tol =   0.100000E-04
 Charges are converged, EXIT

%%%% DENSITY %%%%%%%%%%%%%%%%%%%%%%%%%%%%%%%%%%%%%%%%%%%%%%%%%%%%%%%%%%%%%%%%%%%
 density label              = velectrostatic                                                                  
 integral of density        =     -279.0625594    

%%%% CHARGES %%%%%%%%%%%%%%%%%%%%%%%%%%%%%%%%%%%%%%%%%%%%%%%%%%%%%%%%%%%%%%%%%%%
 total number of charges    =         41
 total charge               =      0.0000000

%%%% DENSITY %%%%%%%%%%%%%%%%%%%%%%%%%%%%%%%%%%%%%%%%%%%%%%%%%%%%%%%%%%%%%%%%%%%
 density label              = vsoftcavity                                                                     
 integral of density        =      60.49496089    

%%%% ELECTRONS %%%%%%%%%%%%%%%%%%%%%%%%%%%%%%%%%%%%%%%%%%%%%%%%%%%%%%%%%%%%%%%%%
 number of electrons        =         30
 total electronic charge    =     30.0000000
 number of spin components  =  1

%%%% BOUNDARY %%%%%%%%%%%%%%%%%%%%%%%%%%%%%%%%%%%%%%%%%%%%%%%%%%%%%%%%%%%%%%%%%%
 boundary label             = solvent              
 boundary mode              = electronic           
 boundary is built as a function of a smooth density
 function type              =  2 
 using the modified SCCS function with parameters 
 rhomax                     =      0.0050000 
 rhomin                     =      0.0001000 
 volume of the QM region    =    970.5695738 
 surface of the QM region   =    503.1696857 

%%%% DIELECTRIC %%%%%%%%%%%%%%%%%%%%%%%%%%%%%%%%%%%%%%%%%%%%%%%%%%%%%%%%%%%%%%%%%
 dielectric build on homogeneous background
 environment bulk permitt.  =     20.0000000 
 dielectric flags
 need gradient              =  F 
 need factor depend. sqrt   =  T 
 total dielectric charge    =     -0.0001731

%%%% BOUNDARY %%%%%%%%%%%%%%%%%%%%%%%%%%%%%%%%%%%%%%%%%%%%%%%%%%%%%%%%%%%%%%%%%%
 boundary label             = electrolyte          
 boundary mode              = electronic           
 boundary is built as a function of a smooth density
 function type              =  2 
 using the modified SCCS function with parameters 
 rhomax                     =      0.0007000 
 rhomin                     =      0.0000150 
 volume of the QM region    =   1613.5757419 
 surface of the QM region   =    689.2678892 

%%%% ELECTROLYTE %%%%%%%%%%%%%%%%%%%%%%%%%%%%%%%%%%%%%%%%%%%%%%%%%%%%%%%%%%%%%%%%
 number electrol. species   =    2
 solvent temperature        =   300.0
 Debye length / sqrt(eps)   =      0.2301070
 modified Poisson-Boltzmann 
 maximum concentration      =      0.0190986
 electrolyte species    1
 bulk concentration  (a.u.) =      0.7139E-03
 bulk concentration (mol/L) =      8.0000000
 ionic charge               =   -1.00
 electrolyte species    2
 bulk concentration  (a.u.) =      0.7139E-03
 bulk concentration (mol/L) =      8.0000000
 ionic charge               =    1.00
 electrolyte flags
 linearized                 =  T
 total electrolyte charge   =      0.0001208

%%%% DENSITY %%%%%%%%%%%%%%%%%%%%%%%%%%%%%%%%%%%%%%%%%%%%%%%%%%%%%%%%%%%%%%%%%%%
 density label              = vreference                                                                      
 integral of density        =    -0.6223828037E-13

%%%% COMPUTE ELECTROSTATIC POTENTIAL %%%%%%%%%%%%%%%%%%%%%%%%%%%%%%%%%%%%%%%%%%%
 Warning: bad guess with residual norm =   0.150241E+03, reset to no guess
 Iteration #          1
  pAp =    123.589494972296       rzold =    122.592531876525       alpha = 
  0.991933269927231     
 delta_qm =   0.927035E-02 delta_en =   0.148503E+03 tol =   0.100000E-04
 Iteration #          2
  pAp =    1757.26454632295       rzold =    37.5433933946837       alpha = 
  2.136467925290063E-002
 delta_qm =   0.323817E-02 delta_en =   0.181193E+02 tol =   0.100000E-04
 Iteration #          3
  pAp =    13.0520136724771       rzold =    1.10156338801740       alpha = 
  8.439796460988119E-002
 delta_qm =   0.169330E-02 delta_en =   0.495461E+01 tol =   0.100000E-04
 Iteration #          4
  pAp =    2.27285618013486       rzold =   0.255104172718527       alpha = 
  0.112239469856553     
 delta_qm =   0.843935E-03 delta_en =   0.123073E+01 tol =   0.100000E-04
 Iteration #          5
  pAp =   0.309397492548253       rzold =   4.721054844672732E-002  alpha = 
  0.152588658873389     
 delta_qm =   0.346814E-03 delta_en =   0.207843E+00 tol =   0.100000E-04
 Iteration #          6
  pAp =   2.293057119822353E-002  rzold =   4.555400084402419E-003  alpha = 
  0.198660558649988     
 delta_qm =   0.164947E-03 delta_en =   0.470146E-01 tol =   0.100000E-04
 Iteration #          7
  pAp =   3.716118309590064E-003  rzold =   6.838253736237017E-004  alpha = 
  0.184016039494484     
 delta_qm =   0.114773E-03 delta_en =   0.227626E-01 tol =   0.100000E-04
 Iteration #          8
  pAp =   4.476501816898642E-004  rzold =   1.463370734396558E-004  alpha = 
  0.326900511661222     
 delta_qm =   0.571970E-04 delta_en =   0.565315E-02 tol =   0.100000E-04
 Iteration #          9
  pAp =   8.257167863737164E-004  rzold =   7.579648422715652E-005  alpha = 
  9.179477210343560E-002
 delta_qm =   0.434294E-04 delta_en =   0.325920E-02 tol =   0.100000E-04
 Iteration #         10
  pAp =   1.228423582451838E-004  rzold =   2.961366512833469E-005  alpha = 
  0.241070470734762     
 delta_qm =   0.208302E-04 delta_en =   0.749773E-03 tol =   0.100000E-04
 Iteration #         11
  pAp =   6.418043597546595E-005  rzold =   9.860011254409821E-006  alpha = 
  0.153629546209050     
 delta_qm =   0.139323E-04 delta_en =   0.335422E-03 tol =   0.100000E-04
 Iteration #         12
  pAp =   6.959805711459071E-006  rzold =   2.093193858649230E-006  alpha = 
  0.300754639630652     
 delta_qm =   0.739133E-05 delta_en =   0.944038E-04 tol =   0.100000E-04
 Iteration #         13
  pAp =   1.098218999560177E-006  rzold =   3.455313039104238E-007  alpha = 
  0.314628779914393     
 delta_qm =   0.510370E-05 delta_en =   0.450106E-04 tol =   0.100000E-04
 Iteration #         14
  pAp =   3.389865329291140E-006  rzold =   3.293204352493983E-007  alpha = 
  9.714853047518056E-002
 delta_qm =   0.421810E-05 delta_en =   0.307452E-04 tol =   0.100000E-04
 Iteration #         15
  pAp =   5.679682113933176E-007  rzold =   1.362200752947038E-007  alpha = 
  0.239837498934199     
 delta_qm =   0.241148E-05 delta_en =   0.100487E-04 tol =   0.100000E-04
 Iteration #         16
  pAp =   1.366938648376788E-005  rzold =   4.144175100724793E-007  alpha = 
  3.031719898801542E-002
 delta_qm =   0.204643E-05 delta_en =   0.723664E-05 tol =   0.100000E-04
 Charges are converged, EXIT

%%%% DENSITY %%%%%%%%%%%%%%%%%%%%%%%%%%%%%%%%%%%%%%%%%%%%%%%%%%%%%%%%%%%%%%%%%%%
 density label              = velectrostatic                                                                  
 integral of density        =     -273.2607784    

%%%% CHARGES %%%%%%%%%%%%%%%%%%%%%%%%%%%%%%%%%%%%%%%%%%%%%%%%%%%%%%%%%%%%%%%%%%%
 total number of charges    =         41
 total charge               =      0.0000000

%%%% DENSITY %%%%%%%%%%%%%%%%%%%%%%%%%%%%%%%%%%%%%%%%%%%%%%%%%%%%%%%%%%%%%%%%%%%
 density label              = vsoftcavity                                                                     
 integral of density        =      34.31968312    

%%%% ELECTRONS %%%%%%%%%%%%%%%%%%%%%%%%%%%%%%%%%%%%%%%%%%%%%%%%%%%%%%%%%%%%%%%%%
 number of electrons        =         30
 total electronic charge    =     30.0000000
 number of spin components  =  1

%%%% BOUNDARY %%%%%%%%%%%%%%%%%%%%%%%%%%%%%%%%%%%%%%%%%%%%%%%%%%%%%%%%%%%%%%%%%%
 boundary label             = solvent              
 boundary mode              = electronic           
 boundary is built as a function of a smooth density
 function type              =  2 
 using the modified SCCS function with parameters 
 rhomax                     =      0.0050000 
 rhomin                     =      0.0001000 
 volume of the QM region    =    968.2623842 
 surface of the QM region   =    502.9739193 

%%%% DIELECTRIC %%%%%%%%%%%%%%%%%%%%%%%%%%%%%%%%%%%%%%%%%%%%%%%%%%%%%%%%%%%%%%%%%
 dielectric build on homogeneous background
 environment bulk permitt.  =     20.0000000 
 dielectric flags
 need gradient              =  F 
 need factor depend. sqrt   =  T 
 total dielectric charge    =      0.0003728

%%%% BOUNDARY %%%%%%%%%%%%%%%%%%%%%%%%%%%%%%%%%%%%%%%%%%%%%%%%%%%%%%%%%%%%%%%%%%
 boundary label             = electrolyte          
 boundary mode              = electronic           
 boundary is built as a function of a smooth density
 function type              =  2 
 using the modified SCCS function with parameters 
 rhomax                     =      0.0007000 
 rhomin                     =      0.0000150 
 volume of the QM region    =   1567.9536967 
 surface of the QM region   =    678.1125067 

%%%% ELECTROLYTE %%%%%%%%%%%%%%%%%%%%%%%%%%%%%%%%%%%%%%%%%%%%%%%%%%%%%%%%%%%%%%%%
 number electrol. species   =    2
 solvent temperature        =   300.0
 Debye length / sqrt(eps)   =      0.2301070
 modified Poisson-Boltzmann 
 maximum concentration      =      0.0190986
 electrolyte species    1
 bulk concentration  (a.u.) =      0.7139E-03
 bulk concentration (mol/L) =      8.0000000
 ionic charge               =   -1.00
 electrolyte species    2
 bulk concentration  (a.u.) =      0.7139E-03
 bulk concentration (mol/L) =      8.0000000
 ionic charge               =    1.00
 electrolyte flags
 linearized                 =  T
 total electrolyte charge   =     -0.0004806

%%%% DENSITY %%%%%%%%%%%%%%%%%%%%%%%%%%%%%%%%%%%%%%%%%%%%%%%%%%%%%%%%%%%%%%%%%%%
 density label              = vreference                                                                      
 integral of density        =    -0.6842263381E-13

%%%% COMPUTE ELECTROSTATIC POTENTIAL %%%%%%%%%%%%%%%%%%%%%%%%%%%%%%%%%%%%%%%%%%%
 Warning: bad guess with residual norm =   0.142076E+03, reset to no guess
 Iteration #          1
  pAp =    123.638776110234       rzold =    122.715968224020       alpha = 
  0.992536258322460     
 delta_qm =   0.901844E-02 delta_en =   0.140542E+03 tol =   0.100000E-04
 Iteration #          2
  pAp =    1623.43939342225       rzold =    34.4779936023954       alpha = 
  2.123762287775637E-002
 delta_qm =   0.326519E-02 delta_en =   0.184230E+02 tol =   0.100000E-04
 Iteration #          3
  pAp =    13.7975200755765       rzold =    1.12669355035459       alpha = 
  8.165913469834274E-002
 delta_qm =   0.170576E-02 delta_en =   0.502780E+01 tol =   0.100000E-04
 Iteration #          4
  pAp =    2.21722159234230       rzold =   0.253681637821675       alpha = 
  0.114414201403154     
 delta_qm =   0.839536E-03 delta_en =   0.121793E+01 tol =   0.100000E-04
 Iteration #          5
  pAp =   0.307930523481950       rzold =   4.656148276276660E-002  alpha = 
  0.151207753737008     
 delta_qm =   0.347909E-03 delta_en =   0.209159E+00 tol =   0.100000E-04
 Iteration #          6
  pAp =   2.216309102726089E-002  rzold =   4.465057301668933E-003  alpha = 
  0.201463653972131     
 delta_qm =   0.163639E-03 delta_en =   0.462721E-01 tol =   0.100000E-04
 Iteration #          7
  pAp =   3.537447371892889E-003  rzold =   6.521870826334989E-004  alpha = 
  0.184366582472862     
 delta_qm =   0.115517E-03 delta_en =   0.230587E-01 tol =   0.100000E-04
 Iteration #          8
  pAp =   4.789189915429259E-004  rzold =   1.499798787736939E-004  alpha = 
  0.313163356271394     
 delta_qm =   0.585573E-04 delta_en =   0.592525E-02 tol =   0.100000E-04
 Iteration #          9
  pAp =   9.630107854513600E-004  rzold =   8.435826040069446E-005  alpha = 
  8.759845857921106E-002
 delta_qm =   0.442318E-04 delta_en =   0.338075E-02 tol =   0.100000E-04
 Iteration #         10
  pAp =   1.093431472709593E-004  rzold =   2.844601101478411E-005  alpha = 
  0.260153578205437     
 delta_qm =   0.207111E-04 delta_en =   0.741227E-03 tol =   0.100000E-04
 Iteration #         11
  pAp =   5.912603948650941E-005  rzold =   9.141380701961639E-006  alpha = 
  0.154608371900969     
 delta_qm =   0.141483E-04 delta_en =   0.345902E-03 tol =   0.100000E-04
 Iteration #         12
  pAp =   7.316184115341705E-006  rzold =   2.141352545965911E-006  alpha = 
  0.292687077335245     
 delta_qm =   0.758016E-05 delta_en =   0.992888E-04 tol =   0.100000E-04
 Iteration #         13
  pAp =   1.155567913716802E-006  rzold =   3.484701089673548E-007  alpha = 
  0.301557446196758     
 delta_qm =   0.525335E-05 delta_en =   0.476888E-04 tol =   0.100000E-04
 Iteration #         14
  pAp =   5.405653743000906E-006  rzold =   3.887868996351515E-007  alpha = 
  7.192227214673938E-002
 delta_qm =   0.472740E-05 delta_en =   0.386178E-04 tol =   0.100000E-04
 Iteration #         15
  pAp =   7.612822190575647E-006  rzold =   3.213030419298006E-007  alpha = 
  4.220550984726272E-002
 delta_qm =   0.398183E-05 delta_en =   0.273974E-04 tol =   0.100000E-04
 Iteration #         16
  pAp =   7.587895679100168E-007  rzold =   1.706372353048831E-007  alpha = 
  0.224880839855087     
 delta_qm =   0.211827E-05 delta_en =   0.775368E-05 tol =   0.100000E-04
 Charges are converged, EXIT

%%%% DENSITY %%%%%%%%%%%%%%%%%%%%%%%%%%%%%%%%%%%%%%%%%%%%%%%%%%%%%%%%%%%%%%%%%%%
 density label              = velectrostatic                                                                  
 integral of density        =     -273.4113376    

%%%% CHARGES %%%%%%%%%%%%%%%%%%%%%%%%%%%%%%%%%%%%%%%%%%%%%%%%%%%%%%%%%%%%%%%%%%%
 total number of charges    =         41
 total charge               =      0.0000000

%%%% DENSITY %%%%%%%%%%%%%%%%%%%%%%%%%%%%%%%%%%%%%%%%%%%%%%%%%%%%%%%%%%%%%%%%%%%
 density label              = vsoftcavity                                                                     
 integral of density        =      30.19890711    

%%%% ELECTRONS %%%%%%%%%%%%%%%%%%%%%%%%%%%%%%%%%%%%%%%%%%%%%%%%%%%%%%%%%%%%%%%%%
 number of electrons        =         30
 total electronic charge    =     30.0000000
 number of spin components  =  1

%%%% BOUNDARY %%%%%%%%%%%%%%%%%%%%%%%%%%%%%%%%%%%%%%%%%%%%%%%%%%%%%%%%%%%%%%%%%%
 boundary label             = solvent              
 boundary mode              = electronic           
 boundary is built as a function of a smooth density
 function type              =  2 
 using the modified SCCS function with parameters 
 rhomax                     =      0.0050000 
 rhomin                     =      0.0001000 
 volume of the QM region    =    968.2623842 
 surface of the QM region   =    502.9739193 

%%%% DIELECTRIC %%%%%%%%%%%%%%%%%%%%%%%%%%%%%%%%%%%%%%%%%%%%%%%%%%%%%%%%%%%%%%%%%
 dielectric build on homogeneous background
 environment bulk permitt.  =     20.0000000 
 dielectric flags
 need gradient              =  F 
 need factor depend. sqrt   =  T 
 total dielectric charge    =      0.0000767

%%%% BOUNDARY %%%%%%%%%%%%%%%%%%%%%%%%%%%%%%%%%%%%%%%%%%%%%%%%%%%%%%%%%%%%%%%%%%
 boundary label             = electrolyte          
 boundary mode              = electronic           
 boundary is built as a function of a smooth density
 function type              =  2 
 using the modified SCCS function with parameters 
 rhomax                     =      0.0007000 
 rhomin                     =      0.0000150 
 volume of the QM region    =   1567.9536967 
 surface of the QM region   =    678.1125067 

%%%% ELECTROLYTE %%%%%%%%%%%%%%%%%%%%%%%%%%%%%%%%%%%%%%%%%%%%%%%%%%%%%%%%%%%%%%%%
 number electrol. species   =    2
 solvent temperature        =   300.0
 Debye length / sqrt(eps)   =      0.2301070
 modified Poisson-Boltzmann 
 maximum concentration      =      0.0190986
 electrolyte species    1
 bulk concentration  (a.u.) =      0.7139E-03
 bulk concentration (mol/L) =      8.0000000
 ionic charge               =   -1.00
 electrolyte species    2
 bulk concentration  (a.u.) =      0.7139E-03
 bulk concentration (mol/L) =      8.0000000
 ionic charge               =    1.00
 electrolyte flags
 linearized                 =  T
 total electrolyte charge   =     -0.0001630

%%%% DENSITY %%%%%%%%%%%%%%%%%%%%%%%%%%%%%%%%%%%%%%%%%%%%%%%%%%%%%%%%%%%%%%%%%%%
 density label              = vreference                                                                      
 integral of density        =    -0.6842263381E-13

%%%% DENSITY %%%%%%%%%%%%%%%%%%%%%%%%%%%%%%%%%%%%%%%%%%%%%%%%%%%%%%%%%%%%%%%%%%%
 density label              = velectrostatic                                                                  
 integral of density        =     -273.4113376    

%%%% CHARGES %%%%%%%%%%%%%%%%%%%%%%%%%%%%%%%%%%%%%%%%%%%%%%%%%%%%%%%%%%%%%%%%%%%
 total number of charges    =         41
 total charge               =      0.0000000

%%%% DENSITY %%%%%%%%%%%%%%%%%%%%%%%%%%%%%%%%%%%%%%%%%%%%%%%%%%%%%%%%%%%%%%%%%%%
 density label              = vsoftcavity                                                                     
 integral of density        =      30.19890711    
