
     Program PWSCF v.6.1 (svn rev. 13369) starts on 21Dec2017 at 15:15: 5 

     This program is part of the open-source Quantum ESPRESSO suite
     for quantum simulation of materials; please cite
         "P. Giannozzi et al., J. Phys.:Condens. Matter 21 395502 (2009);
          URL http://www.quantum-espresso.org", 
     in publications or presentations arising from this work. More details at
     http://www.quantum-espresso.org/quote

     Parallel version (MPI), running on     1 processors
     Reading input from pw.in

     Current dimensions of program PWSCF are:
     Max number of different atomic species (ntypx) = 10
     Max number of k-points (npk) =  40000
     Max angular momentum in pseudopotentials (lmaxx) =  3
               file N.pbe-rrkjus.UPF: wavefunction(s)  2S renormalized
               file C.pbe-rrkjus.UPF: wavefunction(s)  2S 2P renormalized
               file H.pbe-rrkjus.UPF: wavefunction(s)  1S renormalized

     gamma-point specific algorithms are used

     Subspace diagonalization in iterative solution of the eigenvalue problem:
     a serial algorithm will be used

 
     G-vector sticks info
     --------------------
     sticks:   dense  smooth     PW     G-vecs:    dense   smooth      PW
     Sum        9549    3809    949               701475   177509   22119
 


     bravais-lattice index     =            1
     lattice parameter (alat)  =      20.0000  a.u.
     unit-cell volume          =    8000.0000 (a.u.)^3
     number of atoms/cell      =           11
     number of atomic types    =            3
     number of electrons       =        30.00
     number of Kohn-Sham states=           15
     kinetic-energy cutoff     =      30.0000  Ry
     charge density cutoff     =     300.0000  Ry
     convergence threshold     =      5.0E-04
     mixing beta               =       0.7000
     number of iterations used =            8  plain     mixing
     Exchange-correlation      =  SLA  PW   PBE  PBE ( 1  4  3  4 0 0)
 

     Environ Module
     ==============

     Plese cite
         O. Andreussi, I. Dabo and N. Marzari, J. Chem. Phys. 136, 064102 (2012)         
     in publications or presentations arising from this work.

     compensation onset threshold      =               0.1000E+03 
     static permittivity               =                    20.00 
     epsilon calculation mode          =               electronic 

     Electrostatic Setup
     -------------------
     electrostatic problem to solve    = linmodpb                 
     numerical solver adopted          = cg                       
     type of auxiliary density adopted = none                     
     type of core tool for poisson     = fft                      
     type of core tool for s(r) deriv  = analytic                 



     celldm(1)=  20.000000  celldm(2)=   0.000000  celldm(3)=   0.000000
     celldm(4)=   0.000000  celldm(5)=   0.000000  celldm(6)=   0.000000

     crystal axes: (cart. coord. in units of alat)
               a(1) = (   1.000000   0.000000   0.000000 )  
               a(2) = (   0.000000   1.000000   0.000000 )  
               a(3) = (   0.000000   0.000000   1.000000 )  

     reciprocal axes: (cart. coord. in units 2 pi/alat)
               b(1) = (  1.000000  0.000000  0.000000 )  
               b(2) = (  0.000000  1.000000  0.000000 )  
               b(3) = (  0.000000  0.000000  1.000000 )  


     PseudoPot. # 1 for N  read from file:
     /home/fnattino/Programs/qe-6.1/Environ/tests/../..//pseudo/N.pbe-rrkjus.UPF
     MD5 check sum: 0c3fbe5807a93f9ba59d5a7019aa238b
     Pseudo is Ultrasoft, Zval =  5.0
     Generated by new atomic code, or converted to UPF format
     Using radial grid of 1257 points,  4 beta functions with: 
                l(1) =   0
                l(2) =   0
                l(3) =   1
                l(4) =   1
     Q(r) pseudized with 0 coefficients 


     PseudoPot. # 2 for C  read from file:
     /home/fnattino/Programs/qe-6.1/Environ/tests/../..//pseudo/C.pbe-rrkjus.UPF
     MD5 check sum: 00fb224312de0c5b6853bd333518df6f
     Pseudo is Ultrasoft, Zval =  4.0
     Generated by new atomic code, or converted to UPF format
     Using radial grid of  627 points,  4 beta functions with: 
                l(1) =   0
                l(2) =   0
                l(3) =   1
                l(4) =   1
     Q(r) pseudized with 0 coefficients 


     PseudoPot. # 3 for H  read from file:
     /home/fnattino/Programs/qe-6.1/Environ/tests/../..//pseudo/H.pbe-rrkjus.UPF
     MD5 check sum: 7cc9d459525c9a0585f487a71c3c9563
     Pseudo is Ultrasoft, Zval =  1.0
     Generated by new atomic code, or converted to UPF format
     Using radial grid of 1061 points,  2 beta functions with: 
                l(1) =   0
                l(2) =   0
     Q(r) pseudized with 0 coefficients 


     atomic species   valence    mass     pseudopotential
        N              5.00    14.00000     N ( 1.00)
        C              4.00    12.00000     C ( 1.00)
        H              1.00     1.00000     H ( 1.00)

     No symmetry found



   Cartesian axes

     site n.     atom                  positions (alat units)
         1           N   tau(   1) = (  -0.1222704   0.0000000   0.0001514  )
         2           C   tau(   2) = (  -0.0616572   0.1123679   0.0001037  )
         3           C   tau(   3) = (   0.0689061   0.1142596   0.0000731  )
         4           C   tau(   4) = (   0.1346968   0.0000000   0.0000659  )
         5           C   tau(   5) = (   0.0689062  -0.1142596   0.0001326  )
         6           C   tau(   6) = (  -0.0616572  -0.1123679   0.0001773  )
         7           H   tau(   7) = (  -0.1206366   0.1969071   0.0000855  )
         8           H   tau(   8) = (   0.1179548   0.2049361   0.0000402  )
         9           H   tau(   9) = (   0.2379293  -0.0000000   0.0000010  )
        10           H   tau(  10) = (   0.1179548  -0.2049361   0.0001604  )
        11           H   tau(  11) = (  -0.1206365  -0.1969070   0.0002440  )

     number of k points=     1
                       cart. coord. in units 2pi/alat
        k(    1) = (   0.0000000   0.0000000   0.0000000), wk =   2.0000000

     Dense  grid:   350738 G-vectors     FFT dimensions: ( 120, 120, 120)

     Smooth grid:    88755 G-vectors     FFT dimensions: (  72,  72,  72)

     Estimated max dynamical RAM per process >     300.59MB

     Initial potential from superposition of free atoms
     Check: negative starting charge=   -0.000446

     starting charge   29.51871, renormalised to   30.00000

     negative rho (up, down):  4.533E-04 0.000E+00
     Starting wfc are   29 randomized atomic wfcs

     total cpu time spent up to now is       29.3 secs

     per-process dynamical memory:   832.6 Mb

     Self-consistent Calculation

     iteration #  1     ecut=    30.00 Ry     beta=0.70
     Davidson diagonalization with overlap
     ethr =  1.00E-02,  avg # of iterations =  2.0

     negative rho (up, down):  1.360E-04 0.000E+00

     add environment contribution to local potential
     polarization accuracy = 7.0E-06, # of iterations =  14

     total cpu time spent up to now is       41.7 secs

     total energy              =     -82.25339246 Ry
     Harris-Foulkes estimate   =     -83.63778213 Ry
     estimated scf accuracy    <       2.07062237 Ry
     electrostatic embedding   =       0.00000000 Ry
     electrolyte free energy   =       0.00482715 Ry
     correction to one-el term =       0.00000000 Ry

     iteration #  2     ecut=    30.00 Ry     beta=0.70
     Davidson diagonalization with overlap
     ethr =  6.90E-03,  avg # of iterations =  3.0

     negative rho (up, down):  1.551E-04 0.000E+00

     add environment contribution to local potential
     polarization accuracy = 4.5E-06, # of iterations =  16

     total cpu time spent up to now is       54.8 secs

     total energy              =     -82.44713048 Ry
     Harris-Foulkes estimate   =     -82.81766302 Ry
     estimated scf accuracy    <       0.49786768 Ry
     electrostatic embedding   =      -0.02775169 Ry
     electrolyte free energy   =       0.00473635 Ry
     correction to one-el term =       0.07316104 Ry

     iteration #  3     ecut=    30.00 Ry     beta=0.70
     Davidson diagonalization with overlap
     ethr =  1.66E-03,  avg # of iterations =  4.0

     negative rho (up, down):  1.952E-04 0.000E+00

     add environment contribution to local potential
     polarization accuracy = 5.2E-06, # of iterations =  16

     total cpu time spent up to now is       67.3 secs

     total energy              =     -82.59188150 Ry
     Harris-Foulkes estimate   =     -83.25883740 Ry
     estimated scf accuracy    <       0.20620190 Ry
     electrostatic embedding   =      -0.02444745 Ry
     electrolyte free energy   =       0.00471858 Ry
     correction to one-el term =       0.58488036 Ry

     iteration #  4     ecut=    30.00 Ry     beta=0.70
     Davidson diagonalization with overlap
     ethr =  6.87E-04,  avg # of iterations =  4.0

     negative rho (up, down):  5.007E-05 0.000E+00

     add environment contribution to local potential
     polarization accuracy = 7.3E-06, # of iterations =  16

     total cpu time spent up to now is       80.3 secs

     total energy              =     -82.64261098 Ry
     Harris-Foulkes estimate   =     -83.44770285 Ry
     estimated scf accuracy    <       0.00852712 Ry
     electrostatic embedding   =      -0.01663948 Ry
     electrolyte free energy   =       0.00474785 Ry
     correction to one-el term =       0.81277286 Ry

     iteration #  5     ecut=    30.00 Ry     beta=0.70
     Davidson diagonalization with overlap
     ethr =  2.84E-05,  avg # of iterations =  4.0

     negative rho (up, down):  5.255E-05 0.000E+00

     add environment contribution to local potential
     polarization accuracy = 7.7E-06, # of iterations =  16

     total cpu time spent up to now is       93.0 secs

     total energy              =     -82.64561302 Ry
     Harris-Foulkes estimate   =     -83.60333843 Ry
     estimated scf accuracy    <       0.00114817 Ry
     electrostatic embedding   =      -0.01814269 Ry
     electrolyte free energy   =       0.00473335 Ry
     correction to one-el term =       0.97069085 Ry

     iteration #  6     ecut=    30.00 Ry     beta=0.70
     Davidson diagonalization with overlap
     ethr =  3.83E-06,  avg # of iterations =  3.0

     negative rho (up, down):  1.385E-04 0.000E+00

     total cpu time spent up to now is       97.9 secs

     End of self-consistent calculation

          k = 0.0000 0.0000 0.0000 ( 11060 PWs)   bands (ev):

   -23.2619 -19.6456 -18.8659 -15.3941 -15.2857 -12.8118 -11.6567 -11.2064
   -10.4484  -9.7879  -9.4676  -8.6937  -7.0545  -6.6514  -5.5906

     highest occupied level (ev):    -5.5906

!    total energy              =     -82.64588371 Ry
     Harris-Foulkes estimate   =     -83.64584390 Ry
     estimated scf accuracy    <       0.00008909 Ry

     The total energy is the sum of the following terms:

     one-electron contribution =    -292.43631238 Ry
     hartree contribution      =     149.40559504 Ry
     xc contribution           =     -25.97253991 Ry
     ewald contribution        =      85.35745671 Ry
     electrostatic embedding   =      -0.01803280 Ry
     electrolyte free energy   =       0.00473209 Ry
     correction to one-el term =       1.01321753 Ry

     convergence has been achieved in   6 iterations

     Forces acting on atoms (cartesian axes, Ry/au):

     atom    1 type  1   force =    -0.04642560    0.00000173    0.00000356
     atom    2 type  2   force =    -0.00609671   -0.06242456    0.00002608
     atom    3 type  2   force =     0.02085300    0.01692402   -0.00004607
     atom    4 type  2   force =     0.00615222   -0.00000311    0.00000578
     atom    5 type  2   force =     0.02086076   -0.01691337    0.00000644
     atom    6 type  2   force =    -0.00611324    0.06242562    0.00001167
     atom    7 type  3   force =     0.00204046    0.00194989    0.00000898
     atom    8 type  3   force =     0.00533208   -0.00365855   -0.00000835
     atom    9 type  3   force =    -0.00397853    0.00000265    0.00002917
     atom   10 type  3   force =     0.00533998    0.00364617   -0.00002496
     atom   11 type  3   force =     0.00203558   -0.00195048   -0.00001230

     Total force =     0.107793     Total SCF correction =     0.015457
     SCF correction compared to forces is large: reduce conv_thr to get better values

     Writing output data file pwscf.save
 
     init_run     :     28.52s CPU     29.26s WALL (       1 calls)
     electrons    :     66.02s CPU     68.69s WALL (       1 calls)
     forces       :     28.09s CPU     28.43s WALL (       1 calls)

     Called by init_run:
     wfcinit      :      0.35s CPU      0.36s WALL (       1 calls)
     potinit      :      3.10s CPU      3.19s WALL (       1 calls)

     Called by electrons:
     c_bands      :      3.73s CPU      3.77s WALL (       6 calls)
     sum_band     :      6.92s CPU      7.45s WALL (       6 calls)
     v_of_rho     :      7.51s CPU      7.83s WALL (       7 calls)
     newd         :      3.62s CPU      4.20s WALL (       7 calls)
     mix_rho      :      0.65s CPU      0.66s WALL (       6 calls)

     Called by c_bands:
     init_us_2    :      0.09s CPU      0.10s WALL (      13 calls)
     regterg      :      3.52s CPU      3.56s WALL (       6 calls)

     Called by sum_band:
     sum_band:bec :      0.00s CPU      0.00s WALL (       6 calls)
     addusdens    :      4.88s CPU      5.37s WALL (       6 calls)

     Called by *egterg:
     h_psi        :      3.36s CPU      3.36s WALL (      27 calls)
     s_psi        :      0.13s CPU      0.14s WALL (      27 calls)
     g_psi        :      0.01s CPU      0.02s WALL (      20 calls)
     rdiaghg      :      0.02s CPU      0.01s WALL (      26 calls)

     Called by h_psi:
     h_psi:pot    :      3.33s CPU      3.33s WALL (      27 calls)
     h_psi:calbec :      0.13s CPU      0.13s WALL (      27 calls)
     vloc_psi     :      3.04s CPU      3.04s WALL (      27 calls)
     add_vuspsi   :      0.16s CPU      0.16s WALL (      27 calls)

     General routines
     calbec       :      0.17s CPU      0.17s WALL (      37 calls)
     fft          :     19.87s CPU     20.60s WALL (     367 calls)
     ffts         :      0.15s CPU      0.15s WALL (      13 calls)
     fftw         :      2.35s CPU      2.38s WALL (     364 calls)
     interpolate  :      1.17s CPU      1.24s WALL (      13 calls)
     davcio       :      0.00s CPU      0.00s WALL (       1 calls)
 
     Parallel routines
     fft_scatter  :      5.11s CPU      5.59s WALL (     744 calls)
 
     Environ routines
     calc_eelect  :      0.08s CPU      0.08s WALL (      12 calls)
     calc_velect  :     33.41s CPU     34.35s WALL (      10 calls)
     dielectric   :      0.88s CPU      0.89s WALL (       9 calls)
     electrolyte  :      0.02s CPU      0.02s WALL (       2 calls)
     calc_felect  :      0.87s CPU      0.88s WALL (       1 calls)
 
     PWSCF        :  2m 2.86s CPU     2m 6.68s WALL

 
   This run was terminated on:  15:17:12  21Dec2017            

=------------------------------------------------------------------------------=
   JOB DONE.
=------------------------------------------------------------------------------=

%%%% IONS %%%%%%%%%%%%%%%%%%%%%%%%%%%%%%%%%%%%%%%%%%%%%%%%%%%%%%%%%%%%%%%%%%%%%%
 number of ions             =         11
 ionic center of charge     =      0.0072664     0.0000000     0.0001166
 total ionic charge         =    -30.0000000
 ionic dipole               =      0.0000000     0.0000000     0.0000000
 ionic quadrupole (pc)      =   -131.0719095  -146.7987094    -0.0000314
 ionic quadrupole (gauss)   =   -134.8219095  -150.5487094    -3.7500314
 ion   1 type =  1 coordinates =     -2.4454071     0.0000002     0.0030272
 ion   2 type =  2 coordinates =     -1.2331440     2.2473584     0.0020749
 ion   3 type =  2 coordinates =      1.3781229     2.2851921     0.0014627
 ion   4 type =  2 coordinates =      2.6939354     0.0000002     0.0013189
 ion   5 type =  2 coordinates =      1.3781232    -2.2851919     0.0026521
 ion   6 type =  2 coordinates =     -1.2331437    -2.2473574     0.0035464
 ion   7 type =  3 coordinates =     -2.4127312     3.9381412     0.0017094
 ion   8 type =  3 coordinates =      2.3590962     4.0987221     0.0008035
 ion   9 type =  3 coordinates =      4.7585861    -0.0000002     0.0000199
 ion  10 type =  3 coordinates =      2.3590968    -4.0987217     0.0032074
 ion  11 type =  3 coordinates =     -2.4127303    -3.9381403     0.0048805

%%%% SYSTEM %%%%%%%%%%%%%%%%%%%%%%%%%%%%%%%%%%%%%%%%%%%%%%%%%%%%%%%%%%%%%%%%%%%%
 system is built from all present ionic types
 system defined dimension   =  0 
 system defined axis        =  3 
 system center              =      0.0072664     0.0000000     0.0001166 
 system width               =      0.2348011 

%%%% DIELECTRIC %%%%%%%%%%%%%%%%%%%%%%%%%%%%%%%%%%%%%%%%%%%%%%%%%%%%%%%%%%%%%%%%%
 dielectric build on homogeneous background
 environment bulk permitt.  =     20.0000000 
 dielectric flags
 need gradient              =  F 
 need factor depend. sqrt   =  T 
 total dielectric charge    =      0.0000000

%%%% BOUNDARY %%%%%%%%%%%%%%%%%%%%%%%%%%%%%%%%%%%%%%%%%%%%%%%%%%%%%%%%%%%%%%%%%%
 boundary mode              = ionic                
 boundary is built from soft-spheres centered on ionic positions
 solvent-dependent scaling  =      1.5000000 
 softness parameter         =      0.5000000 
 volume of the QM region    =   1716.7618872 
 surface of the QM region   =    717.2136638 

%%%% ELECTROLYTE %%%%%%%%%%%%%%%%%%%%%%%%%%%%%%%%%%%%%%%%%%%%%%%%%%%%%%%%%%%%%%%%
 number electrol. species   =    2
 solvent temperature        =   300.0
 Debye length / sqrt(eps)   =      0.2301070
 modified Poisson-Boltzmann 
 maximum concentration      =      0.0190986
 electrolyte species    1
 bulk concentration  (a.u.) =      0.7139E-03
 bulk concentration (mol/L) =      8.0000000
 ionic charge               =    1.00
 electrolyte species    2
 bulk concentration  (a.u.) =      0.7139E-03
 bulk concentration (mol/L) =      8.0000000
 ionic charge               =   -1.00
 electrolyte flags
 linearized                 =  T
 total electrolyte charge   =      0.0000000

%%%% ELECTRONS %%%%%%%%%%%%%%%%%%%%%%%%%%%%%%%%%%%%%%%%%%%%%%%%%%%%%%%%%%%%%%%%%
 number of electrons        =         30
 total electronic charge    =     30.0000000
 number of spin components  =  1

%%%% BOUNDARY %%%%%%%%%%%%%%%%%%%%%%%%%%%%%%%%%%%%%%%%%%%%%%%%%%%%%%%%%%%%%%%%%%
 boundary mode              = electronic           
 boundary is built as a function of a smooth density
 function type              =  2 
 using the modified SCCS function with parameters 
 rhomax                     =      0.0050000 
 rhomin                     =      0.0001000 
 volume of the QM region    =   2407.1059985 
 surface of the QM region   =    815.5587051 

%%%% DIELECTRIC %%%%%%%%%%%%%%%%%%%%%%%%%%%%%%%%%%%%%%%%%%%%%%%%%%%%%%%%%%%%%%%%%
 dielectric build on homogeneous background
 environment bulk permitt.  =     20.0000000 
 dielectric flags
 need gradient              =  F 
 need factor depend. sqrt   =  T 
 total dielectric charge    =      0.0000000

%%%% ELECTRONS %%%%%%%%%%%%%%%%%%%%%%%%%%%%%%%%%%%%%%%%%%%%%%%%%%%%%%%%%%%%%%%%%
 number of electrons        =         30
 total electronic charge    =     30.0000000
 number of spin components  =  1

%%%% BOUNDARY %%%%%%%%%%%%%%%%%%%%%%%%%%%%%%%%%%%%%%%%%%%%%%%%%%%%%%%%%%%%%%%%%%
 boundary mode              = electronic           
 boundary is built as a function of a smooth density
 function type              =  2 
 using the modified SCCS function with parameters 
 rhomax                     =      0.0050000 
 rhomin                     =      0.0001000 
 volume of the QM region    =   1074.1872471 
 surface of the QM region   =    527.4241024 

%%%% DIELECTRIC %%%%%%%%%%%%%%%%%%%%%%%%%%%%%%%%%%%%%%%%%%%%%%%%%%%%%%%%%%%%%%%%%
 dielectric build on homogeneous background
 environment bulk permitt.  =     20.0000000 
 dielectric flags
 need gradient              =  F 
 need factor depend. sqrt   =  T 
 total dielectric charge    =      0.0000000

%%%% COMPUTE ELECTROSTATIC POTENTIAL %%%%%%%%%%%%%%%%%%%%%%%%%%%%%%%%%%%%%%%%%%%
 Iteration #          1
  pAp =    124.409509531714       rzold =    120.820643240974       alpha = 
  0.971152797690073     
 delta_qm =   0.157648E-01 delta_en =   0.429459E+03 tol =   0.100000E-04
 Iteration #          2
  pAp =    6276.40448056296       rzold =    140.303712762818       alpha = 
  2.235415406978894E-002
 delta_qm =   0.351760E-02 delta_en =   0.213814E+02 tol =   0.100000E-04
 Iteration #          3
  pAp =    10.1413142163328       rzold =    1.33683608524060       alpha = 
  0.131820793313710     
 delta_qm =   0.150523E-02 delta_en =   0.391516E+01 tol =   0.100000E-04
 Iteration #          4
  pAp =   0.755237575386856       rzold =   0.134496083901377       alpha = 
  0.178084470747478     
 delta_qm =   0.698572E-03 delta_en =   0.843268E+00 tol =   0.100000E-04
 Iteration #          5
  pAp =   0.463072458316594       rzold =   4.428204429568585E-002  alpha = 
  9.562659903520108E-002
 delta_qm =   0.419409E-03 delta_en =   0.303962E+00 tol =   0.100000E-04
 Iteration #          6
  pAp =   8.517880961917790E-002  rzold =   1.179842589430019E-002  alpha = 
  0.138513627356959     
 delta_qm =   0.230958E-03 delta_en =   0.921739E-01 tol =   0.100000E-04
 Iteration #          7
  pAp =   1.025874875775194E-002  rzold =   1.938830232908121E-003  alpha = 
  0.188992856603790     
 delta_qm =   0.124003E-03 delta_en =   0.265711E-01 tol =   0.100000E-04
 Iteration #          8
  pAp =   1.418741663553945E-003  rzold =   2.523775216682545E-004  alpha = 
  0.177888285197778     
 delta_qm =   0.916666E-04 delta_en =   0.145200E-01 tol =   0.100000E-04
 Iteration #          9
  pAp =   2.121513006808876E-003  rzold =   2.919619918985453E-004  alpha = 
  0.137619703938420     
 delta_qm =   0.472916E-04 delta_en =   0.386466E-02 tol =   0.100000E-04
 Iteration #         10
  pAp =   1.117010690231900E-004  rzold =   3.384468724343117E-005  alpha = 
  0.302993404981690     
 delta_qm =   0.239188E-04 delta_en =   0.988601E-03 tol =   0.100000E-04
 Iteration #         11
  pAp =   8.799330839675716E-005  rzold =   1.559794581257775E-005  alpha = 
  0.177262863469657     
 delta_qm =   0.127577E-04 delta_en =   0.281249E-03 tol =   0.100000E-04
 Iteration #         12
  pAp =   1.842178469387364E-005  rzold =   4.017200412085041E-006  alpha = 
  0.218067927665065     
 delta_qm =   0.640037E-05 delta_en =   0.707871E-04 tol =   0.100000E-04
 Iteration #         13
  pAp =   1.993951304837118E-005  rzold =   1.704022389166866E-006  alpha = 
  8.545957892918878E-002
 delta_qm =   0.459789E-05 delta_en =   0.365310E-04 tol =   0.100000E-04
 Iteration #         14
  pAp =   1.445713260138275E-006  rzold =   3.989630209644093E-007  alpha = 
  0.275962759673554     
 delta_qm =   0.200871E-05 delta_en =   0.697231E-05 tol =   0.100000E-04
 Charges are converged, EXIT

%%%% ELECTRONS %%%%%%%%%%%%%%%%%%%%%%%%%%%%%%%%%%%%%%%%%%%%%%%%%%%%%%%%%%%%%%%%%
 number of electrons        =         30
 total electronic charge    =     30.0000000
 number of spin components  =  1

%%%% BOUNDARY %%%%%%%%%%%%%%%%%%%%%%%%%%%%%%%%%%%%%%%%%%%%%%%%%%%%%%%%%%%%%%%%%%
 boundary mode              = electronic           
 boundary is built as a function of a smooth density
 function type              =  2 
 using the modified SCCS function with parameters 
 rhomax                     =      0.0050000 
 rhomin                     =      0.0001000 
 volume of the QM region    =   1023.3599861 
 surface of the QM region   =    515.6938600 

%%%% DIELECTRIC %%%%%%%%%%%%%%%%%%%%%%%%%%%%%%%%%%%%%%%%%%%%%%%%%%%%%%%%%%%%%%%%%
 dielectric build on homogeneous background
 environment bulk permitt.  =     20.0000000 
 dielectric flags
 need gradient              =  F 
 need factor depend. sqrt   =  T 
 total dielectric charge    =     -0.0029504

%%%% COMPUTE ELECTROSTATIC POTENTIAL %%%%%%%%%%%%%%%%%%%%%%%%%%%%%%%%%%%%%%%%%%%
 Warning: bad guess with residual norm =   0.271673E+03, reset to no guess
 Iteration #          1
  pAp =    124.376666798914       rzold =    122.301387243884       alpha = 
  0.983314558844187     
 delta_qm =   0.123963E-01 delta_en =   0.265538E+03 tol =   0.100000E-04
 Iteration #          2
  pAp =    3565.58750239581       rzold =    78.8383087713394       alpha = 
  2.211088879977446E-002
 delta_qm =   0.363756E-02 delta_en =   0.228646E+02 tol =   0.100000E-04
 Iteration #          3
  pAp =    19.4356543388676       rzold =    1.66921263221626       alpha = 
  8.588404604820275E-002
 delta_qm =   0.198085E-02 delta_en =   0.678028E+01 tol =   0.100000E-04
 Iteration #          4
  pAp =    3.42895629001430       rzold =   0.392014500044419       alpha = 
  0.114324729418696     
 delta_qm =   0.956409E-03 delta_en =   0.158063E+01 tol =   0.100000E-04
 Iteration #          5
  pAp =   0.378625531220024       rzold =   5.953792273110096E-002  alpha = 
  0.157247511913038     
 delta_qm =   0.381199E-03 delta_en =   0.251100E+00 tol =   0.100000E-04
 Iteration #          6
  pAp =   3.175606701742305E-002  rzold =   6.028718019888791E-003  alpha = 
  0.189844605649091     
 delta_qm =   0.192314E-03 delta_en =   0.639096E-01 tol =   0.100000E-04
 Iteration #          7
  pAp =   5.974621135379566E-003  rzold =   1.106277292757696E-003  alpha = 
  0.185162752196406     
 delta_qm =   0.118022E-03 delta_en =   0.240697E-01 tol =   0.100000E-04
 Iteration #          8
  pAp =   7.009678130924284E-004  rzold =   1.795233427808767E-004  alpha = 
  0.256107826105284     
 delta_qm =   0.744714E-04 delta_en =   0.958346E-02 tol =   0.100000E-04
 Iteration #          9
  pAp =   2.222955297288304E-003  rzold =   2.149958846462400E-004  alpha = 
  9.671624297101480E-002
 delta_qm =   0.467455E-04 delta_en =   0.377593E-02 tol =   0.100000E-04
 Iteration #         10
  pAp =   1.058056216298961E-004  rzold =   3.198275707496694E-005  alpha = 
  0.302278428898999     
 delta_qm =   0.211977E-04 delta_en =   0.776462E-03 tol =   0.100000E-04
 Iteration #         11
  pAp =   8.662112988456706E-005  rzold =   1.286346732430352E-005  alpha = 
  0.148502649889763     
 delta_qm =   0.128910E-04 delta_en =   0.287157E-03 tol =   0.100000E-04
 Iteration #         12
  pAp =   1.631194928456731E-005  rzold =   2.853659014803265E-006  alpha = 
  0.174942857228173     
 delta_qm =   0.884307E-05 delta_en =   0.135129E-03 tol =   0.100000E-04
 Iteration #         13
  pAp =   2.238672462351348E-005  rzold =   2.599718273664847E-006  alpha = 
  0.116127674654750     
 delta_qm =   0.532992E-05 delta_en =   0.490891E-04 tol =   0.100000E-04
 Iteration #         14
  pAp =   8.133609804184573E-007  rzold =   2.681460602959701E-007  alpha = 
  0.329676572581604     
 delta_qm =   0.328886E-05 delta_en =   0.186911E-04 tol =   0.100000E-04
 Iteration #         15
  pAp =   7.180581347162833E-007  rzold =   7.870427617991455E-008  alpha = 
  0.109607108916066     
 delta_qm =   0.307175E-05 delta_en =   0.163048E-04 tol =   0.100000E-04
 Iteration #         16
  pAp =   2.685035030905423E-006  rzold =   2.512078599271823E-007  alpha = 
  9.355850371995790E-002
 delta_qm =   0.162087E-05 delta_en =   0.453981E-05 tol =   0.100000E-04
 Charges are converged, EXIT

%%%% ELECTRONS %%%%%%%%%%%%%%%%%%%%%%%%%%%%%%%%%%%%%%%%%%%%%%%%%%%%%%%%%%%%%%%%%
 number of electrons        =         30
 total electronic charge    =     30.0000000
 number of spin components  =  1

%%%% BOUNDARY %%%%%%%%%%%%%%%%%%%%%%%%%%%%%%%%%%%%%%%%%%%%%%%%%%%%%%%%%%%%%%%%%%
 boundary mode              = electronic           
 boundary is built as a function of a smooth density
 function type              =  2 
 using the modified SCCS function with parameters 
 rhomax                     =      0.0050000 
 rhomin                     =      0.0001000 
 volume of the QM region    =    991.2031724 
 surface of the QM region   =    508.2817907 

%%%% DIELECTRIC %%%%%%%%%%%%%%%%%%%%%%%%%%%%%%%%%%%%%%%%%%%%%%%%%%%%%%%%%%%%%%%%%
 dielectric build on homogeneous background
 environment bulk permitt.  =     20.0000000 
 dielectric flags
 need gradient              =  F 
 need factor depend. sqrt   =  T 
 total dielectric charge    =     -0.0009330

%%%% COMPUTE ELECTROSTATIC POTENTIAL %%%%%%%%%%%%%%%%%%%%%%%%%%%%%%%%%%%%%%%%%%%
 Warning: bad guess with residual norm =   0.181997E+03, reset to no guess
 Iteration #          1
  pAp =    124.083010963547       rzold =    122.825884272817       alpha = 
  0.989868663880997     
 delta_qm =   0.101890E-01 delta_en =   0.179392E+03 tol =   0.100000E-04
 Iteration #          2
  pAp =    2244.50032967646       rzold =    48.7006346719141       alpha = 
  2.169776231618299E-002
 delta_qm =   0.308421E-02 delta_en =   0.164374E+02 tol =   0.100000E-04
 Iteration #          3
  pAp =    10.9139235627582       rzold =    1.00093624370175       alpha = 
  9.171186127024580E-002
 delta_qm =   0.160150E-02 delta_en =   0.443196E+01 tol =   0.100000E-04
 Iteration #          4
  pAp =    2.28812677928317       rzold =   0.243128122784935       alpha = 
  0.106256403703777     
 delta_qm =   0.812782E-03 delta_en =   0.114154E+01 tol =   0.100000E-04
 Iteration #          5
  pAp =   0.274240960818634       rzold =   4.316339034787194E-002  alpha = 
  0.157392208002136     
 delta_qm =   0.335994E-03 delta_en =   0.195077E+00 tol =   0.100000E-04
 Iteration #          6
  pAp =   2.343918649302995E-002  rzold =   4.509745503684235E-003  alpha = 
  0.192401963482192     
 delta_qm =   0.166945E-03 delta_en =   0.481602E-01 tol =   0.100000E-04
 Iteration #          7
  pAp =   4.129349035965148E-003  rzold =   7.610033679531170E-004  alpha = 
  0.184291364407574     
 delta_qm =   0.109097E-03 delta_en =   0.205668E-01 tol =   0.100000E-04
 Iteration #          8
  pAp =   4.727976630393284E-004  rzold =   1.377084021406330E-004  alpha = 
  0.291262865504431     
 delta_qm =   0.629576E-04 delta_en =   0.684921E-02 tol =   0.100000E-04
 Iteration #          9
  pAp =   1.643389973550844E-003  rzold =   1.427162543390849E-004  alpha = 
  8.684259770109247E-002
 delta_qm =   0.421801E-04 delta_en =   0.307440E-02 tol =   0.100000E-04
 Iteration #         10
  pAp =   7.915246638762647E-005  rzold =   2.347362759492567E-005  alpha = 
  0.296562175080816     
 delta_qm =   0.202434E-04 delta_en =   0.708129E-03 tol =   0.100000E-04
 Iteration #         11
  pAp =   6.396696630494667E-005  rzold =   9.907567618290373E-006  alpha = 
  0.154885688513951     
 delta_qm =   0.128829E-04 delta_en =   0.286793E-03 tol =   0.100000E-04
 Iteration #         12
  pAp =   8.606105551522160E-006  rzold =   2.062269505814890E-006  alpha = 
  0.239628655896526     
 delta_qm =   0.783739E-05 delta_en =   0.106142E-03 tol =   0.100000E-04
 Iteration #         13
  pAp =   1.923126561384131E-005  rzold =   1.666362243794336E-006  alpha = 
  8.664860011059317E-002
 delta_qm =   0.577088E-05 delta_en =   0.575477E-04 tol =   0.100000E-04
 Iteration #         14
  pAp =   7.168528316560359E-007  rzold =   2.457845337594462E-007  alpha = 
  0.342866098738353     
 delta_qm =   0.400782E-05 delta_en =   0.277562E-04 tol =   0.100000E-04
 Iteration #         15
  pAp =   8.229619798013060E-006  rzold =   2.673987789658735E-007  alpha = 
  3.249223968164770E-002
 delta_qm =   0.350559E-05 delta_en =   0.212357E-04 tol =   0.100000E-04
 Iteration #         16
  pAp =   3.707564307167242E-007  rzold =   1.185043393062415E-007  alpha = 
  0.319628547176258     
 delta_qm =   0.174184E-05 delta_en =   0.524279E-05 tol =   0.100000E-04
 Charges are converged, EXIT

%%%% ELECTRONS %%%%%%%%%%%%%%%%%%%%%%%%%%%%%%%%%%%%%%%%%%%%%%%%%%%%%%%%%%%%%%%%%
 number of electrons        =         30
 total electronic charge    =     30.0000000
 number of spin components  =  1

%%%% BOUNDARY %%%%%%%%%%%%%%%%%%%%%%%%%%%%%%%%%%%%%%%%%%%%%%%%%%%%%%%%%%%%%%%%%%
 boundary mode              = electronic           
 boundary is built as a function of a smooth density
 function type              =  2 
 using the modified SCCS function with parameters 
 rhomax                     =      0.0050000 
 rhomin                     =      0.0001000 
 volume of the QM region    =    971.9611325 
 surface of the QM region   =    503.6573450 

%%%% DIELECTRIC %%%%%%%%%%%%%%%%%%%%%%%%%%%%%%%%%%%%%%%%%%%%%%%%%%%%%%%%%%%%%%%%%
 dielectric build on homogeneous background
 environment bulk permitt.  =     20.0000000 
 dielectric flags
 need gradient              =  F 
 need factor depend. sqrt   =  T 
 total dielectric charge    =      0.0000231

%%%% COMPUTE ELECTROSTATIC POTENTIAL %%%%%%%%%%%%%%%%%%%%%%%%%%%%%%%%%%%%%%%%%%%
 Warning: bad guess with residual norm =   0.149288E+03, reset to no guess
 Iteration #          1
  pAp =    123.579325216623       rzold =    122.600184648251       alpha = 
  0.992076825418364     
 delta_qm =   0.924162E-02 delta_en =   0.147584E+03 tol =   0.100000E-04
 Iteration #          2
  pAp =    1652.75012136606       rzold =    36.0083150034618       alpha = 
  2.178690809818217E-002
 delta_qm =   0.324731E-02 delta_en =   0.182218E+02 tol =   0.100000E-04
 Iteration #          3
  pAp =    12.6917533778874       rzold =    1.08560453770781       alpha = 
  8.553621437359787E-002
 delta_qm =   0.169754E-02 delta_en =   0.497946E+01 tol =   0.100000E-04
 Iteration #          4
  pAp =    2.25423904669615       rzold =   0.254982919117511       alpha = 
  0.113112635277620     
 delta_qm =   0.826945E-03 delta_en =   0.118167E+01 tol =   0.100000E-04
 Iteration #          5
  pAp =   0.294292385037641       rzold =   4.516258715282064E-002  alpha = 
  0.153461623368353     
 delta_qm =   0.342243E-03 delta_en =   0.202401E+00 tol =   0.100000E-04
 Iteration #          6
  pAp =   2.204851031266639E-002  rzold =   4.422757969660540E-003  alpha = 
  0.200592144636627     
 delta_qm =   0.160645E-03 delta_en =   0.445940E-01 tol =   0.100000E-04
 Iteration #          7
  pAp =   3.601488548830425E-003  rzold =   6.597997579381368E-004  alpha = 
  0.183201959132261     
 delta_qm =   0.112082E-03 delta_en =   0.217080E-01 tol =   0.100000E-04
 Iteration #          8
  pAp =   4.633614649291488E-004  rzold =   1.433481971197407E-004  alpha = 
  0.309365814746074     
 delta_qm =   0.601120E-04 delta_en =   0.624405E-02 tol =   0.100000E-04
 Iteration #          9
  pAp =   1.263723742283685E-003  rzold =   1.074483812584576E-004  alpha = 
  8.502521371030572E-002
 delta_qm =   0.438448E-04 delta_en =   0.332185E-02 tol =   0.100000E-04
 Iteration #         10
  pAp =   9.249150691385824E-005  rzold =   2.602851205687959E-005  alpha = 
  0.281415158270923     
 delta_qm =   0.214920E-04 delta_en =   0.798176E-03 tol =   0.100000E-04
 Iteration #         11
  pAp =   6.420930165129224E-005  rzold =   9.892880606787215E-006  alpha = 
  0.154072390640743     
 delta_qm =   0.147349E-04 delta_en =   0.375179E-03 tol =   0.100000E-04
 Iteration #         12
  pAp =   7.739399994264847E-006  rzold =   2.148789454608859E-006  alpha = 
  0.277642899475564     
 delta_qm =   0.880339E-05 delta_en =   0.133919E-03 tol =   0.100000E-04
 Iteration #         13
  pAp =   1.677554344414039E-005  rzold =   1.406010282504536E-006  alpha = 
  8.381309894289285E-002
 delta_qm =   0.719993E-05 delta_en =   0.895777E-04 tol =   0.100000E-04
 Iteration #         14
  pAp =   8.353391613557508E-007  rzold =   3.276592493457167E-007  alpha = 
  0.392246963274088     
 delta_qm =   0.451458E-05 delta_en =   0.352191E-04 tol =   0.100000E-04
 Iteration #         15
  pAp =   7.599853270548080E-007  rzold =   1.534741772854232E-007  alpha = 
  0.201943605780109     
 delta_qm =   0.301434E-05 delta_en =   0.157010E-04 tol =   0.100000E-04
 Iteration #         16
  pAp =   1.550140155609788E-005  rzold =   6.875113892162599E-007  alpha = 
  4.435156309758388E-002
 delta_qm =   0.205381E-05 delta_en =   0.728893E-05 tol =   0.100000E-04
 Charges are converged, EXIT

%%%% ELECTRONS %%%%%%%%%%%%%%%%%%%%%%%%%%%%%%%%%%%%%%%%%%%%%%%%%%%%%%%%%%%%%%%%%
 number of electrons        =         30
 total electronic charge    =     30.0000000
 number of spin components  =  1

%%%% BOUNDARY %%%%%%%%%%%%%%%%%%%%%%%%%%%%%%%%%%%%%%%%%%%%%%%%%%%%%%%%%%%%%%%%%%
 boundary mode              = electronic           
 boundary is built as a function of a smooth density
 function type              =  2 
 using the modified SCCS function with parameters 
 rhomax                     =      0.0050000 
 rhomin                     =      0.0001000 
 volume of the QM region    =    969.9397268 
 surface of the QM region   =    503.5554720 

%%%% DIELECTRIC %%%%%%%%%%%%%%%%%%%%%%%%%%%%%%%%%%%%%%%%%%%%%%%%%%%%%%%%%%%%%%%%%
 dielectric build on homogeneous background
 environment bulk permitt.  =     20.0000000 
 dielectric flags
 need gradient              =  F 
 need factor depend. sqrt   =  T 
 total dielectric charge    =      0.0008181

%%%% COMPUTE ELECTROSTATIC POTENTIAL %%%%%%%%%%%%%%%%%%%%%%%%%%%%%%%%%%%%%%%%%%%
 Warning: bad guess with residual norm =   0.139586E+03, reset to no guess
 Iteration #          1
  pAp =    123.622719723514       rzold =    122.723092241111       alpha = 
  0.992722798168372     
 delta_qm =   0.894015E-02 delta_en =   0.138113E+03 tol =   0.100000E-04
 Iteration #          2
  pAp =    1489.16499975017       rzold =    32.5166036162913       alpha = 
  2.183546055792769E-002
 delta_qm =   0.326110E-02 delta_en =   0.183769E+02 tol =   0.100000E-04
 Iteration #          3
  pAp =    13.1909816175069       rzold =    1.09825075025015       alpha = 
  8.325769697022101E-002
 delta_qm =   0.170524E-02 delta_en =   0.502477E+01 tol =   0.100000E-04
 Iteration #          4
  pAp =    2.18144367255815       rzold =   0.252071806700914       alpha = 
  0.115552746042401     
 delta_qm =   0.816690E-03 delta_en =   0.115255E+01 tol =   0.100000E-04
 Iteration #          5
  pAp =   0.288017465537375       rzold =   4.387859368690151E-002  alpha = 
  0.152346989114129     
 delta_qm =   0.340408E-03 delta_en =   0.200236E+00 tol =   0.100000E-04
 Iteration #          6
  pAp =   2.100230324005203E-002  rzold =   4.273610170564605E-003  alpha = 
  0.203482928596836     
 delta_qm =   0.157997E-03 delta_en =   0.431360E-01 tol =   0.100000E-04
 Iteration #          7
  pAp =   3.371437359778103E-003  rzold =   6.208318280907055E-004  alpha = 
  0.184144553743560     
 delta_qm =   0.112107E-03 delta_en =   0.217174E-01 tol =   0.100000E-04
 Iteration #          8
  pAp =   4.618329057953475E-004  rzold =   1.434382765525263E-004  alpha = 
  0.310584791063130     
 delta_qm =   0.591237E-04 delta_en =   0.604042E-02 tol =   0.100000E-04
 Iteration #          9
  pAp =   1.101312041984833E-003  rzold =   9.493816607694232E-005  alpha = 
  8.620460183640649E-002
 delta_qm =   0.440232E-04 delta_en =   0.334893E-02 tol =   0.100000E-04
 Iteration #         10
  pAp =   9.683910937560854E-005  rzold =   2.655827374523800E-005  alpha = 
  0.274251528297589     
 delta_qm =   0.217582E-04 delta_en =   0.818071E-03 tol =   0.100000E-04
 Iteration #         11
  pAp =   6.177785204240697E-005  rzold =   9.537132599694317E-006  alpha = 
  0.154377860096975     
 delta_qm =   0.152384E-04 delta_en =   0.401259E-03 tol =   0.100000E-04
 Iteration #         12
  pAp =   7.653716142630312E-006  rzold =   2.174613451081448E-006  alpha = 
  0.284125176653613     
 delta_qm =   0.910232E-05 delta_en =   0.143169E-03 tol =   0.100000E-04
 Iteration #         13
  pAp =   1.543848194837481E-005  rzold =   1.307193129495348E-006  alpha = 
  8.467109226583991E-002
 delta_qm =   0.762321E-05 delta_en =   0.100420E-03 tol =   0.100000E-04
 Iteration #         14
  pAp =   1.005929707268301E-006  rzold =   3.569117822855090E-007  alpha = 
  0.354807875447617     
 delta_qm =   0.467999E-05 delta_en =   0.378472E-04 tol =   0.100000E-04
 Iteration #         15
  pAp =   2.433046692903301E-005  rzold =   7.123758534653884E-007  alpha = 
  2.927916901649454E-002
 delta_qm =   0.449014E-05 delta_en =   0.348388E-04 tol =   0.100000E-04
 Iteration #         16
  pAp =   5.452722126115045E-007  rzold =   1.784760137742495E-007  alpha = 
  0.327315439236237     
 delta_qm =   0.211382E-05 delta_en =   0.772114E-05 tol =   0.100000E-04
 Charges are converged, EXIT

%%%% ELECTRONS %%%%%%%%%%%%%%%%%%%%%%%%%%%%%%%%%%%%%%%%%%%%%%%%%%%%%%%%%%%%%%%%%
 number of electrons        =         30
 total electronic charge    =     30.0000000
 number of spin components  =  1

%%%% BOUNDARY %%%%%%%%%%%%%%%%%%%%%%%%%%%%%%%%%%%%%%%%%%%%%%%%%%%%%%%%%%%%%%%%%%
 boundary mode              = electronic           
 boundary is built as a function of a smooth density
 function type              =  2 
 using the modified SCCS function with parameters 
 rhomax                     =      0.0050000 
 rhomin                     =      0.0001000 
 volume of the QM region    =    969.9397268 
 surface of the QM region   =    503.5554720 

%%%% DIELECTRIC %%%%%%%%%%%%%%%%%%%%%%%%%%%%%%%%%%%%%%%%%%%%%%%%%%%%%%%%%%%%%%%%%
 dielectric build on homogeneous background
 environment bulk permitt.  =     20.0000000 
 dielectric flags
 need gradient              =  F 
 need factor depend. sqrt   =  T 
 total dielectric charge    =      0.0006691
