
     Program PWSCF v.6.3MaX starts on 21Apr2019 at 23:22:14 

     This program is part of the open-source Quantum ESPRESSO suite
     for quantum simulation of materials; please cite
         "P. Giannozzi et al., J. Phys.:Condens. Matter 21 395502 (2009);
         "P. Giannozzi et al., J. Phys.:Condens. Matter 29 465901 (2017);
          URL http://www.quantum-espresso.org", 
     in publications or presentations arising from this work. More details at
     http://www.quantum-espresso.org/quote

     Parallel version (MPI), running on     1 processors

     MPI processes distributed on     1 nodes
     Reading input from pw.in

     Current dimensions of program PWSCF are:
     Max number of different atomic species (ntypx) = 10
     Max number of k-points (npk) =  40000
     Max angular momentum in pseudopotentials (lmaxx) =  3
               file N.pbe-rrkjus.UPF: wavefunction(s)  2S renormalized
               file C.pbe-rrkjus.UPF: wavefunction(s)  2S 2P renormalized
               file H.pbe-rrkjus.UPF: wavefunction(s)  1S renormalized

     gamma-point specific algorithms are used

     Subspace diagonalization in iterative solution of the eigenvalue problem:
     a serial algorithm will be used

 
     G-vector sticks info
     --------------------
     sticks:   dense  smooth     PW     G-vecs:    dense   smooth      PW
     Sum        9549    3809    949               701475   177509   22119
 


     bravais-lattice index     =            1
     lattice parameter (alat)  =      20.0000  a.u.
     unit-cell volume          =    8000.0000 (a.u.)^3
     number of atoms/cell      =           11
     number of atomic types    =            3
     number of electrons       =        30.00
     number of Kohn-Sham states=           15
     kinetic-energy cutoff     =      30.0000  Ry
     charge density cutoff     =     300.0000  Ry
     convergence threshold     =      5.0E-04
     mixing beta               =       0.7000
     number of iterations used =            8  plain     mixing
     Exchange-correlation      = SLA PW PBE PBE ( 1  4  3  4 0 0)
 

     Environ Module
     ==============

     Plese cite
         O. Andreussi, I. Dabo and N. Marzari, J. Chem. Phys. 136, 064102 (2012)         
     in publications or presentations arising from this work.

     compensation onset threshold      =               0.1000E+03 
     static permittivity               =                    20.00 
     epsilon calculation mode          =               electronic 

     Electrostatic Setup
     -------------------
     electrostatic problem to solve    = linmodpb                 
     numerical solver adopted          = cg                       
     type of auxiliary density adopted = none                     
     type of core tool for poisson     = fft                      
     type of core tool for s(r) deriv  = analytic                 



     celldm(1)=  20.000000  celldm(2)=   0.000000  celldm(3)=   0.000000
     celldm(4)=   0.000000  celldm(5)=   0.000000  celldm(6)=   0.000000

     crystal axes: (cart. coord. in units of alat)
               a(1) = (   1.000000   0.000000   0.000000 )  
               a(2) = (   0.000000   1.000000   0.000000 )  
               a(3) = (   0.000000   0.000000   1.000000 )  

     reciprocal axes: (cart. coord. in units 2 pi/alat)
               b(1) = (  1.000000  0.000000  0.000000 )  
               b(2) = (  0.000000  1.000000  0.000000 )  
               b(3) = (  0.000000  0.000000  1.000000 )  


     PseudoPot. # 1 for N  read from file:
     /home/fnattino/Programs/quantumespresso/q-e-qe-6.3-develop/Environ/tests/../..//pseudo/N.pbe-rrkjus.UPF
     MD5 check sum: 28c76d763763edb36c62a6ca2be9aebd
     Pseudo is Ultrasoft, Zval =  5.0
     Generated by new atomic code, or converted to UPF format
     Using radial grid of 1257 points,  4 beta functions with: 
                l(1) =   0
                l(2) =   0
                l(3) =   1
                l(4) =   1
     Q(r) pseudized with 0 coefficients 


     PseudoPot. # 2 for C  read from file:
     /home/fnattino/Programs/quantumespresso/q-e-qe-6.3-develop/Environ/tests/../..//pseudo/C.pbe-rrkjus.UPF
     MD5 check sum: c9ac5a99bc85b198593446162950cd17
     Pseudo is Ultrasoft, Zval =  4.0
     Generated by new atomic code, or converted to UPF format
     Using radial grid of  627 points,  4 beta functions with: 
                l(1) =   0
                l(2) =   0
                l(3) =   1
                l(4) =   1
     Q(r) pseudized with 0 coefficients 


     PseudoPot. # 3 for H  read from file:
     /home/fnattino/Programs/quantumespresso/q-e-qe-6.3-develop/Environ/tests/../..//pseudo/H.pbe-rrkjus.UPF
     MD5 check sum: 2d52a7f45632fd764c17cc6affed14c8
     Pseudo is Ultrasoft, Zval =  1.0
     Generated by new atomic code, or converted to UPF format
     Using radial grid of 1061 points,  2 beta functions with: 
                l(1) =   0
                l(2) =   0
     Q(r) pseudized with 0 coefficients 


     atomic species   valence    mass     pseudopotential
        N              5.00    14.00000     N ( 1.00)
        C              4.00    12.00000     C ( 1.00)
        H              1.00     1.00000     H ( 1.00)

     No symmetry found



   Cartesian axes

     site n.     atom                  positions (alat units)
         1           N   tau(   1) = (  -0.1222704   0.0000000   0.0001514  )
         2           C   tau(   2) = (  -0.0616572   0.1123679   0.0001037  )
         3           C   tau(   3) = (   0.0689061   0.1142596   0.0000731  )
         4           C   tau(   4) = (   0.1346968   0.0000000   0.0000659  )
         5           C   tau(   5) = (   0.0689062  -0.1142596   0.0001326  )
         6           C   tau(   6) = (  -0.0616572  -0.1123679   0.0001773  )
         7           H   tau(   7) = (  -0.1206366   0.1969071   0.0000855  )
         8           H   tau(   8) = (   0.1179548   0.2049361   0.0000402  )
         9           H   tau(   9) = (   0.2379293  -0.0000000   0.0000010  )
        10           H   tau(  10) = (   0.1179548  -0.2049361   0.0001604  )
        11           H   tau(  11) = (  -0.1206365  -0.1969070   0.0002440  )

     number of k points=     1
                       cart. coord. in units 2pi/alat
        k(    1) = (   0.0000000   0.0000000   0.0000000), wk =   2.0000000

     Dense  grid:   350738 G-vectors     FFT dimensions: ( 120, 120, 120)

     Smooth grid:    88755 G-vectors     FFT dimensions: (  72,  72,  72)

     Estimated max dynamical RAM per process >     698.77 MB

     Initial potential from superposition of free atoms
     Check: negative starting charge=   -0.000446

     starting charge   29.51871, renormalised to   30.00000

     negative rho (up, down):  4.533E-04 0.000E+00
     Starting wfcs are   29 randomized atomic wfcs

     total cpu time spent up to now is       17.1 secs

     Self-consistent Calculation

     iteration #  1     ecut=    30.00 Ry     beta= 0.70
     Davidson diagonalization with overlap
     ethr =  1.00E-02,  avg # of iterations =  2.0

     negative rho (up, down):  1.360E-04 0.000E+00

     add environment contribution to local potential
     polarization accuracy = 7.2E-06, # of iterations =  14

     total cpu time spent up to now is       22.6 secs

     total energy              =     -82.25340954 Ry
     Harris-Foulkes estimate   =     -83.63781479 Ry
     estimated scf accuracy    <       2.07062588 Ry
     electrostatic embedding   =       0.00000000 Ry
     electrolyte free energy   =       0.00484086 Ry
     correction to one-el term =       0.00000000 Ry

     iteration #  2     ecut=    30.00 Ry     beta= 0.70
     Davidson diagonalization with overlap
     ethr =  6.90E-03,  avg # of iterations =  3.0

     negative rho (up, down):  1.551E-04 0.000E+00

     add environment contribution to local potential
     polarization accuracy = 4.6E-06, # of iterations =  16

     total cpu time spent up to now is       28.6 secs

     total energy              =     -82.44714592 Ry
     Harris-Foulkes estimate   =     -82.81772635 Ry
     estimated scf accuracy    <       0.49787397 Ry
     electrostatic embedding   =      -0.02775027 Ry
     electrolyte free energy   =       0.00475092 Ry
     correction to one-el term =       0.07318950 Ry

     iteration #  3     ecut=    30.00 Ry     beta= 0.70
     Davidson diagonalization with overlap
     ethr =  1.66E-03,  avg # of iterations =  4.0

     negative rho (up, down):  1.952E-04 0.000E+00

     add environment contribution to local potential
     polarization accuracy = 5.3E-06, # of iterations =  16

     total cpu time spent up to now is       34.6 secs

     total energy              =     -82.59189426 Ry
     Harris-Foulkes estimate   =     -83.25885849 Ry
     estimated scf accuracy    <       0.20621507 Ry
     electrostatic embedding   =      -0.02444512 Ry
     electrolyte free energy   =       0.00473305 Ry
     correction to one-el term =       0.58486603 Ry

     iteration #  4     ecut=    30.00 Ry     beta= 0.70
     Davidson diagonalization with overlap
     ethr =  6.87E-04,  avg # of iterations =  4.0

     negative rho (up, down):  5.008E-05 0.000E+00

     add environment contribution to local potential
     polarization accuracy = 7.3E-06, # of iterations =  16

     total cpu time spent up to now is       40.5 secs

     total energy              =     -82.64262644 Ry
     Harris-Foulkes estimate   =     -83.44769217 Ry
     estimated scf accuracy    <       0.00852730 Ry
     electrostatic embedding   =      -0.01663718 Ry
     electrolyte free energy   =       0.00476213 Ry
     correction to one-el term =       0.81273004 Ry

     iteration #  5     ecut=    30.00 Ry     beta= 0.70
     Davidson diagonalization with overlap
     ethr =  2.84E-05,  avg # of iterations =  4.0

     negative rho (up, down):  5.255E-05 0.000E+00

     add environment contribution to local potential
     polarization accuracy = 7.7E-06, # of iterations =  16

     total cpu time spent up to now is       46.5 secs

     total energy              =     -82.64562846 Ry
     Harris-Foulkes estimate   =     -83.60331370 Ry
     estimated scf accuracy    <       0.00114819 Ry
     electrostatic embedding   =      -0.01813989 Ry
     electrolyte free energy   =       0.00474770 Ry
     correction to one-el term =       0.97063351 Ry

     iteration #  6     ecut=    30.00 Ry     beta= 0.70
     Davidson diagonalization with overlap
     ethr =  3.83E-06,  avg # of iterations =  3.0

     negative rho (up, down):  1.385E-04 0.000E+00

     the potential shift due to the Gaussian-smeared nuclei is    -0.0801 ev

     total cpu time spent up to now is       48.5 secs

     End of self-consistent calculation

          k = 0.0000 0.0000 0.0000 ( 11060 PWs)   bands (ev):

   -23.2619 -19.6456 -18.8659 -15.3941 -15.2857 -12.8118 -11.6567 -11.2064
   -10.4484  -9.7879  -9.4676  -8.6937  -7.0545  -6.6514  -5.5905

     highest occupied level (ev):    -5.5905

!    total energy              =     -82.64589918 Ry
     Harris-Foulkes estimate   =     -83.64580978 Ry
     estimated scf accuracy    <       0.00008910 Ry

     The total energy is the sum of the following terms:

     one-electron contribution =    -292.43621306 Ry
     hartree contribution      =     149.40556313 Ry
     xc contribution           =     -25.97257319 Ry
     ewald contribution        =      85.35745671 Ry
     electrostatic embedding   =      -0.01802989 Ry
     electrolyte free energy   =       0.00474644 Ry
     correction to one-el term =       1.01315068 Ry

     WARNING: you are using the parabolic pbc correction;
              the potential shift above must be added to 
              band and Fermi energies.

     convergence has been achieved in   6 iterations

     Forces acting on atoms (cartesian axes, Ry/au):

     atom    1 type  1   force =    -0.04642391    0.00000172    0.00000357
     atom    2 type  2   force =    -0.00609706   -0.06242566    0.00002609
     atom    3 type  2   force =     0.02085302    0.01692391   -0.00004607
     atom    4 type  2   force =     0.00615197   -0.00000312    0.00000578
     atom    5 type  2   force =     0.02086077   -0.01691327    0.00000644
     atom    6 type  2   force =    -0.00611360    0.06242671    0.00001167
     atom    7 type  3   force =     0.00204077    0.00194915    0.00000897
     atom    8 type  3   force =     0.00533185   -0.00365920   -0.00000836
     atom    9 type  3   force =    -0.00397945    0.00000266    0.00002916
     atom   10 type  3   force =     0.00533975    0.00364683   -0.00002496
     atom   11 type  3   force =     0.00203589   -0.00194972   -0.00001230

     Total force =     0.107794     Total SCF correction =     0.015458
     SCF correction compared to forces is large: reduce conv_thr to get better values

     Writing output data file pwscf.save/
 
     init_run     :     15.86s CPU     16.64s WALL (       1 calls)
     electrons    :     27.57s CPU     31.39s WALL (       1 calls)
     forces       :     20.66s CPU     20.98s WALL (       1 calls)

     Called by init_run:
     wfcinit      :      0.18s CPU      0.18s WALL (       1 calls)
     potinit      :      1.47s CPU      1.56s WALL (       1 calls)
     hinit0       :     13.86s CPU     14.27s WALL (       1 calls)

     Called by electrons:
     c_bands      :      1.80s CPU      1.82s WALL (       6 calls)
     sum_band     :      2.04s CPU      2.74s WALL (       6 calls)
     v_of_rho     :      3.17s CPU      3.45s WALL (       7 calls)
     newd         :      1.41s CPU      2.30s WALL (       7 calls)
     mix_rho      :      0.30s CPU      0.30s WALL (       6 calls)

     Called by c_bands:
     init_us_2    :      0.05s CPU      0.05s WALL (      13 calls)
     regterg      :      1.69s CPU      1.72s WALL (       6 calls)

     Called by sum_band:
     sum_band:bec :      0.00s CPU      0.00s WALL (       6 calls)
     addusdens    :      1.54s CPU      2.22s WALL (       6 calls)

     Called by *egterg:
     h_psi        :      1.68s CPU      1.70s WALL (      27 calls)
     s_psi        :      0.04s CPU      0.03s WALL (      27 calls)
     g_psi        :      0.02s CPU      0.01s WALL (      20 calls)
     rdiaghg      :      0.01s CPU      0.01s WALL (      26 calls)

     Called by h_psi:
     h_psi:pot    :      1.68s CPU      1.69s WALL (      27 calls)
     h_psi:calbec :      0.04s CPU      0.04s WALL (      27 calls)
     vloc_psi     :      1.59s CPU      1.61s WALL (      27 calls)
     add_vuspsi   :      0.04s CPU      0.04s WALL (      27 calls)

     General routines
     calbec       :      0.07s CPU      0.06s WALL (      37 calls)
     fft          :      5.83s CPU      5.94s WALL (     335 calls)
     ffts         :      0.04s CPU      0.04s WALL (      13 calls)
     fftw         :      1.44s CPU      1.46s WALL (     364 calls)
     interpolate  :      0.17s CPU      0.20s WALL (       7 calls)
 
     Parallel routines
 
     Environ routines
     calc_eelect  :      0.00s CPU      0.03s WALL (      12 calls)
     calc_velect  :     14.92s CPU     16.60s WALL (      10 calls)
     dielectric   :      0.38s CPU      0.38s WALL (       9 calls)
     electrolyte  :      0.01s CPU      0.01s WALL (       2 calls)
     calc_felect  :      0.19s CPU      0.20s WALL (       1 calls)
 
     PWSCF        :  1m 4.55s CPU     1m 9.50s WALL

 
   This run was terminated on:  23:23:23  21Apr2019            

=------------------------------------------------------------------------------=
   JOB DONE.
=------------------------------------------------------------------------------=

%%%% IONS %%%%%%%%%%%%%%%%%%%%%%%%%%%%%%%%%%%%%%%%%%%%%%%%%%%%%%%%%%%%%%%%%%%%%%
 number of ions             =         11
 ionic center of charge     =      0.0072664     0.0000000     0.0001166
 total ionic charge         =    -30.0000000
 ionic dipole               =      0.0000000     0.0000000     0.0000000
 ionic quadrupole (pc)      =   -131.0719095  -146.7987094    -0.0000314
 ionic quadrupole (gauss)   =   -134.8219095  -150.5487094    -3.7500314
 ion   1 type =  1 coordinates =     -2.4454071     0.0000002     0.0030272
 ion   2 type =  2 coordinates =     -1.2331440     2.2473584     0.0020749
 ion   3 type =  2 coordinates =      1.3781229     2.2851921     0.0014627
 ion   4 type =  2 coordinates =      2.6939354     0.0000002     0.0013189
 ion   5 type =  2 coordinates =      1.3781232    -2.2851919     0.0026521
 ion   6 type =  2 coordinates =     -1.2331437    -2.2473574     0.0035464
 ion   7 type =  3 coordinates =     -2.4127312     3.9381412     0.0017094
 ion   8 type =  3 coordinates =      2.3590962     4.0987221     0.0008035
 ion   9 type =  3 coordinates =      4.7585861    -0.0000002     0.0000199
 ion  10 type =  3 coordinates =      2.3590968    -4.0987217     0.0032074
 ion  11 type =  3 coordinates =     -2.4127303    -3.9381403     0.0048805

%%%% SYSTEM %%%%%%%%%%%%%%%%%%%%%%%%%%%%%%%%%%%%%%%%%%%%%%%%%%%%%%%%%%%%%%%%%%%%
 system is built from all present ionic types
 system defined dimension   =  0 
 system defined axis        =  3 
 system center              =      0.0072664     0.0000000     0.0001166 
 system width               =      0.2348011 

%%%% DIELECTRIC %%%%%%%%%%%%%%%%%%%%%%%%%%%%%%%%%%%%%%%%%%%%%%%%%%%%%%%%%%%%%%%%%
 dielectric build on homogeneous background
 environment bulk permitt.  =     20.0000000 
 dielectric flags
 need gradient              =  F 
 need factor depend. sqrt   =  T 
 total dielectric charge    =      0.0000000

%%%% BOUNDARY %%%%%%%%%%%%%%%%%%%%%%%%%%%%%%%%%%%%%%%%%%%%%%%%%%%%%%%%%%%%%%%%%%
 boundary label             = electrolyte          
 boundary mode              = ionic                
 boundary is built from soft-spheres centered on ionic positions
 solvent-dependent scaling  =      1.5000000 
 softness parameter         =      0.5000000 
 volume of the QM region    =   1716.7618872 
 surface of the QM region   =    717.2136638 

%%%% ELECTROLYTE %%%%%%%%%%%%%%%%%%%%%%%%%%%%%%%%%%%%%%%%%%%%%%%%%%%%%%%%%%%%%%%%
 number electrol. species   =    2
 solvent temperature        =   300.0
 Debye length / sqrt(eps)   =      0.2301070
 modified Poisson-Boltzmann 
 maximum concentration      =      0.0190986
 electrolyte species    1
 bulk concentration  (a.u.) =      0.7139E-03
 bulk concentration (mol/L) =      8.0000000
 ionic charge               =   -1.00
 electrolyte species    2
 bulk concentration  (a.u.) =      0.7139E-03
 bulk concentration (mol/L) =      8.0000000
 ionic charge               =    1.00
 electrolyte flags
 linearized                 =  T
 total electrolyte charge   =      0.0000000

%%%% ELECTRONS %%%%%%%%%%%%%%%%%%%%%%%%%%%%%%%%%%%%%%%%%%%%%%%%%%%%%%%%%%%%%%%%%
 number of electrons        =         30
 total electronic charge    =     30.0000000
 number of spin components  =  1

%%%% BOUNDARY %%%%%%%%%%%%%%%%%%%%%%%%%%%%%%%%%%%%%%%%%%%%%%%%%%%%%%%%%%%%%%%%%%
 boundary label             = solvent              
 boundary mode              = electronic           
 boundary is built as a function of a smooth density
 function type              =  2 
 using the modified SCCS function with parameters 
 rhomax                     =      0.0050000 
 rhomin                     =      0.0001000 
 volume of the QM region    =   2407.1059985 
 surface of the QM region   =    815.5587051 

%%%% DIELECTRIC %%%%%%%%%%%%%%%%%%%%%%%%%%%%%%%%%%%%%%%%%%%%%%%%%%%%%%%%%%%%%%%%%
 dielectric build on homogeneous background
 environment bulk permitt.  =     20.0000000 
 dielectric flags
 need gradient              =  F 
 need factor depend. sqrt   =  T 
 total dielectric charge    =      0.0000000

%%%% DENSITY %%%%%%%%%%%%%%%%%%%%%%%%%%%%%%%%%%%%%%%%%%%%%%%%%%%%%%%%%%%%%%%%%%%
 density label              = vreference                                                                      
 integral of density        =      0.000000000    

%%%% DENSITY %%%%%%%%%%%%%%%%%%%%%%%%%%%%%%%%%%%%%%%%%%%%%%%%%%%%%%%%%%%%%%%%%%%
 density label              = velectrostatic                                                                  
 integral of density        =      0.000000000    

%%%% CHARGES %%%%%%%%%%%%%%%%%%%%%%%%%%%%%%%%%%%%%%%%%%%%%%%%%%%%%%%%%%%%%%%%%%%
 total number of charges    =         41
 total charge               =      0.0000000

%%%% DENSITY %%%%%%%%%%%%%%%%%%%%%%%%%%%%%%%%%%%%%%%%%%%%%%%%%%%%%%%%%%%%%%%%%%%
 density label              = vsoftcavity                                                                     
 integral of density        =      0.000000000    

%%%% ELECTRONS %%%%%%%%%%%%%%%%%%%%%%%%%%%%%%%%%%%%%%%%%%%%%%%%%%%%%%%%%%%%%%%%%
 number of electrons        =         30
 total electronic charge    =     30.0000000
 number of spin components  =  1

%%%% BOUNDARY %%%%%%%%%%%%%%%%%%%%%%%%%%%%%%%%%%%%%%%%%%%%%%%%%%%%%%%%%%%%%%%%%%
 boundary label             = solvent              
 boundary mode              = electronic           
 boundary is built as a function of a smooth density
 function type              =  2 
 using the modified SCCS function with parameters 
 rhomax                     =      0.0050000 
 rhomin                     =      0.0001000 
 volume of the QM region    =   1074.1872031 
 surface of the QM region   =    527.4240928 

%%%% DIELECTRIC %%%%%%%%%%%%%%%%%%%%%%%%%%%%%%%%%%%%%%%%%%%%%%%%%%%%%%%%%%%%%%%%%
 dielectric build on homogeneous background
 environment bulk permitt.  =     20.0000000 
 dielectric flags
 need gradient              =  F 
 need factor depend. sqrt   =  T 
 total dielectric charge    =      0.0000000

%%%% DENSITY %%%%%%%%%%%%%%%%%%%%%%%%%%%%%%%%%%%%%%%%%%%%%%%%%%%%%%%%%%%%%%%%%%%
 density label              = vreference                                                                      
 integral of density        =    -0.6446201597E-12

%%%% COMPUTE ELECTROSTATIC POTENTIAL %%%%%%%%%%%%%%%%%%%%%%%%%%%%%%%%%%%%%%%%%%%
 Iteration #          1
  pAp =    124.401677976990       rzold =    120.820610365997       alpha = 
  0.971213671155986     
 delta_qm =   0.157493E-01 delta_en =   0.428616E+03 tol =   0.100000E-04
 Iteration #          2
  pAp =    6239.40949609978       rzold =    139.725542285932       alpha = 
  2.239403302079695E-002
 delta_qm =   0.351751E-02 delta_en =   0.213803E+02 tol =   0.100000E-04
 Iteration #          3
  pAp =    10.1220292608516       rzold =    1.33579791257922       alpha = 
  0.131969378684333     
 delta_qm =   0.150401E-02 delta_en =   0.390881E+01 tol =   0.100000E-04
 Iteration #          4
  pAp =   0.753461034847985       rzold =   0.134213476643811       alpha = 
  0.178129286633766     
 delta_qm =   0.697614E-03 delta_en =   0.840957E+00 tol =   0.100000E-04
 Iteration #          5
  pAp =   0.460649314068514       rzold =   4.410825558628317E-002  alpha = 
  9.575235268823776E-002
 delta_qm =   0.418857E-03 delta_en =   0.303163E+00 tol =   0.100000E-04
 Iteration #          6
  pAp =   8.492088259546189E-002  rzold =   1.176867422556276E-002  alpha = 
  0.138583983890338     
 delta_qm =   0.230552E-03 delta_en =   0.918507E-01 tol =   0.100000E-04
 Iteration #          7
  pAp =   1.024755758031353E-002  rzold =   1.934842569402604E-003  alpha = 
  0.188810119312685     
 delta_qm =   0.123808E-03 delta_en =   0.264873E-01 tol =   0.100000E-04
 Iteration #          8
  pAp =   1.431306475147471E-003  rzold =   2.523485946330231E-004  alpha = 
  0.176306471754781     
 delta_qm =   0.918144E-04 delta_en =   0.145668E-01 tol =   0.100000E-04
 Iteration #          9
  pAp =   2.083099587441624E-003  rzold =   2.898405036317161E-004  alpha = 
  0.139139052870576     
 delta_qm =   0.472556E-04 delta_en =   0.385878E-02 tol =   0.100000E-04
 Iteration #         10
  pAp =   1.115380481472211E-004  rzold =   3.376590807740128E-005  alpha = 
  0.302729953036591     
 delta_qm =   0.239290E-04 delta_en =   0.989447E-03 tol =   0.100000E-04
 Iteration #         11
  pAp =   8.812428023633679E-005  rzold =   1.562676715546341E-005  alpha = 
  0.177326465686354     
 delta_qm =   0.127429E-04 delta_en =   0.280594E-03 tol =   0.100000E-04
 Iteration #         12
  pAp =   1.835456275920009E-005  rzold =   3.998454632038164E-006  alpha = 
  0.217845267386387     
 delta_qm =   0.641748E-05 delta_en =   0.711661E-04 tol =   0.100000E-04
 Iteration #         13
  pAp =   2.014352647895585E-005  rzold =   1.721304174250430E-006  alpha = 
  8.545197763900449E-002
 delta_qm =   0.460119E-05 delta_en =   0.365834E-04 tol =   0.100000E-04
 Iteration #         14
  pAp =   1.424593975023037E-006  rzold =   3.957436310046594E-007  alpha = 
  0.277793980560854     
 delta_qm =   0.204019E-05 delta_en =   0.719261E-05 tol =   0.100000E-04
 Charges are converged, EXIT

%%%% DENSITY %%%%%%%%%%%%%%%%%%%%%%%%%%%%%%%%%%%%%%%%%%%%%%%%%%%%%%%%%%%%%%%%%%%
 density label              = velectrostatic                                                                  
 integral of density        =     -277.6913935    

%%%% CHARGES %%%%%%%%%%%%%%%%%%%%%%%%%%%%%%%%%%%%%%%%%%%%%%%%%%%%%%%%%%%%%%%%%%%
 total number of charges    =         41
 total charge               =     -0.0000000

%%%% DENSITY %%%%%%%%%%%%%%%%%%%%%%%%%%%%%%%%%%%%%%%%%%%%%%%%%%%%%%%%%%%%%%%%%%%
 density label              = vsoftcavity                                                                     
 integral of density        =      16.17761435    

%%%% ELECTRONS %%%%%%%%%%%%%%%%%%%%%%%%%%%%%%%%%%%%%%%%%%%%%%%%%%%%%%%%%%%%%%%%%
 number of electrons        =         30
 total electronic charge    =     30.0000000
 number of spin components  =  1

%%%% BOUNDARY %%%%%%%%%%%%%%%%%%%%%%%%%%%%%%%%%%%%%%%%%%%%%%%%%%%%%%%%%%%%%%%%%%
 boundary label             = solvent              
 boundary mode              = electronic           
 boundary is built as a function of a smooth density
 function type              =  2 
 using the modified SCCS function with parameters 
 rhomax                     =      0.0050000 
 rhomin                     =      0.0001000 
 volume of the QM region    =   1023.3610525 
 surface of the QM region   =    515.6944051 

%%%% DIELECTRIC %%%%%%%%%%%%%%%%%%%%%%%%%%%%%%%%%%%%%%%%%%%%%%%%%%%%%%%%%%%%%%%%%
 dielectric build on homogeneous background
 environment bulk permitt.  =     20.0000000 
 dielectric flags
 need gradient              =  F 
 need factor depend. sqrt   =  T 
 total dielectric charge    =     -0.0024608

%%%% DENSITY %%%%%%%%%%%%%%%%%%%%%%%%%%%%%%%%%%%%%%%%%%%%%%%%%%%%%%%%%%%%%%%%%%%
 density label              = vreference                                                                      
 integral of density        =     0.2459267358E-12

%%%% COMPUTE ELECTROSTATIC POTENTIAL %%%%%%%%%%%%%%%%%%%%%%%%%%%%%%%%%%%%%%%%%%%
 Warning: bad guess with residual norm =   0.271154E+03, reset to no guess
 Iteration #          1
  pAp =    124.372513536408       rzold =    122.301379136592       alpha = 
  0.983347330202425     
 delta_qm =   0.123847E-01 delta_en =   0.265043E+03 tol =   0.100000E-04
 Iteration #          2
  pAp =    3545.46949226664       rzold =    78.5295264928241       alpha = 
  2.214926025004934E-002
 delta_qm =   0.363617E-02 delta_en =   0.228471E+02 tol =   0.100000E-04
 Iteration #          3
  pAp =    19.3523133456514       rzold =    1.66499928350231       alpha = 
  8.603618873691138E-002
 delta_qm =   0.197996E-02 delta_en =   0.677417E+01 tol =   0.100000E-04
 Iteration #          4
  pAp =    3.42349174619433       rzold =   0.391463188684681       alpha = 
  0.114346175690315     
 delta_qm =   0.955369E-03 delta_en =   0.157720E+01 tol =   0.100000E-04
 Iteration #          5
  pAp =   0.377409504228620       rzold =   5.938087544140790E-002  alpha = 
  0.157338049985719     
 delta_qm =   0.380387E-03 delta_en =   0.250032E+00 tol =   0.100000E-04
 Iteration #          6
  pAp =   3.162616509471943E-002  rzold =   6.004622578545107E-003  alpha = 
  0.189862493936949     
 delta_qm =   0.191850E-03 delta_en =   0.636013E-01 tol =   0.100000E-04
 Iteration #          7
  pAp =   5.951632507926749E-003  rzold =   1.102030529495564E-003  alpha = 
  0.185164411281747     
 delta_qm =   0.117828E-03 delta_en =   0.239904E-01 tol =   0.100000E-04
 Iteration #          8
  pAp =   7.078871345215421E-004  rzold =   1.792939882458913E-004  alpha = 
  0.253280472976918     
 delta_qm =   0.748980E-04 delta_en =   0.969357E-02 tol =   0.100000E-04
 Iteration #          9
  pAp =   2.214207289082361E-003  rzold =   2.165517209823269E-004  alpha = 
  9.780101531147653E-002
 delta_qm =   0.467211E-04 delta_en =   0.377198E-02 tol =   0.100000E-04
 Iteration #         10
  pAp =   1.053456500913775E-004  rzold =   3.187213156291963E-005  alpha = 
  0.302548150163519     
 delta_qm =   0.212323E-04 delta_en =   0.779004E-03 tol =   0.100000E-04
 Iteration #         11
  pAp =   8.689384660495354E-005  rzold =   1.290458327414522E-005  alpha = 
  0.148509748139169     
 delta_qm =   0.129233E-04 delta_en =   0.288598E-03 tol =   0.100000E-04
 Iteration #         12
  pAp =   1.652941734401538E-005  rzold =   2.861084624629204E-006  alpha = 
  0.173090470467496     
 delta_qm =   0.892978E-05 delta_en =   0.137793E-03 tol =   0.100000E-04
 Iteration #         13
  pAp =   2.203231556120651E-005  rzold =   2.598739744402523E-006  alpha = 
  0.117951276486720     
 delta_qm =   0.537321E-05 delta_en =   0.498898E-04 tol =   0.100000E-04
 Iteration #         14
  pAp =   8.145048828351190E-007  rzold =   2.696314110952520E-007  alpha = 
  0.331037194223713     
 delta_qm =   0.342237E-05 delta_en =   0.202395E-04 tol =   0.100000E-04
 Iteration #         15
  pAp =   1.084343982789463E-006  rzold =   8.832827283621667E-008  alpha = 
  8.145779774513354E-002
 delta_qm =   0.289647E-05 delta_en =   0.144971E-04 tol =   0.100000E-04
 Iteration #         16
  pAp =   1.625731767264342E-006  rzold =   2.061476433903452E-007  alpha = 
  0.126802986532787     
 delta_qm =   0.163839E-05 delta_en =   0.463852E-05 tol =   0.100000E-04
 Charges are converged, EXIT

%%%% DENSITY %%%%%%%%%%%%%%%%%%%%%%%%%%%%%%%%%%%%%%%%%%%%%%%%%%%%%%%%%%%%%%%%%%%
 density label              = velectrostatic                                                                  
 integral of density        =     -285.5702273    

%%%% CHARGES %%%%%%%%%%%%%%%%%%%%%%%%%%%%%%%%%%%%%%%%%%%%%%%%%%%%%%%%%%%%%%%%%%%
 total number of charges    =         41
 total charge               =     -0.0000000

%%%% DENSITY %%%%%%%%%%%%%%%%%%%%%%%%%%%%%%%%%%%%%%%%%%%%%%%%%%%%%%%%%%%%%%%%%%%
 density label              = vsoftcavity                                                                     
 integral of density        =      11.40374162    

%%%% ELECTRONS %%%%%%%%%%%%%%%%%%%%%%%%%%%%%%%%%%%%%%%%%%%%%%%%%%%%%%%%%%%%%%%%%
 number of electrons        =         30
 total electronic charge    =     30.0000000
 number of spin components  =  1

%%%% BOUNDARY %%%%%%%%%%%%%%%%%%%%%%%%%%%%%%%%%%%%%%%%%%%%%%%%%%%%%%%%%%%%%%%%%%
 boundary label             = solvent              
 boundary mode              = electronic           
 boundary is built as a function of a smooth density
 function type              =  2 
 using the modified SCCS function with parameters 
 rhomax                     =      0.0050000 
 rhomin                     =      0.0001000 
 volume of the QM region    =    991.2039567 
 surface of the QM region   =    508.2822860 

%%%% DIELECTRIC %%%%%%%%%%%%%%%%%%%%%%%%%%%%%%%%%%%%%%%%%%%%%%%%%%%%%%%%%%%%%%%%%
 dielectric build on homogeneous background
 environment bulk permitt.  =     20.0000000 
 dielectric flags
 need gradient              =  F 
 need factor depend. sqrt   =  T 
 total dielectric charge    =     -0.0007816

%%%% DENSITY %%%%%%%%%%%%%%%%%%%%%%%%%%%%%%%%%%%%%%%%%%%%%%%%%%%%%%%%%%%%%%%%%%%
 density label              = vreference                                                                      
 integral of density        =     0.3451395548E-12

%%%% COMPUTE ELECTROSTATIC POTENTIAL %%%%%%%%%%%%%%%%%%%%%%%%%%%%%%%%%%%%%%%%%%%
 Warning: bad guess with residual norm =   0.181627E+03, reset to no guess
 Iteration #          1
  pAp =    124.080582956434       rzold =    122.825869667033       alpha = 
  0.989887915905092     
 delta_qm =   0.101787E-01 delta_en =   0.179032E+03 tol =   0.100000E-04
 Iteration #          2
  pAp =    2232.04012290456       rzold =    48.5138888721102       alpha = 
  2.173522257699338E-002
 delta_qm =   0.308330E-02 delta_en =   0.164277E+02 tol =   0.100000E-04
 Iteration #          3
  pAp =    10.8692475687488       rzold =   0.998519665414920       alpha = 
  9.186649389474331E-002
 delta_qm =   0.160058E-02 delta_en =   0.442690E+01 tol =   0.100000E-04
 Iteration #          4
  pAp =    2.28303260549325       rzold =   0.242671444403756       alpha = 
  0.106293464149333     
 delta_qm =   0.811945E-03 delta_en =   0.113919E+01 tol =   0.100000E-04
 Iteration #          5
  pAp =   0.273345043561070       rzold =   4.304704692105520E-002  alpha = 
  0.157482449142846     
 delta_qm =   0.335366E-03 delta_en =   0.194349E+00 tol =   0.100000E-04
 Iteration #          6
  pAp =   2.335826657022769E-002  rzold =   4.494715792843566E-003  alpha = 
  0.192425057712652     
 delta_qm =   0.166556E-03 delta_en =   0.479364E-01 tol =   0.100000E-04
 Iteration #          7
  pAp =   4.116805894287230E-003  rzold =   7.586398818585036E-004  alpha = 
  0.184278759149477     
 delta_qm =   0.108913E-03 delta_en =   0.204976E-01 tol =   0.100000E-04
 Iteration #          8
  pAp =   4.767190167704213E-004  rzold =   1.374837297180092E-004  alpha = 
  0.288395731828375     
 delta_qm =   0.634136E-04 delta_en =   0.694878E-02 tol =   0.100000E-04
 Iteration #          9
  pAp =   1.661220570571084E-003  rzold =   1.453767419810486E-004  alpha = 
  8.751200446011323E-002
 delta_qm =   0.421839E-04 delta_en =   0.307494E-02 tol =   0.100000E-04
 Iteration #         10
  pAp =   7.854079959538382E-005  rzold =   2.336298111510279E-005  alpha = 
  0.297462990387940     
 delta_qm =   0.202934E-04 delta_en =   0.711627E-03 tol =   0.100000E-04
 Iteration #         11
  pAp =   6.418461909954743E-005  rzold =   9.953675282049985E-006  alpha = 
  0.155078824517324     
 delta_qm =   0.129254E-04 delta_en =   0.288688E-03 tol =   0.100000E-04
 Iteration #         12
  pAp =   8.668180823035867E-006  rzold =   2.064013331113488E-006  alpha = 
  0.238113783416738     
 delta_qm =   0.793518E-05 delta_en =   0.108807E-03 tol =   0.100000E-04
 Iteration #         13
  pAp =   1.943673950145271E-005  rzold =   1.699706308886632E-006  alpha = 
  8.744811899956755E-002
 delta_qm =   0.583515E-05 delta_en =   0.588367E-04 tol =   0.100000E-04
 Iteration #         14
  pAp =   6.856256492497840E-007  rzold =   2.475615287441007E-007  alpha = 
  0.361073902376587     
 delta_qm =   0.386810E-05 delta_en =   0.258546E-04 tol =   0.100000E-04
 Iteration #         15
  pAp =   1.701303261210977E-006  rzold =   1.248029882637047E-007  alpha = 
  7.335728503504470E-002
 delta_qm =   0.325975E-05 delta_en =   0.183616E-04 tol =   0.100000E-04
 Iteration #         16
  pAp =   1.903564225320727E-006  rzold =   2.593281486882785E-007  alpha = 
  0.136232938841128     
 delta_qm =   0.174855E-05 delta_en =   0.528325E-05 tol =   0.100000E-04
 Charges are converged, EXIT

%%%% DENSITY %%%%%%%%%%%%%%%%%%%%%%%%%%%%%%%%%%%%%%%%%%%%%%%%%%%%%%%%%%%%%%%%%%%
 density label              = velectrostatic                                                                  
 integral of density        =     -279.3324549    

%%%% CHARGES %%%%%%%%%%%%%%%%%%%%%%%%%%%%%%%%%%%%%%%%%%%%%%%%%%%%%%%%%%%%%%%%%%%
 total number of charges    =         41
 total charge               =     -0.0000000

%%%% DENSITY %%%%%%%%%%%%%%%%%%%%%%%%%%%%%%%%%%%%%%%%%%%%%%%%%%%%%%%%%%%%%%%%%%%
 density label              = vsoftcavity                                                                     
 integral of density        =      7.772147136    

%%%% ELECTRONS %%%%%%%%%%%%%%%%%%%%%%%%%%%%%%%%%%%%%%%%%%%%%%%%%%%%%%%%%%%%%%%%%
 number of electrons        =         30
 total electronic charge    =     30.0000000
 number of spin components  =  1

%%%% BOUNDARY %%%%%%%%%%%%%%%%%%%%%%%%%%%%%%%%%%%%%%%%%%%%%%%%%%%%%%%%%%%%%%%%%%
 boundary label             = solvent              
 boundary mode              = electronic           
 boundary is built as a function of a smooth density
 function type              =  2 
 using the modified SCCS function with parameters 
 rhomax                     =      0.0050000 
 rhomin                     =      0.0001000 
 volume of the QM region    =    971.9615103 
 surface of the QM region   =    503.6576868 

%%%% DIELECTRIC %%%%%%%%%%%%%%%%%%%%%%%%%%%%%%%%%%%%%%%%%%%%%%%%%%%%%%%%%%%%%%%%%
 dielectric build on homogeneous background
 environment bulk permitt.  =     20.0000000 
 dielectric flags
 need gradient              =  F 
 need factor depend. sqrt   =  T 
 total dielectric charge    =      0.0000718

%%%% DENSITY %%%%%%%%%%%%%%%%%%%%%%%%%%%%%%%%%%%%%%%%%%%%%%%%%%%%%%%%%%%%%%%%%%%
 density label              = vreference                                                                      
 integral of density        =    -0.9855490909E-13

%%%% COMPUTE ELECTROSTATIC POTENTIAL %%%%%%%%%%%%%%%%%%%%%%%%%%%%%%%%%%%%%%%%%%%
 Warning: bad guess with residual norm =   0.148996E+03, reset to no guess
 Iteration #          1
  pAp =    123.577470546056       rzold =    122.600158933858       alpha = 
  0.992091506583855     
 delta_qm =   0.923267E-02 delta_en =   0.147298E+03 tol =   0.100000E-04
 Iteration #          2
  pAp =    1643.65187328306       rzold =    35.8717997028998       alpha = 
  2.182445095946556E-002
 delta_qm =   0.324607E-02 delta_en =   0.182079E+02 tol =   0.100000E-04
 Iteration #          3
  pAp =    12.6346211377416       rzold =    1.08252288487607       alpha = 
  8.567909342705948E-002
 delta_qm =   0.169671E-02 delta_en =   0.497459E+01 tol =   0.100000E-04
 Iteration #          4
  pAp =    2.24917136483741       rzold =   0.254526973295989       alpha = 
  0.113164775825958     
 delta_qm =   0.826098E-03 delta_en =   0.117925E+01 tol =   0.100000E-04
 Iteration #          5
  pAp =   0.293348449831288       rzold =   4.504125287595220E-002  alpha = 
  0.153541813164026     
 delta_qm =   0.341559E-03 delta_en =   0.201593E+00 tol =   0.100000E-04
 Iteration #          6
  pAp =   2.197095823139615E-002  rzold =   4.407124328825397E-003  alpha = 
  0.200588626240602     
 delta_qm =   0.160249E-03 delta_en =   0.443746E-01 tol =   0.100000E-04
 Iteration #          7
  pAp =   3.591737967290955E-003  rzold =   6.579550485263204E-004  alpha = 
  0.183185704112647     
 delta_qm =   0.111897E-03 delta_en =   0.216361E-01 tol =   0.100000E-04
 Iteration #          8
  pAp =   4.650664615626992E-004  rzold =   1.429678652382150E-004  alpha = 
  0.307413836632768     
 delta_qm =   0.605010E-04 delta_en =   0.632513E-02 tol =   0.100000E-04
 Iteration #          9
  pAp =   1.300021745438797E-003  rzold =   1.105137971843642E-004  alpha = 
  8.500919124784519E-002
 delta_qm =   0.438922E-04 delta_en =   0.332904E-02 tol =   0.100000E-04
 Iteration #         10
  pAp =   9.112473186227924E-005  rzold =   2.583697059408419E-005  alpha = 
  0.283534119289730     
 delta_qm =   0.215655E-04 delta_en =   0.803644E-03 tol =   0.100000E-04
 Iteration #         11
  pAp =   6.449597259745713E-005  rzold =   9.952008139871458E-006  alpha = 
  0.154304334659554     
 delta_qm =   0.148030E-04 delta_en =   0.378654E-03 tol =   0.100000E-04
 Iteration #         12
  pAp =   7.783808490444558E-006  rzold =   2.153262377514664E-006  alpha = 
  0.276633524598918     
 delta_qm =   0.892759E-05 delta_en =   0.137725E-03 tol =   0.100000E-04
 Iteration #         13
  pAp =   1.731470039358006E-005  rzold =   1.455770248082795E-006  alpha = 
  8.407712608313829E-002
 delta_qm =   0.726087E-05 delta_en =   0.911005E-04 tol =   0.100000E-04
 Iteration #         14
  pAp =   9.052295075939861E-007  rzold =   3.334143857338358E-007  alpha = 
  0.368320280035965     
 delta_qm =   0.490786E-05 delta_en =   0.416225E-04 tol =   0.100000E-04
 Iteration #         15
  pAp =   1.768728434664221E-005  rzold =   5.394841021221679E-007  alpha = 
  3.050123984830857E-002
 delta_qm =   0.421251E-05 delta_en =   0.306638E-04 tol =   0.100000E-04
 Iteration #         16
  pAp =   5.724016468717579E-007  rzold =   1.787466431610677E-007  alpha = 
  0.312274858288649     
 delta_qm =   0.205129E-05 delta_en =   0.727103E-05 tol =   0.100000E-04
 Charges are converged, EXIT

%%%% DENSITY %%%%%%%%%%%%%%%%%%%%%%%%%%%%%%%%%%%%%%%%%%%%%%%%%%%%%%%%%%%%%%%%%%%
 density label              = velectrostatic                                                                  
 integral of density        =     -273.6292053    

%%%% CHARGES %%%%%%%%%%%%%%%%%%%%%%%%%%%%%%%%%%%%%%%%%%%%%%%%%%%%%%%%%%%%%%%%%%%
 total number of charges    =         41
 total charge               =     -0.0000000

%%%% DENSITY %%%%%%%%%%%%%%%%%%%%%%%%%%%%%%%%%%%%%%%%%%%%%%%%%%%%%%%%%%%%%%%%%%%
 density label              = vsoftcavity                                                                     
 integral of density        =      7.840722494    

%%%% ELECTRONS %%%%%%%%%%%%%%%%%%%%%%%%%%%%%%%%%%%%%%%%%%%%%%%%%%%%%%%%%%%%%%%%%
 number of electrons        =         30
 total electronic charge    =     30.0000000
 number of spin components  =  1

%%%% BOUNDARY %%%%%%%%%%%%%%%%%%%%%%%%%%%%%%%%%%%%%%%%%%%%%%%%%%%%%%%%%%%%%%%%%%
 boundary label             = solvent              
 boundary mode              = electronic           
 boundary is built as a function of a smooth density
 function type              =  2 
 using the modified SCCS function with parameters 
 rhomax                     =      0.0050000 
 rhomin                     =      0.0001000 
 volume of the QM region    =    969.9399424 
 surface of the QM region   =    503.5557715 

%%%% DIELECTRIC %%%%%%%%%%%%%%%%%%%%%%%%%%%%%%%%%%%%%%%%%%%%%%%%%%%%%%%%%%%%%%%%%
 dielectric build on homogeneous background
 environment bulk permitt.  =     20.0000000 
 dielectric flags
 need gradient              =  F 
 need factor depend. sqrt   =  T 
 total dielectric charge    =      0.0006525

%%%% DENSITY %%%%%%%%%%%%%%%%%%%%%%%%%%%%%%%%%%%%%%%%%%%%%%%%%%%%%%%%%%%%%%%%%%%
 density label              = vreference                                                                      
 integral of density        =    -0.1361873577E-12

%%%% COMPUTE ELECTROSTATIC POTENTIAL %%%%%%%%%%%%%%%%%%%%%%%%%%%%%%%%%%%%%%%%%%%
 Warning: bad guess with residual norm =   0.139318E+03, reset to no guess
 Iteration #          1
  pAp =    123.621024385558       rzold =    122.723067111231       alpha = 
  0.992736209081019     
 delta_qm =   0.893165E-02 delta_en =   0.137850E+03 tol =   0.100000E-04
 Iteration #          2
  pAp =    1480.99039156742       rzold =    32.3937692101039       alpha = 
  2.187304481821769E-002
 delta_qm =   0.325983E-02 delta_en =   0.183626E+02 tol =   0.100000E-04
 Iteration #          3
  pAp =    13.1301010844979       rzold =    1.09500122558508       alpha = 
  8.339625251460495E-002
 delta_qm =   0.170447E-02 delta_en =   0.502022E+01 tol =   0.100000E-04
 Iteration #          4
  pAp =    2.17653322231151       rzold =   0.251626397965618       alpha = 
  0.115608801825862     
 delta_qm =   0.815870E-03 delta_en =   0.115023E+01 tol =   0.100000E-04
 Iteration #          5
  pAp =   0.287091641165633       rzold =   4.376042417738604E-002  alpha = 
  0.152426674631530     
 delta_qm =   0.339717E-03 delta_en =   0.199424E+00 tol =   0.100000E-04
 Iteration #          6
  pAp =   2.092727163262969E-002  rzold =   4.258207175578074E-003  alpha = 
  0.203476461257315     
 delta_qm =   0.157603E-03 delta_en =   0.429213E-01 tol =   0.100000E-04
 Iteration #          7
  pAp =   3.362867162980996E-003  rzold =   6.191659448686583E-004  alpha = 
  0.184118466433804     
 delta_qm =   0.111927E-03 delta_en =   0.216478E-01 tol =   0.100000E-04
 Iteration #          8
  pAp =   4.629296994498886E-004  rzold =   1.430243996799403E-004  alpha = 
  0.308954901467544     
 delta_qm =   0.594814E-04 delta_en =   0.611373E-02 tol =   0.100000E-04
 Iteration #          9
  pAp =   1.138866286284096E-003  rzold =   9.785542193171775E-005  alpha = 
  8.592353914611113E-002
 delta_qm =   0.440915E-04 delta_en =   0.335934E-02 tol =   0.100000E-04
 Iteration #         10
  pAp =   9.508227119916438E-005  rzold =   2.632789166908058E-005  alpha = 
  0.276895906429631     
 delta_qm =   0.218401E-04 delta_en =   0.824237E-03 tol =   0.100000E-04
 Iteration #         11
  pAp =   6.209314423375184E-005  rzold =   9.599282459619858E-006  alpha = 
  0.154594884476828     
 delta_qm =   0.153154E-04 delta_en =   0.405324E-03 tol =   0.100000E-04
 Iteration #         12
  pAp =   7.693768922017740E-006  rzold =   2.179873468172647E-006  alpha = 
  0.283329729586025     
 delta_qm =   0.922865E-05 delta_en =   0.147170E-03 tol =   0.100000E-04
 Iteration #         13
  pAp =   1.601928605947244E-005  rzold =   1.358766738275916E-006  alpha = 
  8.482068009968878E-002
 delta_qm =   0.769019E-05 delta_en =   0.102192E-03 tol =   0.100000E-04
 Iteration #         14
  pAp =   9.209332924314138E-007  rzold =   3.596837856349297E-007  alpha = 
  0.390564429140471     
 delta_qm =   0.462320E-05 delta_en =   0.369343E-04 tol =   0.100000E-04
 Iteration #         15
  pAp =   7.449956287939697E-006  rzold =   3.142118865227989E-007  alpha = 
  4.217633961577175E-002
 delta_qm =   0.448232E-05 delta_en =   0.347175E-04 tol =   0.100000E-04
 Iteration #         16
  pAp =   1.318052681859996E-006  rzold =   2.757256146973991E-007  alpha = 
  0.209191649538851     
 delta_qm =   0.211574E-05 delta_en =   0.773518E-05 tol =   0.100000E-04
 Charges are converged, EXIT

%%%% DENSITY %%%%%%%%%%%%%%%%%%%%%%%%%%%%%%%%%%%%%%%%%%%%%%%%%%%%%%%%%%%%%%%%%%%
 density label              = velectrostatic                                                                  
 integral of density        =     -273.8005028    

%%%% CHARGES %%%%%%%%%%%%%%%%%%%%%%%%%%%%%%%%%%%%%%%%%%%%%%%%%%%%%%%%%%%%%%%%%%%
 total number of charges    =         41
 total charge               =      0.0000000

%%%% DENSITY %%%%%%%%%%%%%%%%%%%%%%%%%%%%%%%%%%%%%%%%%%%%%%%%%%%%%%%%%%%%%%%%%%%
 density label              = vsoftcavity                                                                     
 integral of density        =      7.635098773    

%%%% ELECTRONS %%%%%%%%%%%%%%%%%%%%%%%%%%%%%%%%%%%%%%%%%%%%%%%%%%%%%%%%%%%%%%%%%
 number of electrons        =         30
 total electronic charge    =     30.0000000
 number of spin components  =  1

%%%% BOUNDARY %%%%%%%%%%%%%%%%%%%%%%%%%%%%%%%%%%%%%%%%%%%%%%%%%%%%%%%%%%%%%%%%%%
 boundary label             = solvent              
 boundary mode              = electronic           
 boundary is built as a function of a smooth density
 function type              =  2 
 using the modified SCCS function with parameters 
 rhomax                     =      0.0050000 
 rhomin                     =      0.0001000 
 volume of the QM region    =    969.9399424 
 surface of the QM region   =    503.5557715 

%%%% DIELECTRIC %%%%%%%%%%%%%%%%%%%%%%%%%%%%%%%%%%%%%%%%%%%%%%%%%%%%%%%%%%%%%%%%%
 dielectric build on homogeneous background
 environment bulk permitt.  =     20.0000000 
 dielectric flags
 need gradient              =  F 
 need factor depend. sqrt   =  T 
 total dielectric charge    =      0.0006485

%%%% DENSITY %%%%%%%%%%%%%%%%%%%%%%%%%%%%%%%%%%%%%%%%%%%%%%%%%%%%%%%%%%%%%%%%%%%
 density label              = vreference                                                                      
 integral of density        =    -0.1361873577E-12

%%%% DENSITY %%%%%%%%%%%%%%%%%%%%%%%%%%%%%%%%%%%%%%%%%%%%%%%%%%%%%%%%%%%%%%%%%%%
 density label              = velectrostatic                                                                  
 integral of density        =     -273.8005028    

%%%% CHARGES %%%%%%%%%%%%%%%%%%%%%%%%%%%%%%%%%%%%%%%%%%%%%%%%%%%%%%%%%%%%%%%%%%%
 total number of charges    =         41
 total charge               =      0.0000000

%%%% DENSITY %%%%%%%%%%%%%%%%%%%%%%%%%%%%%%%%%%%%%%%%%%%%%%%%%%%%%%%%%%%%%%%%%%%
 density label              = vsoftcavity                                                                     
 integral of density        =      7.635098773    
