
     Program PWSCF v.6.3MaX starts on 21Apr2019 at 23:23:23 

     This program is part of the open-source Quantum ESPRESSO suite
     for quantum simulation of materials; please cite
         "P. Giannozzi et al., J. Phys.:Condens. Matter 21 395502 (2009);
         "P. Giannozzi et al., J. Phys.:Condens. Matter 29 465901 (2017);
          URL http://www.quantum-espresso.org", 
     in publications or presentations arising from this work. More details at
     http://www.quantum-espresso.org/quote

     Parallel version (MPI), running on     1 processors

     MPI processes distributed on     1 nodes
     Reading input from pw.in

     Current dimensions of program PWSCF are:
     Max number of different atomic species (ntypx) = 10
     Max number of k-points (npk) =  40000
     Max angular momentum in pseudopotentials (lmaxx) =  3
               file N.pbe-rrkjus.UPF: wavefunction(s)  2S renormalized
               file C.pbe-rrkjus.UPF: wavefunction(s)  2S 2P renormalized
               file H.pbe-rrkjus.UPF: wavefunction(s)  1S renormalized

     gamma-point specific algorithms are used

     Subspace diagonalization in iterative solution of the eigenvalue problem:
     a serial algorithm will be used

 
     G-vector sticks info
     --------------------
     sticks:   dense  smooth     PW     G-vecs:    dense   smooth      PW
     Sum        9549    3809    949               701475   177509   22119
 


     bravais-lattice index     =            1
     lattice parameter (alat)  =      20.0000  a.u.
     unit-cell volume          =    8000.0000 (a.u.)^3
     number of atoms/cell      =           11
     number of atomic types    =            3
     number of electrons       =        30.00
     number of Kohn-Sham states=           15
     kinetic-energy cutoff     =      30.0000  Ry
     charge density cutoff     =     300.0000  Ry
     convergence threshold     =      5.0E-04
     mixing beta               =       0.7000
     number of iterations used =            8  plain     mixing
     Exchange-correlation      = SLA PW PBE PBE ( 1  4  3  4 0 0)
 

     Environ Module
     ==============

     Plese cite
         O. Andreussi, I. Dabo and N. Marzari, J. Chem. Phys. 136, 064102 (2012)         
     in publications or presentations arising from this work.

     compensation onset threshold      =               0.1000E+03 
     static permittivity               =                    20.00 
     epsilon calculation mode          =               electronic 

     Electrostatic Setup
     -------------------
     electrostatic problem to solve    = linmodpb                 
     numerical solver adopted          = cg                       
     type of auxiliary density adopted = none                     
     type of core tool for poisson     = fft                      
     type of core tool for s(r) deriv  = analytic                 



     celldm(1)=  20.000000  celldm(2)=   0.000000  celldm(3)=   0.000000
     celldm(4)=   0.000000  celldm(5)=   0.000000  celldm(6)=   0.000000

     crystal axes: (cart. coord. in units of alat)
               a(1) = (   1.000000   0.000000   0.000000 )  
               a(2) = (   0.000000   1.000000   0.000000 )  
               a(3) = (   0.000000   0.000000   1.000000 )  

     reciprocal axes: (cart. coord. in units 2 pi/alat)
               b(1) = (  1.000000  0.000000  0.000000 )  
               b(2) = (  0.000000  1.000000  0.000000 )  
               b(3) = (  0.000000  0.000000  1.000000 )  


     PseudoPot. # 1 for N  read from file:
     /home/fnattino/Programs/quantumespresso/q-e-qe-6.3-develop/Environ/tests/../..//pseudo/N.pbe-rrkjus.UPF
     MD5 check sum: 28c76d763763edb36c62a6ca2be9aebd
     Pseudo is Ultrasoft, Zval =  5.0
     Generated by new atomic code, or converted to UPF format
     Using radial grid of 1257 points,  4 beta functions with: 
                l(1) =   0
                l(2) =   0
                l(3) =   1
                l(4) =   1
     Q(r) pseudized with 0 coefficients 


     PseudoPot. # 2 for C  read from file:
     /home/fnattino/Programs/quantumespresso/q-e-qe-6.3-develop/Environ/tests/../..//pseudo/C.pbe-rrkjus.UPF
     MD5 check sum: c9ac5a99bc85b198593446162950cd17
     Pseudo is Ultrasoft, Zval =  4.0
     Generated by new atomic code, or converted to UPF format
     Using radial grid of  627 points,  4 beta functions with: 
                l(1) =   0
                l(2) =   0
                l(3) =   1
                l(4) =   1
     Q(r) pseudized with 0 coefficients 


     PseudoPot. # 3 for H  read from file:
     /home/fnattino/Programs/quantumespresso/q-e-qe-6.3-develop/Environ/tests/../..//pseudo/H.pbe-rrkjus.UPF
     MD5 check sum: 2d52a7f45632fd764c17cc6affed14c8
     Pseudo is Ultrasoft, Zval =  1.0
     Generated by new atomic code, or converted to UPF format
     Using radial grid of 1061 points,  2 beta functions with: 
                l(1) =   0
                l(2) =   0
     Q(r) pseudized with 0 coefficients 


     atomic species   valence    mass     pseudopotential
        N              5.00    14.00000     N ( 1.00)
        C              4.00    12.00000     C ( 1.00)
        H              1.00     1.00000     H ( 1.00)

     No symmetry found



   Cartesian axes

     site n.     atom                  positions (alat units)
         1           N   tau(   1) = (  -0.1222704   0.0000000   0.0001514  )
         2           C   tau(   2) = (  -0.0616572   0.1123679   0.0001037  )
         3           C   tau(   3) = (   0.0689061   0.1142596   0.0000731  )
         4           C   tau(   4) = (   0.1346968   0.0000000   0.0000659  )
         5           C   tau(   5) = (   0.0689062  -0.1142596   0.0001326  )
         6           C   tau(   6) = (  -0.0616572  -0.1123679   0.0001773  )
         7           H   tau(   7) = (  -0.1206366   0.1969071   0.0000855  )
         8           H   tau(   8) = (   0.1179548   0.2049361   0.0000402  )
         9           H   tau(   9) = (   0.2379293  -0.0000000   0.0000010  )
        10           H   tau(  10) = (   0.1179548  -0.2049361   0.0001604  )
        11           H   tau(  11) = (  -0.1206365  -0.1969070   0.0002440  )

     number of k points=     1
                       cart. coord. in units 2pi/alat
        k(    1) = (   0.0000000   0.0000000   0.0000000), wk =   2.0000000

     Dense  grid:   350738 G-vectors     FFT dimensions: ( 120, 120, 120)

     Smooth grid:    88755 G-vectors     FFT dimensions: (  72,  72,  72)

     Estimated max dynamical RAM per process >     698.77 MB

     Initial potential from superposition of free atoms
     Check: negative starting charge=   -0.000446

     starting charge   29.51871, renormalised to   30.00000

     negative rho (up, down):  4.533E-04 0.000E+00
     Starting wfcs are   29 randomized atomic wfcs

     total cpu time spent up to now is       17.1 secs

     Self-consistent Calculation

     iteration #  1     ecut=    30.00 Ry     beta= 0.70
     Davidson diagonalization with overlap
     ethr =  1.00E-02,  avg # of iterations =  2.0

     negative rho (up, down):  1.360E-04 0.000E+00

     add environment contribution to local potential
     polarization accuracy = 6.8E-06, # of iterations =  14

     total cpu time spent up to now is       22.6 secs

     total energy              =     -82.25342325 Ry
     Harris-Foulkes estimate   =     -83.63781479 Ry
     estimated scf accuracy    <       2.07062588 Ry
     electrostatic embedding   =       0.00000000 Ry
     electrolyte free energy   =       0.00482715 Ry
     correction to one-el term =       0.00000000 Ry

     iteration #  2     ecut=    30.00 Ry     beta= 0.70
     Davidson diagonalization with overlap
     ethr =  6.90E-03,  avg # of iterations =  3.0

     negative rho (up, down):  1.551E-04 0.000E+00

     add environment contribution to local potential
     polarization accuracy = 5.9E-06, # of iterations =  15

     total cpu time spent up to now is       28.4 secs

     total energy              =     -82.44716263 Ry
     Harris-Foulkes estimate   =     -82.81775189 Ry
     estimated scf accuracy    <       0.49786656 Ry
     electrostatic embedding   =      -0.02775116 Ry
     electrolyte free energy   =       0.00473634 Ry
     correction to one-el term =       0.07321803 Ry

     iteration #  3     ecut=    30.00 Ry     beta= 0.70
     Davidson diagonalization with overlap
     ethr =  1.66E-03,  avg # of iterations =  4.0

     negative rho (up, down):  1.952E-04 0.000E+00

     add environment contribution to local potential
     polarization accuracy = 5.2E-06, # of iterations =  16

     total cpu time spent up to now is       34.4 secs

     total energy              =     -82.59191276 Ry
     Harris-Foulkes estimate   =     -83.25901023 Ry
     estimated scf accuracy    <       0.20620367 Ry
     electrostatic embedding   =      -0.02444653 Ry
     electrolyte free energy   =       0.00471860 Ry
     correction to one-el term =       0.58502021 Ry

     iteration #  4     ecut=    30.00 Ry     beta= 0.70
     Davidson diagonalization with overlap
     ethr =  6.87E-04,  avg # of iterations =  4.0

     negative rho (up, down):  5.007E-05 0.000E+00

     add environment contribution to local potential
     polarization accuracy = 7.2E-06, # of iterations =  16

     total cpu time spent up to now is       40.3 secs

     total energy              =     -82.64264257 Ry
     Harris-Foulkes estimate   =     -83.44773898 Ry
     estimated scf accuracy    <       0.00852713 Ry
     electrostatic embedding   =      -0.01663949 Ry
     electrolyte free energy   =       0.00474785 Ry
     correction to one-el term =       0.81277745 Ry

     iteration #  5     ecut=    30.00 Ry     beta= 0.70
     Davidson diagonalization with overlap
     ethr =  2.84E-05,  avg # of iterations =  4.0

     negative rho (up, down):  5.255E-05 0.000E+00

     add environment contribution to local potential
     polarization accuracy = 7.4E-06, # of iterations =  16

     total cpu time spent up to now is       46.3 secs

     total energy              =     -82.64564456 Ry
     Harris-Foulkes estimate   =     -83.60337919 Ry
     estimated scf accuracy    <       0.00114817 Ry
     electrostatic embedding   =      -0.01814266 Ry
     electrolyte free energy   =       0.00473335 Ry
     correction to one-el term =       0.97070004 Ry

     iteration #  6     ecut=    30.00 Ry     beta= 0.70
     Davidson diagonalization with overlap
     ethr =  3.83E-06,  avg # of iterations =  3.0

     negative rho (up, down):  1.385E-04 0.000E+00

     the potential shift due to the Gaussian-smeared nuclei is    -0.0801 ev

     total cpu time spent up to now is       48.3 secs

     End of self-consistent calculation

          k = 0.0000 0.0000 0.0000 ( 11060 PWs)   bands (ev):

   -23.2619 -19.6456 -18.8660 -15.3941 -15.2857 -12.8118 -11.6567 -11.2065
   -10.4484  -9.7880  -9.4676  -8.6937  -7.0545  -6.6514  -5.5906

     highest occupied level (ev):    -5.5906

!    total energy              =     -82.64591518 Ry
     Harris-Foulkes estimate   =     -83.64590433 Ry
     estimated scf accuracy    <       0.00008909 Ry

     The total energy is the sum of the following terms:

     one-electron contribution =    -292.43635264 Ry
     hartree contribution      =     149.40561056 Ry
     xc contribution           =     -25.97257559 Ry
     ewald contribution        =      85.35745671 Ry
     electrostatic embedding   =      -0.01803269 Ry
     electrolyte free energy   =       0.00473209 Ry
     correction to one-el term =       1.01324638 Ry

     WARNING: you are using the parabolic pbc correction;
              the potential shift above must be added to 
              band and Fermi energies.

     convergence has been achieved in   6 iterations

     Forces acting on atoms (cartesian axes, Ry/au):

     atom    1 type  1   force =    -0.04642538    0.00000177    0.00000356
     atom    2 type  2   force =    -0.00609660   -0.06242441    0.00002608
     atom    3 type  2   force =     0.02085312    0.01692406   -0.00004607
     atom    4 type  2   force =     0.00615257   -0.00000309    0.00000578
     atom    5 type  2   force =     0.02086088   -0.01691339    0.00000644
     atom    6 type  2   force =    -0.00611312    0.06242549    0.00001167
     atom    7 type  3   force =     0.00204083    0.00194924    0.00000898
     atom    8 type  3   force =     0.00533160   -0.00365941   -0.00000835
     atom    9 type  3   force =    -0.00397933    0.00000264    0.00002917
     atom   10 type  3   force =     0.00533950    0.00364697   -0.00002496
     atom   11 type  3   force =     0.00203595   -0.00194988   -0.00001230

     Total force =     0.107793     Total SCF correction =     0.015457
     SCF correction compared to forces is large: reduce conv_thr to get better values

     Writing output data file pwscf.save/
 
     init_run     :     15.79s CPU     16.61s WALL (       1 calls)
     electrons    :     27.62s CPU     31.27s WALL (       1 calls)
     forces       :     20.64s CPU     20.95s WALL (       1 calls)

     Called by init_run:
     wfcinit      :      0.18s CPU      0.18s WALL (       1 calls)
     potinit      :      1.48s CPU      1.57s WALL (       1 calls)
     hinit0       :     13.78s CPU     14.22s WALL (       1 calls)

     Called by electrons:
     c_bands      :      1.79s CPU      1.81s WALL (       6 calls)
     sum_band     :      2.05s CPU      2.75s WALL (       6 calls)
     v_of_rho     :      3.16s CPU      3.46s WALL (       7 calls)
     newd         :      1.42s CPU      2.29s WALL (       7 calls)
     mix_rho      :      0.30s CPU      0.30s WALL (       6 calls)

     Called by c_bands:
     init_us_2    :      0.05s CPU      0.05s WALL (      13 calls)
     regterg      :      1.68s CPU      1.70s WALL (       6 calls)

     Called by sum_band:
     sum_band:bec :      0.00s CPU      0.00s WALL (       6 calls)
     addusdens    :      1.53s CPU      2.22s WALL (       6 calls)

     Called by *egterg:
     h_psi        :      1.68s CPU      1.68s WALL (      27 calls)
     s_psi        :      0.03s CPU      0.03s WALL (      27 calls)
     g_psi        :      0.01s CPU      0.01s WALL (      20 calls)
     rdiaghg      :      0.00s CPU      0.01s WALL (      26 calls)

     Called by h_psi:
     h_psi:pot    :      1.68s CPU      1.68s WALL (      27 calls)
     h_psi:calbec :      0.05s CPU      0.04s WALL (      27 calls)
     vloc_psi     :      1.60s CPU      1.60s WALL (      27 calls)
     add_vuspsi   :      0.02s CPU      0.04s WALL (      27 calls)

     General routines
     calbec       :      0.07s CPU      0.06s WALL (      37 calls)
     fft          :      5.81s CPU      5.89s WALL (     333 calls)
     ffts         :      0.03s CPU      0.04s WALL (      13 calls)
     fftw         :      1.46s CPU      1.44s WALL (     364 calls)
     interpolate  :      0.18s CPU      0.20s WALL (       7 calls)
 
     Parallel routines
 
     Environ routines
     calc_eelect  :      0.04s CPU      0.03s WALL (      12 calls)
     calc_velect  :     14.84s CPU     16.40s WALL (      10 calls)
     dielectric   :      0.38s CPU      0.38s WALL (       9 calls)
     electrolyte  :      0.01s CPU      0.01s WALL (       2 calls)
     calc_felect  :      0.18s CPU      0.18s WALL (       1 calls)
 
     PWSCF        :  1m 4.49s CPU     1m 9.32s WALL

 
   This run was terminated on:  23:24:32  21Apr2019            

=------------------------------------------------------------------------------=
   JOB DONE.
=------------------------------------------------------------------------------=

%%%% IONS %%%%%%%%%%%%%%%%%%%%%%%%%%%%%%%%%%%%%%%%%%%%%%%%%%%%%%%%%%%%%%%%%%%%%%
 number of ions             =         11
 ionic center of charge     =      0.0072664     0.0000000     0.0001166
 total ionic charge         =    -30.0000000
 ionic dipole               =      0.0000000     0.0000000     0.0000000
 ionic quadrupole (pc)      =   -131.0719095  -146.7987094    -0.0000314
 ionic quadrupole (gauss)   =   -134.8219095  -150.5487094    -3.7500314
 ion   1 type =  1 coordinates =     -2.4454071     0.0000002     0.0030272
 ion   2 type =  2 coordinates =     -1.2331440     2.2473584     0.0020749
 ion   3 type =  2 coordinates =      1.3781229     2.2851921     0.0014627
 ion   4 type =  2 coordinates =      2.6939354     0.0000002     0.0013189
 ion   5 type =  2 coordinates =      1.3781232    -2.2851919     0.0026521
 ion   6 type =  2 coordinates =     -1.2331437    -2.2473574     0.0035464
 ion   7 type =  3 coordinates =     -2.4127312     3.9381412     0.0017094
 ion   8 type =  3 coordinates =      2.3590962     4.0987221     0.0008035
 ion   9 type =  3 coordinates =      4.7585861    -0.0000002     0.0000199
 ion  10 type =  3 coordinates =      2.3590968    -4.0987217     0.0032074
 ion  11 type =  3 coordinates =     -2.4127303    -3.9381403     0.0048805

%%%% SYSTEM %%%%%%%%%%%%%%%%%%%%%%%%%%%%%%%%%%%%%%%%%%%%%%%%%%%%%%%%%%%%%%%%%%%%
 system is built from all present ionic types
 system defined dimension   =  0 
 system defined axis        =  3 
 system center              =      0.0072664     0.0000000     0.0001166 
 system width               =      0.2348011 

%%%% DIELECTRIC %%%%%%%%%%%%%%%%%%%%%%%%%%%%%%%%%%%%%%%%%%%%%%%%%%%%%%%%%%%%%%%%%
 dielectric build on homogeneous background
 environment bulk permitt.  =     20.0000000 
 dielectric flags
 need gradient              =  F 
 need factor depend. sqrt   =  T 
 total dielectric charge    =      0.0000000

%%%% BOUNDARY %%%%%%%%%%%%%%%%%%%%%%%%%%%%%%%%%%%%%%%%%%%%%%%%%%%%%%%%%%%%%%%%%%
 boundary label             = electrolyte          
 boundary mode              = ionic                
 boundary is built from soft-spheres centered on ionic positions
 solvent-dependent scaling  =      1.5000000 
 softness parameter         =      0.5000000 
 volume of the QM region    =   1716.7618872 
 surface of the QM region   =    717.2136638 

%%%% ELECTROLYTE %%%%%%%%%%%%%%%%%%%%%%%%%%%%%%%%%%%%%%%%%%%%%%%%%%%%%%%%%%%%%%%%
 number electrol. species   =    2
 solvent temperature        =   300.0
 Debye length / sqrt(eps)   =      0.2301070
 modified Poisson-Boltzmann 
 maximum concentration      =      0.0190986
 electrolyte species    1
 bulk concentration  (a.u.) =      0.7139E-03
 bulk concentration (mol/L) =      8.0000000
 ionic charge               =   -1.00
 electrolyte species    2
 bulk concentration  (a.u.) =      0.7139E-03
 bulk concentration (mol/L) =      8.0000000
 ionic charge               =    1.00
 electrolyte flags
 linearized                 =  T
 total electrolyte charge   =      0.0000000

%%%% ELECTRONS %%%%%%%%%%%%%%%%%%%%%%%%%%%%%%%%%%%%%%%%%%%%%%%%%%%%%%%%%%%%%%%%%
 number of electrons        =         30
 total electronic charge    =     30.0000000
 number of spin components  =  1

%%%% BOUNDARY %%%%%%%%%%%%%%%%%%%%%%%%%%%%%%%%%%%%%%%%%%%%%%%%%%%%%%%%%%%%%%%%%%
 boundary label             = solvent              
 boundary mode              = electronic           
 boundary is built as a function of a smooth density
 function type              =  2 
 using the modified SCCS function with parameters 
 rhomax                     =      0.0050000 
 rhomin                     =      0.0001000 
 volume of the QM region    =   2407.1059985 
 surface of the QM region   =    815.5587051 

%%%% DIELECTRIC %%%%%%%%%%%%%%%%%%%%%%%%%%%%%%%%%%%%%%%%%%%%%%%%%%%%%%%%%%%%%%%%%
 dielectric build on homogeneous background
 environment bulk permitt.  =     20.0000000 
 dielectric flags
 need gradient              =  F 
 need factor depend. sqrt   =  T 
 total dielectric charge    =      0.0000000

%%%% DENSITY %%%%%%%%%%%%%%%%%%%%%%%%%%%%%%%%%%%%%%%%%%%%%%%%%%%%%%%%%%%%%%%%%%%
 density label              = vreference                                                                      
 integral of density        =      0.000000000    

%%%% DENSITY %%%%%%%%%%%%%%%%%%%%%%%%%%%%%%%%%%%%%%%%%%%%%%%%%%%%%%%%%%%%%%%%%%%
 density label              = velectrostatic                                                                  
 integral of density        =      0.000000000    

%%%% CHARGES %%%%%%%%%%%%%%%%%%%%%%%%%%%%%%%%%%%%%%%%%%%%%%%%%%%%%%%%%%%%%%%%%%%
 total number of charges    =         41
 total charge               =      0.0000000

%%%% DENSITY %%%%%%%%%%%%%%%%%%%%%%%%%%%%%%%%%%%%%%%%%%%%%%%%%%%%%%%%%%%%%%%%%%%
 density label              = vsoftcavity                                                                     
 integral of density        =      0.000000000    

%%%% ELECTRONS %%%%%%%%%%%%%%%%%%%%%%%%%%%%%%%%%%%%%%%%%%%%%%%%%%%%%%%%%%%%%%%%%
 number of electrons        =         30
 total electronic charge    =     30.0000000
 number of spin components  =  1

%%%% BOUNDARY %%%%%%%%%%%%%%%%%%%%%%%%%%%%%%%%%%%%%%%%%%%%%%%%%%%%%%%%%%%%%%%%%%
 boundary label             = solvent              
 boundary mode              = electronic           
 boundary is built as a function of a smooth density
 function type              =  2 
 using the modified SCCS function with parameters 
 rhomax                     =      0.0050000 
 rhomin                     =      0.0001000 
 volume of the QM region    =   1074.1872031 
 surface of the QM region   =    527.4240928 

%%%% DIELECTRIC %%%%%%%%%%%%%%%%%%%%%%%%%%%%%%%%%%%%%%%%%%%%%%%%%%%%%%%%%%%%%%%%%
 dielectric build on homogeneous background
 environment bulk permitt.  =     20.0000000 
 dielectric flags
 need gradient              =  F 
 need factor depend. sqrt   =  T 
 total dielectric charge    =      0.0000000

%%%% DENSITY %%%%%%%%%%%%%%%%%%%%%%%%%%%%%%%%%%%%%%%%%%%%%%%%%%%%%%%%%%%%%%%%%%%
 density label              = vreference                                                                      
 integral of density        =    -0.6446201597E-12

%%%% COMPUTE ELECTROSTATIC POTENTIAL %%%%%%%%%%%%%%%%%%%%%%%%%%%%%%%%%%%%%%%%%%%
 Iteration #          1
  pAp =    124.409476862492       rzold =    120.820610365997       alpha = 
  0.971152788461108     
 delta_qm =   0.157648E-01 delta_en =   0.429459E+03 tol =   0.100000E-04
 Iteration #          2
  pAp =    6276.40447064739       rzold =    140.303716172927       alpha = 
  2.235415464842650E-002
 delta_qm =   0.351760E-02 delta_en =   0.213814E+02 tol =   0.100000E-04
 Iteration #          3
  pAp =    10.1413117632194       rzold =    1.33683596911430       alpha = 
  0.131820813749435     
 delta_qm =   0.150523E-02 delta_en =   0.391516E+01 tol =   0.100000E-04
 Iteration #          4
  pAp =   0.755235839630244       rzold =   0.134495981625711       alpha = 
  0.178084744616409     
 delta_qm =   0.698570E-03 delta_en =   0.843265E+00 tol =   0.100000E-04
 Iteration #          5
  pAp =   0.463068362239724       rzold =   4.428172813273398E-002  alpha = 
  9.562676214491614E-002
 delta_qm =   0.419409E-03 delta_en =   0.303961E+00 tol =   0.100000E-04
 Iteration #          6
  pAp =   8.517912317583014E-002  rzold =   1.179843109844421E-002  alpha = 
  0.138513178564769     
 delta_qm =   0.230957E-03 delta_en =   0.921739E-01 tol =   0.100000E-04
 Iteration #          7
  pAp =   1.025875062174252E-002  rzold =   1.938830424593967E-003  alpha = 
  0.188992840949344     
 delta_qm =   0.124003E-03 delta_en =   0.265711E-01 tol =   0.100000E-04
 Iteration #          8
  pAp =   1.418729208207145E-003  rzold =   2.523767959335104E-004  alpha = 
  0.177889335380950     
 delta_qm =   0.916665E-04 delta_en =   0.145199E-01 tol =   0.100000E-04
 Iteration #          9
  pAp =   2.121527285520977E-003  rzold =   2.919623121244027E-004  alpha = 
  0.137618928644939     
 delta_qm =   0.472916E-04 delta_en =   0.386466E-02 tol =   0.100000E-04
 Iteration #         10
  pAp =   1.117011695354538E-004  rzold =   3.384469889122056E-005  alpha = 
  0.302993236614933     
 delta_qm =   0.239187E-04 delta_en =   0.988600E-03 tol =   0.100000E-04
 Iteration #         11
  pAp =   8.799337746486576E-005  rzold =   1.559795580115073E-005  alpha = 
  0.177262837846845     
 delta_qm =   0.127578E-04 delta_en =   0.281253E-03 tol =   0.100000E-04
 Iteration #         12
  pAp =   1.842178876507131E-005  rzold =   4.017198295001010E-006  alpha = 
  0.218067764549436     
 delta_qm =   0.639925E-05 delta_en =   0.707624E-04 tol =   0.100000E-04
 Iteration #         13
  pAp =   1.994195064799525E-005  rzold =   1.704073993561183E-006  alpha = 
  8.545172052827703E-002
 delta_qm =   0.460170E-05 delta_en =   0.365915E-04 tol =   0.100000E-04
 Iteration #         14
  pAp =   1.463785394411461E-006  rzold =   3.993551685055626E-007  alpha = 
  0.272823577848398     
 delta_qm =   0.198005E-05 delta_en =   0.677481E-05 tol =   0.100000E-04
 Charges are converged, EXIT

%%%% DENSITY %%%%%%%%%%%%%%%%%%%%%%%%%%%%%%%%%%%%%%%%%%%%%%%%%%%%%%%%%%%%%%%%%%%
 density label              = velectrostatic                                                                  
 integral of density        =     -277.6887298    

%%%% CHARGES %%%%%%%%%%%%%%%%%%%%%%%%%%%%%%%%%%%%%%%%%%%%%%%%%%%%%%%%%%%%%%%%%%%
 total number of charges    =         41
 total charge               =     -0.0000000

%%%% DENSITY %%%%%%%%%%%%%%%%%%%%%%%%%%%%%%%%%%%%%%%%%%%%%%%%%%%%%%%%%%%%%%%%%%%
 density label              = vsoftcavity                                                                     
 integral of density        =      16.17652960    

%%%% ELECTRONS %%%%%%%%%%%%%%%%%%%%%%%%%%%%%%%%%%%%%%%%%%%%%%%%%%%%%%%%%%%%%%%%%
 number of electrons        =         30
 total electronic charge    =     30.0000000
 number of spin components  =  1

%%%% BOUNDARY %%%%%%%%%%%%%%%%%%%%%%%%%%%%%%%%%%%%%%%%%%%%%%%%%%%%%%%%%%%%%%%%%%
 boundary label             = solvent              
 boundary mode              = electronic           
 boundary is built as a function of a smooth density
 function type              =  2 
 using the modified SCCS function with parameters 
 rhomax                     =      0.0050000 
 rhomin                     =      0.0001000 
 volume of the QM region    =   1023.3595113 
 surface of the QM region   =    515.6936646 

%%%% DIELECTRIC %%%%%%%%%%%%%%%%%%%%%%%%%%%%%%%%%%%%%%%%%%%%%%%%%%%%%%%%%%%%%%%%%
 dielectric build on homogeneous background
 environment bulk permitt.  =     20.0000000 
 dielectric flags
 need gradient              =  F 
 need factor depend. sqrt   =  T 
 total dielectric charge    =     -0.0044969

%%%% DENSITY %%%%%%%%%%%%%%%%%%%%%%%%%%%%%%%%%%%%%%%%%%%%%%%%%%%%%%%%%%%%%%%%%%%
 density label              = vreference                                                                      
 integral of density        =    -0.5842240272E-13

%%%% COMPUTE ELECTROSTATIC POTENTIAL %%%%%%%%%%%%%%%%%%%%%%%%%%%%%%%%%%%%%%%%%%%
 Warning: bad guess with residual norm =   0.271673E+03, reset to no guess
 Iteration #          1
  pAp =    124.376634387578       rzold =    122.301357083414       alpha = 
  0.983314572593298     
 delta_qm =   0.123963E-01 delta_en =   0.265538E+03 tol =   0.100000E-04
 Iteration #          2
  pAp =    3565.58287760419       rzold =    78.8382054738038       alpha = 
  2.211088850829836E-002
 delta_qm =   0.363756E-02 delta_en =   0.228646E+02 tol =   0.100000E-04
 Iteration #          3
  pAp =    19.4356749088010       rzold =    1.66921408476835       alpha = 
  8.588402988838278E-002
 delta_qm =   0.198085E-02 delta_en =   0.678030E+01 tol =   0.100000E-04
 Iteration #          4
  pAp =    3.42895867901577       rzold =   0.392014843360288       alpha = 
  0.114324749889611     
 delta_qm =   0.956409E-03 delta_en =   0.158063E+01 tol =   0.100000E-04
 Iteration #          5
  pAp =   0.378625822399543       rzold =   5.953795099821986E-002  alpha = 
  0.157247465640082     
 delta_qm =   0.381199E-03 delta_en =   0.251100E+00 tol =   0.100000E-04
 Iteration #          6
  pAp =   3.175605551862655E-002  rzold =   6.028716344669728E-003  alpha = 
  0.189844621638653     
 delta_qm =   0.192314E-03 delta_en =   0.639095E-01 tol =   0.100000E-04
 Iteration #          7
  pAp =   5.974617541924108E-003  rzold =   1.106276221072862E-003  alpha = 
  0.185162684190257     
 delta_qm =   0.118022E-03 delta_en =   0.240696E-01 tol =   0.100000E-04
 Iteration #          8
  pAp =   7.009678653689310E-004  rzold =   1.795232763838815E-004  alpha = 
  0.256107712283494     
 delta_qm =   0.744714E-04 delta_en =   0.958346E-02 tol =   0.100000E-04
 Iteration #          9
  pAp =   2.222953810789545E-003  rzold =   2.149957523356924E-004  alpha = 
  9.671624812543023E-002
 delta_qm =   0.467455E-04 delta_en =   0.377593E-02 tol =   0.100000E-04
 Iteration #         10
  pAp =   1.058053880366196E-004  rzold =   3.198270161312183E-005  alpha = 
  0.302278572070947     
 delta_qm =   0.211977E-04 delta_en =   0.776463E-03 tol =   0.100000E-04
 Iteration #         11
  pAp =   8.662105632217861E-005  rzold =   1.286345781749737E-005  alpha = 
  0.148502666253030     
 delta_qm =   0.128909E-04 delta_en =   0.287153E-03 tol =   0.100000E-04
 Iteration #         12
  pAp =   1.631201405892552E-005  rzold =   2.853665283161247E-006  alpha = 
  0.174942546815658     
 delta_qm =   0.884387E-05 delta_en =   0.135154E-03 tol =   0.100000E-04
 Iteration #         13
  pAp =   2.238657089495577E-005  rzold =   2.599717868341092E-006  alpha = 
  0.116128453997699     
 delta_qm =   0.532623E-05 delta_en =   0.490211E-04 tol =   0.100000E-04
 Iteration #         14
  pAp =   8.107414265628600E-007  rzold =   2.680902294940735E-007  alpha = 
  0.330672913348763     
 delta_qm =   0.333469E-05 delta_en =   0.192156E-04 tol =   0.100000E-04
 Iteration #         15
  pAp =   1.849676377713899E-007  rzold =   6.735201754647629E-008  alpha = 
  0.364128657088219     
 delta_qm =   0.184679E-05 delta_en =   0.589359E-05 tol =   0.100000E-04
 Charges are converged, EXIT

%%%% DENSITY %%%%%%%%%%%%%%%%%%%%%%%%%%%%%%%%%%%%%%%%%%%%%%%%%%%%%%%%%%%%%%%%%%%
 density label              = velectrostatic                                                                  
 integral of density        =     -285.5781142    

%%%% CHARGES %%%%%%%%%%%%%%%%%%%%%%%%%%%%%%%%%%%%%%%%%%%%%%%%%%%%%%%%%%%%%%%%%%%
 total number of charges    =         41
 total charge               =     -0.0000000

%%%% DENSITY %%%%%%%%%%%%%%%%%%%%%%%%%%%%%%%%%%%%%%%%%%%%%%%%%%%%%%%%%%%%%%%%%%%
 density label              = vsoftcavity                                                                     
 integral of density        =      11.40525971    

%%%% ELECTRONS %%%%%%%%%%%%%%%%%%%%%%%%%%%%%%%%%%%%%%%%%%%%%%%%%%%%%%%%%%%%%%%%%
 number of electrons        =         30
 total electronic charge    =     30.0000000
 number of spin components  =  1

%%%% BOUNDARY %%%%%%%%%%%%%%%%%%%%%%%%%%%%%%%%%%%%%%%%%%%%%%%%%%%%%%%%%%%%%%%%%%
 boundary label             = solvent              
 boundary mode              = electronic           
 boundary is built as a function of a smooth density
 function type              =  2 
 using the modified SCCS function with parameters 
 rhomax                     =      0.0050000 
 rhomin                     =      0.0001000 
 volume of the QM region    =    991.2023322 
 surface of the QM region   =    508.2814166 

%%%% DIELECTRIC %%%%%%%%%%%%%%%%%%%%%%%%%%%%%%%%%%%%%%%%%%%%%%%%%%%%%%%%%%%%%%%%%
 dielectric build on homogeneous background
 environment bulk permitt.  =     20.0000000 
 dielectric flags
 need gradient              =  F 
 need factor depend. sqrt   =  T 
 total dielectric charge    =     -0.0051350

%%%% DENSITY %%%%%%%%%%%%%%%%%%%%%%%%%%%%%%%%%%%%%%%%%%%%%%%%%%%%%%%%%%%%%%%%%%%
 density label              = vreference                                                                      
 integral of density        =     0.9575221274E-12

%%%% COMPUTE ELECTROSTATIC POTENTIAL %%%%%%%%%%%%%%%%%%%%%%%%%%%%%%%%%%%%%%%%%%%
 Warning: bad guess with residual norm =   0.181997E+03, reset to no guess
 Iteration #          1
  pAp =    124.082973262375       rzold =    122.825849212397       alpha = 
  0.989868682084850     
 delta_qm =   0.101889E-01 delta_en =   0.179392E+03 tol =   0.100000E-04
 Iteration #          2
  pAp =    2244.49537277653       rzold =    48.7005209398352       alpha = 
  2.169775956347401E-002
 delta_qm =   0.308422E-02 delta_en =   0.164374E+02 tol =   0.100000E-04
 Iteration #          3
  pAp =    10.9138849802026       rzold =    1.00093488031369       alpha = 
  9.171206056590701E-002
 delta_qm =   0.160150E-02 delta_en =   0.443196E+01 tol =   0.100000E-04
 Iteration #          4
  pAp =    2.28813025494192       rzold =   0.243128065902389       alpha = 
  0.106256217440978     
 delta_qm =   0.812783E-03 delta_en =   0.114155E+01 tol =   0.100000E-04
 Iteration #          5
  pAp =   0.274241934253353       rzold =   4.316351776932416E-002  alpha = 
  0.157392113962587     
 delta_qm =   0.335994E-03 delta_en =   0.195078E+00 tol =   0.100000E-04
 Iteration #          6
  pAp =   2.343922896764565E-002  rzold =   4.509752010588022E-003  alpha = 
  0.192401892434818     
 delta_qm =   0.166944E-03 delta_en =   0.481601E-01 tol =   0.100000E-04
 Iteration #          7
  pAp =   4.129342232457276E-003  rzold =   7.610016938137965E-004  alpha = 
  0.184291262621006     
 delta_qm =   0.109097E-03 delta_en =   0.205667E-01 tol =   0.100000E-04
 Iteration #          8
  pAp =   4.727932574925456E-004  rzold =   1.377079491696910E-004  alpha = 
  0.291264621454256     
 delta_qm =   0.629573E-04 delta_en =   0.684915E-02 tol =   0.100000E-04
 Iteration #          9
  pAp =   1.643373157791636E-003  rzold =   1.427143140041697E-004  alpha = 
  8.684230561240826E-002
 delta_qm =   0.421801E-04 delta_en =   0.307439E-02 tol =   0.100000E-04
 Iteration #         10
  pAp =   7.915260669230416E-005  rzold =   2.347360897868064E-005  alpha = 
  0.296561414204985     
 delta_qm =   0.202434E-04 delta_en =   0.708124E-03 tol =   0.100000E-04
 Iteration #         11
  pAp =   6.396702478995034E-005  rzold =   9.907580593708703E-006  alpha = 
  0.154885749747505     
 delta_qm =   0.128833E-04 delta_en =   0.286813E-03 tol =   0.100000E-04
 Iteration #         12
  pAp =   8.606023103493467E-006  rzold =   2.062264266570856E-006  alpha = 
  0.239630342815803     
 delta_qm =   0.783229E-05 delta_en =   0.106004E-03 tol =   0.100000E-04
 Iteration #         13
  pAp =   1.922716815193202E-005  rzold =   1.666263452142747E-006  alpha = 
  8.666192748594202E-002
 delta_qm =   0.578611E-05 delta_en =   0.578518E-04 tol =   0.100000E-04
 Iteration #         14
  pAp =   6.817223839575501E-007  rzold =   2.450454091202047E-007  alpha = 
  0.359450437431234     
 delta_qm =   0.371530E-05 delta_en =   0.238524E-04 tol =   0.100000E-04
 Iteration #         15
  pAp =   7.698091557189241E-007  rzold =   1.023678718662316E-007  alpha = 
  0.132978246758614     
 delta_qm =   0.336584E-05 delta_en =   0.195763E-04 tol =   0.100000E-04
 Iteration #         16
  pAp =   5.199481432247768E-006  rzold =   3.891656948883346E-007  alpha = 
  7.484702079609042E-002
 delta_qm =   0.173597E-05 delta_en =   0.520749E-05 tol =   0.100000E-04
 Charges are converged, EXIT

%%%% DENSITY %%%%%%%%%%%%%%%%%%%%%%%%%%%%%%%%%%%%%%%%%%%%%%%%%%%%%%%%%%%%%%%%%%%
 density label              = velectrostatic                                                                  
 integral of density        =     -279.3316953    

%%%% CHARGES %%%%%%%%%%%%%%%%%%%%%%%%%%%%%%%%%%%%%%%%%%%%%%%%%%%%%%%%%%%%%%%%%%%
 total number of charges    =         41
 total charge               =      0.0000000

%%%% DENSITY %%%%%%%%%%%%%%%%%%%%%%%%%%%%%%%%%%%%%%%%%%%%%%%%%%%%%%%%%%%%%%%%%%%
 density label              = vsoftcavity                                                                     
 integral of density        =      7.771987487    

%%%% ELECTRONS %%%%%%%%%%%%%%%%%%%%%%%%%%%%%%%%%%%%%%%%%%%%%%%%%%%%%%%%%%%%%%%%%
 number of electrons        =         30
 total electronic charge    =     30.0000000
 number of spin components  =  1

%%%% BOUNDARY %%%%%%%%%%%%%%%%%%%%%%%%%%%%%%%%%%%%%%%%%%%%%%%%%%%%%%%%%%%%%%%%%%
 boundary label             = solvent              
 boundary mode              = electronic           
 boundary is built as a function of a smooth density
 function type              =  2 
 using the modified SCCS function with parameters 
 rhomax                     =      0.0050000 
 rhomin                     =      0.0001000 
 volume of the QM region    =    971.9609834 
 surface of the QM region   =    503.6572568 

%%%% DIELECTRIC %%%%%%%%%%%%%%%%%%%%%%%%%%%%%%%%%%%%%%%%%%%%%%%%%%%%%%%%%%%%%%%%%
 dielectric build on homogeneous background
 environment bulk permitt.  =     20.0000000 
 dielectric flags
 need gradient              =  F 
 need factor depend. sqrt   =  T 
 total dielectric charge    =     -0.0000998

%%%% DENSITY %%%%%%%%%%%%%%%%%%%%%%%%%%%%%%%%%%%%%%%%%%%%%%%%%%%%%%%%%%%%%%%%%%%
 density label              = vreference                                                                      
 integral of density        =    -0.1207922651E-11

%%%% COMPUTE ELECTROSTATIC POTENTIAL %%%%%%%%%%%%%%%%%%%%%%%%%%%%%%%%%%%%%%%%%%%
 Warning: bad guess with residual norm =   0.149288E+03, reset to no guess
 Iteration #          1
  pAp =    123.579294446154       rzold =    122.600154920277       alpha = 
  0.992076831881385     
 delta_qm =   0.924162E-02 delta_en =   0.147584E+03 tol =   0.100000E-04
 Iteration #          2
  pAp =    1652.74770774774       rzold =    36.0082637598191       alpha = 
  2.178690890994417E-002
 delta_qm =   0.324731E-02 delta_en =   0.182218E+02 tol =   0.100000E-04
 Iteration #          3
  pAp =    12.6917703220194       rzold =    1.08560557343468       alpha = 
  8.553618178476066E-002
 delta_qm =   0.169754E-02 delta_en =   0.497946E+01 tol =   0.100000E-04
 Iteration #          4
  pAp =    2.25424010131515       rzold =   0.254983077287587       alpha = 
  0.113112652524825     
 delta_qm =   0.826945E-03 delta_en =   0.118167E+01 tol =   0.100000E-04
 Iteration #          5
  pAp =   0.294292425971748       rzold =   4.516258729204692E-002  alpha = 
  0.153461602495956     
 delta_qm =   0.342243E-03 delta_en =   0.202401E+00 tol =   0.100000E-04
 Iteration #          6
  pAp =   2.204850533042913E-002  rzold =   4.422757436584923E-003  alpha = 
  0.200592165786453     
 delta_qm =   0.160645E-03 delta_en =   0.445940E-01 tol =   0.100000E-04
 Iteration #          7
  pAp =   3.601486027216310E-003  rzold =   6.597992555392823E-004  alpha = 
  0.183201947905171     
 delta_qm =   0.112082E-03 delta_en =   0.217080E-01 tol =   0.100000E-04
 Iteration #          8
  pAp =   4.633608372322502E-004  rzold =   1.433481356200428E-004  alpha = 
  0.309366101106625     
 delta_qm =   0.601119E-04 delta_en =   0.624403E-02 tol =   0.100000E-04
 Iteration #          9
  pAp =   1.263716762196984E-003  rzold =   1.074478119833093E-004  alpha = 
  8.502523286666729E-002
 delta_qm =   0.438448E-04 delta_en =   0.332185E-02 tol =   0.100000E-04
 Iteration #         10
  pAp =   9.249163734992916E-005  rzold =   2.602851778431315E-005  alpha = 
  0.281414823329788     
 delta_qm =   0.214919E-04 delta_en =   0.798170E-03 tol =   0.100000E-04
 Iteration #         11
  pAp =   6.420923346690954E-005  rzold =   9.892870349299761E-006  alpha = 
  0.154072394500677     
 delta_qm =   0.147353E-04 delta_en =   0.375199E-03 tol =   0.100000E-04
 Iteration #         12
  pAp =   7.739425550871410E-006  rzold =   2.148788649341732E-006  alpha = 
  0.277641878614595     
 delta_qm =   0.879860E-05 delta_en =   0.133774E-03 tol =   0.100000E-04
 Iteration #         13
  pAp =   1.678011888934535E-005  rzold =   1.406101737588442E-006  alpha = 
  8.379569577908390E-002
 delta_qm =   0.721383E-05 delta_en =   0.899239E-04 tol =   0.100000E-04
 Iteration #         14
  pAp =   8.710973455367237E-007  rzold =   3.284048802402103E-007  alpha = 
  0.377001355730070     
 delta_qm =   0.442137E-05 delta_en =   0.337799E-04 tol =   0.100000E-04
 Iteration #         15
  pAp =   1.027126943854529E-005  rzold =   3.602813758294897E-007  alpha = 
  3.507661618508918E-002
 delta_qm =   0.431481E-05 delta_en =   0.321712E-04 tol =   0.100000E-04
 Iteration #         16
  pAp =   7.797230925767683E-007  rzold =   2.043714104664126E-007  alpha = 
  0.262107679523793     
 delta_qm =   0.204515E-05 delta_en =   0.722761E-05 tol =   0.100000E-04
 Charges are converged, EXIT

%%%% DENSITY %%%%%%%%%%%%%%%%%%%%%%%%%%%%%%%%%%%%%%%%%%%%%%%%%%%%%%%%%%%%%%%%%%%
 density label              = velectrostatic                                                                  
 integral of density        =     -273.6299832    

%%%% CHARGES %%%%%%%%%%%%%%%%%%%%%%%%%%%%%%%%%%%%%%%%%%%%%%%%%%%%%%%%%%%%%%%%%%%
 total number of charges    =         41
 total charge               =     -0.0000000

%%%% DENSITY %%%%%%%%%%%%%%%%%%%%%%%%%%%%%%%%%%%%%%%%%%%%%%%%%%%%%%%%%%%%%%%%%%%
 density label              = vsoftcavity                                                                     
 integral of density        =      7.840551555    

%%%% ELECTRONS %%%%%%%%%%%%%%%%%%%%%%%%%%%%%%%%%%%%%%%%%%%%%%%%%%%%%%%%%%%%%%%%%
 number of electrons        =         30
 total electronic charge    =     30.0000000
 number of spin components  =  1

%%%% BOUNDARY %%%%%%%%%%%%%%%%%%%%%%%%%%%%%%%%%%%%%%%%%%%%%%%%%%%%%%%%%%%%%%%%%%
 boundary label             = solvent              
 boundary mode              = electronic           
 boundary is built as a function of a smooth density
 function type              =  2 
 using the modified SCCS function with parameters 
 rhomax                     =      0.0050000 
 rhomin                     =      0.0001000 
 volume of the QM region    =    969.9398157 
 surface of the QM region   =    503.5554713 

%%%% DIELECTRIC %%%%%%%%%%%%%%%%%%%%%%%%%%%%%%%%%%%%%%%%%%%%%%%%%%%%%%%%%%%%%%%%%
 dielectric build on homogeneous background
 environment bulk permitt.  =     20.0000000 
 dielectric flags
 need gradient              =  F 
 need factor depend. sqrt   =  T 
 total dielectric charge    =      0.0005766

%%%% DENSITY %%%%%%%%%%%%%%%%%%%%%%%%%%%%%%%%%%%%%%%%%%%%%%%%%%%%%%%%%%%%%%%%%%%
 density label              = vreference                                                                      
 integral of density        =    -0.5123802617E-12

%%%% COMPUTE ELECTROSTATIC POTENTIAL %%%%%%%%%%%%%%%%%%%%%%%%%%%%%%%%%%%%%%%%%%%
 Warning: bad guess with residual norm =   0.139586E+03, reset to no guess
 Iteration #          1
  pAp =    123.622692225971       rzold =    122.723064444994       alpha = 
  0.992722794134490     
 delta_qm =   0.894015E-02 delta_en =   0.138113E+03 tol =   0.100000E-04
 Iteration #          2
  pAp =    1489.16512063351       rzold =    32.5166086635499       alpha = 
  2.183546217474985E-002
 delta_qm =   0.326110E-02 delta_en =   0.183769E+02 tol =   0.100000E-04
 Iteration #          3
  pAp =    13.1910154102164       rzold =    1.09825268172755       alpha = 
  8.325763010457569E-002
 delta_qm =   0.170524E-02 delta_en =   0.502477E+01 tol =   0.100000E-04
 Iteration #          4
  pAp =    2.18144425750358       rzold =   0.252071990794016       alpha = 
  0.115552799447869     
 delta_qm =   0.816690E-03 delta_en =   0.115255E+01 tol =   0.100000E-04
 Iteration #          5
  pAp =   0.288017251707946       rzold =   4.387855996987612E-002  alpha = 
  0.152346985153409     
 delta_qm =   0.340408E-03 delta_en =   0.200236E+00 tol =   0.100000E-04
 Iteration #          6
  pAp =   2.100229589982689E-002  rzold =   4.273609251004773E-003  alpha = 
  0.203482955929594     
 delta_qm =   0.157997E-03 delta_en =   0.431360E-01 tol =   0.100000E-04
 Iteration #          7
  pAp =   3.371438942177203E-003  rzold =   6.208320615789715E-004  alpha = 
  0.184144536569318     
 delta_qm =   0.112107E-03 delta_en =   0.217174E-01 tol =   0.100000E-04
 Iteration #          8
  pAp =   4.618327675988524E-004  rzold =   1.434382617100071E-004  alpha = 
  0.310584851862650     
 delta_qm =   0.591237E-04 delta_en =   0.604041E-02 tol =   0.100000E-04
 Iteration #          9
  pAp =   1.101310582164702E-003  rzold =   9.493804611920877E-005  alpha = 
  8.620460718047536E-002
 delta_qm =   0.440231E-04 delta_en =   0.334893E-02 tol =   0.100000E-04
 Iteration #         10
  pAp =   9.683911866321710E-005  rzold =   2.655826723720580E-005  alpha = 
  0.274251434790201     
 delta_qm =   0.217583E-04 delta_en =   0.818077E-03 tol =   0.100000E-04
 Iteration #         11
  pAp =   6.177776429245062E-005  rzold =   9.537119501583495E-006  alpha = 
  0.154377867357511     
 delta_qm =   0.152379E-04 delta_en =   0.401230E-03 tol =   0.100000E-04
 Iteration #         12
  pAp =   7.653613210609397E-006  rzold =   2.174609599066033E-006  alpha = 
  0.284128494506569     
 delta_qm =   0.910885E-05 delta_en =   0.143374E-03 tol =   0.100000E-04
 Iteration #         13
  pAp =   1.542444031876331E-005  rzold =   1.306891250404959E-006  alpha = 
  8.472860106406391E-002
 delta_qm =   0.760332E-05 delta_en =   0.998965E-04 tol =   0.100000E-04
 Iteration #         14
  pAp =   8.980278643301712E-007  rzold =   3.546656598888939E-007  alpha = 
  0.394938368814909     
 delta_qm =   0.465207E-05 delta_en =   0.373970E-04 tol =   0.100000E-04
 Iteration #         15
  pAp =   4.306156376544606E-007  rzold =   1.598420474016378E-007  alpha = 
  0.371194247083753     
 delta_qm =   0.252420E-05 delta_en =   0.110101E-04 tol =   0.100000E-04
 Iteration #         16
  pAp =   8.622607788433087E-006  rzold =   2.393952218026886E-007  alpha = 
  2.776366821692024E-002
 delta_qm =   0.207155E-05 delta_en =   0.741538E-05 tol =   0.100000E-04
 Charges are converged, EXIT

%%%% DENSITY %%%%%%%%%%%%%%%%%%%%%%%%%%%%%%%%%%%%%%%%%%%%%%%%%%%%%%%%%%%%%%%%%%%
 density label              = velectrostatic                                                                  
 integral of density        =     -273.8035380    

%%%% CHARGES %%%%%%%%%%%%%%%%%%%%%%%%%%%%%%%%%%%%%%%%%%%%%%%%%%%%%%%%%%%%%%%%%%%
 total number of charges    =         41
 total charge               =     -0.0000000

%%%% DENSITY %%%%%%%%%%%%%%%%%%%%%%%%%%%%%%%%%%%%%%%%%%%%%%%%%%%%%%%%%%%%%%%%%%%
 density label              = vsoftcavity                                                                     
 integral of density        =      7.635153254    

%%%% ELECTRONS %%%%%%%%%%%%%%%%%%%%%%%%%%%%%%%%%%%%%%%%%%%%%%%%%%%%%%%%%%%%%%%%%
 number of electrons        =         30
 total electronic charge    =     30.0000000
 number of spin components  =  1

%%%% BOUNDARY %%%%%%%%%%%%%%%%%%%%%%%%%%%%%%%%%%%%%%%%%%%%%%%%%%%%%%%%%%%%%%%%%%
 boundary label             = solvent              
 boundary mode              = electronic           
 boundary is built as a function of a smooth density
 function type              =  2 
 using the modified SCCS function with parameters 
 rhomax                     =      0.0050000 
 rhomin                     =      0.0001000 
 volume of the QM region    =    969.9398157 
 surface of the QM region   =    503.5554713 

%%%% DIELECTRIC %%%%%%%%%%%%%%%%%%%%%%%%%%%%%%%%%%%%%%%%%%%%%%%%%%%%%%%%%%%%%%%%%
 dielectric build on homogeneous background
 environment bulk permitt.  =     20.0000000 
 dielectric flags
 need gradient              =  F 
 need factor depend. sqrt   =  T 
 total dielectric charge    =     -0.0000799

%%%% DENSITY %%%%%%%%%%%%%%%%%%%%%%%%%%%%%%%%%%%%%%%%%%%%%%%%%%%%%%%%%%%%%%%%%%%
 density label              = vreference                                                                      
 integral of density        =    -0.5123802617E-12

%%%% DENSITY %%%%%%%%%%%%%%%%%%%%%%%%%%%%%%%%%%%%%%%%%%%%%%%%%%%%%%%%%%%%%%%%%%%
 density label              = velectrostatic                                                                  
 integral of density        =     -273.8035380    

%%%% CHARGES %%%%%%%%%%%%%%%%%%%%%%%%%%%%%%%%%%%%%%%%%%%%%%%%%%%%%%%%%%%%%%%%%%%
 total number of charges    =         41
 total charge               =     -0.0000000

%%%% DENSITY %%%%%%%%%%%%%%%%%%%%%%%%%%%%%%%%%%%%%%%%%%%%%%%%%%%%%%%%%%%%%%%%%%%
 density label              = vsoftcavity                                                                     
 integral of density        =      7.635153254    
