
     Program PWSCF v.6.7MaX starts on 22Jan2021 at 10:30:19 

     This program is part of the open-source Quantum ESPRESSO suite
     for quantum simulation of materials; please cite
         "P. Giannozzi et al., J. Phys.:Condens. Matter 21 395502 (2009);
         "P. Giannozzi et al., J. Phys.:Condens. Matter 29 465901 (2017);
          URL http://www.quantum-espresso.org", 
     in publications or presentations arising from this work. More details at
     http://www.quantum-espresso.org/quote

     Parallel version (MPI), running on     1 processors

     MPI processes distributed on     1 nodes
     Reading input from pw.in

     Current dimensions of program PWSCF are:
     Max number of different atomic species (ntypx) = 10
     Max number of k-points (npk) =  40000
     Max angular momentum in pseudopotentials (lmaxx) =  3
     file N.pbe-rrkjus.UPF: wavefunction(s)  2S renormalized
     file C.pbe-rrkjus.UPF: wavefunction(s)  2S 2P renormalized
     file H.pbe-rrkjus.UPF: wavefunction(s)  1S renormalized

     gamma-point specific algorithms are used

     Subspace diagonalization in iterative solution of the eigenvalue problem:
     a serial algorithm will be used


     G-vector sticks info
     --------------------
     sticks:   dense  smooth     PW     G-vecs:    dense   smooth      PW
     Sum        9549    3809    949               701475   177509   22119



     bravais-lattice index     =            1
     lattice parameter (alat)  =      20.0000  a.u.
     unit-cell volume          =    8000.0000 (a.u.)^3
     number of atoms/cell      =           11
     number of atomic types    =            3
     number of electrons       =        30.00
     number of Kohn-Sham states=           15
     kinetic-energy cutoff     =      30.0000  Ry
     charge density cutoff     =     300.0000  Ry
     scf convergence threshold =      5.0E-04
     mixing beta               =       0.7000
     number of iterations used =            8  plain     mixing
     Exchange-correlation= SLA  PW   PBE  PBE
                           (   1   4   3   4   0   0   0)


     Environ Module
     ==============

     Plese cite
         O. Andreussi, I. Dabo and N. Marzari, J. Chem. Phys. 136, 064102 (2012)         
     in publications or presentations arising from this work.

     compensation onset threshold      =               0.1000E+03 
     static permittivity               =                    20.00 
     epsilon calculation mode          =               electronic 

     Electrostatic Setup
     -------------------
     electrostatic problem to solve    = linmodpb                 
     numerical solver adopted          = cg                       
     type of auxiliary density adopted = none                     
     type of core tool for poisson     = fft                      



     celldm(1)=  20.000000  celldm(2)=   0.000000  celldm(3)=   0.000000
     celldm(4)=   0.000000  celldm(5)=   0.000000  celldm(6)=   0.000000

     crystal axes: (cart. coord. in units of alat)
               a(1) = (   1.000000   0.000000   0.000000 )  
               a(2) = (   0.000000   1.000000   0.000000 )  
               a(3) = (   0.000000   0.000000   1.000000 )  

     reciprocal axes: (cart. coord. in units 2 pi/alat)
               b(1) = (  1.000000  0.000000  0.000000 )  
               b(2) = (  0.000000  1.000000  0.000000 )  
               b(3) = (  0.000000  0.000000  1.000000 )  


     PseudoPot. # 1 for N  read from file:
     /Users/gabrielmedrano/Desktop/q-e/Environ/tests/../..//pseudo/N.pbe-rrkjus.UPF
     MD5 check sum: 28c76d763763edb36c62a6ca2be9aebd
     Pseudo is Ultrasoft, Zval =  5.0
     Generated by new atomic code, or converted to UPF format
     Using radial grid of 1257 points,  4 beta functions with: 
                l(1) =   0
                l(2) =   0
                l(3) =   1
                l(4) =   1
     Q(r) pseudized with 0 coefficients 


     PseudoPot. # 2 for C  read from file:
     /Users/gabrielmedrano/Desktop/q-e/Environ/tests/../..//pseudo/C.pbe-rrkjus.UPF
     MD5 check sum: c9ac5a99bc85b198593446162950cd17
     Pseudo is Ultrasoft, Zval =  4.0
     Generated by new atomic code, or converted to UPF format
     Using radial grid of  627 points,  4 beta functions with: 
                l(1) =   0
                l(2) =   0
                l(3) =   1
                l(4) =   1
     Q(r) pseudized with 0 coefficients 


     PseudoPot. # 3 for H  read from file:
     /Users/gabrielmedrano/Desktop/q-e/Environ/tests/../..//pseudo/H.pbe-rrkjus.UPF
     MD5 check sum: 2d52a7f45632fd764c17cc6affed14c8
     Pseudo is Ultrasoft, Zval =  1.0
     Generated by new atomic code, or converted to UPF format
     Using radial grid of 1061 points,  2 beta functions with: 
                l(1) =   0
                l(2) =   0
     Q(r) pseudized with 0 coefficients 


     atomic species   valence    mass     pseudopotential
        N              5.00    14.00000     N ( 1.00)
        C              4.00    12.00000     C ( 1.00)
        H              1.00     1.00000     H ( 1.00)

     No symmetry found



   Cartesian axes

     site n.     atom                  positions (alat units)
         1           N   tau(   1) = (  -0.1222704   0.0000000   0.0001514  )
         2           C   tau(   2) = (  -0.0616572   0.1123679   0.0001037  )
         3           C   tau(   3) = (   0.0689061   0.1142596   0.0000731  )
         4           C   tau(   4) = (   0.1346968   0.0000000   0.0000659  )
         5           C   tau(   5) = (   0.0689062  -0.1142596   0.0001326  )
         6           C   tau(   6) = (  -0.0616572  -0.1123679   0.0001773  )
         7           H   tau(   7) = (  -0.1206366   0.1969071   0.0000855  )
         8           H   tau(   8) = (   0.1179548   0.2049361   0.0000402  )
         9           H   tau(   9) = (   0.2379293  -0.0000000   0.0000010  )
        10           H   tau(  10) = (   0.1179548  -0.2049361   0.0001604  )
        11           H   tau(  11) = (  -0.1206365  -0.1969070   0.0002440  )

     number of k points=     1
                       cart. coord. in units 2pi/alat
        k(    1) = (   0.0000000   0.0000000   0.0000000), wk =   2.0000000

     Dense  grid:   350738 G-vectors     FFT dimensions: ( 120, 120, 120)

     Smooth grid:    88755 G-vectors     FFT dimensions: (  72,  72,  72)

     Estimated max dynamical RAM per process >     599.84 MB

     Initial potential from superposition of free atoms

     starting charge   29.51871, renormalised to   30.00000

     negative rho (up, down):  4.533E-04 0.000E+00
     Starting wfcs are   29 randomized atomic wfcs

     total cpu time spent up to now is       14.7 secs

     Self-consistent Calculation

     iteration #  1     ecut=    30.00 Ry     beta= 0.70
     Davidson diagonalization with overlap
     ethr =  1.00E-02,  avg # of iterations =  2.0

     negative rho (up, down):  1.343E-04 0.000E+00

     add environment contribution to local potential
     polarization accuracy = 6.6E-06, # of iterations =  15

     total cpu time spent up to now is       22.1 secs

     total energy              =     -82.29323878 Ry
     estimated scf accuracy    <       2.00743679 Ry
     electrostatic embedding   =       0.00000000 Ry
     electrolyte free energy   =       0.00484086 Ry
     correction to one-el term =      -0.00000000 Ry

     iteration #  2     ecut=    30.00 Ry     beta= 0.70
     Davidson diagonalization with overlap
     ethr =  6.69E-03,  avg # of iterations =  3.0

     negative rho (up, down):  8.677E-05 0.000E+00

     add environment contribution to local potential
     polarization accuracy = 4.6E-06, # of iterations =  16

     total cpu time spent up to now is       29.9 secs

     total energy              =     -82.54628132 Ry
     estimated scf accuracy    <       0.29774990 Ry
     electrostatic embedding   =      -0.02779166 Ry
     electrolyte free energy   =       0.00474996 Ry
     correction to one-el term =       0.08452202 Ry

     iteration #  3     ecut=    30.00 Ry     beta= 0.70
     Davidson diagonalization with overlap
     ethr =  9.92E-04,  avg # of iterations =  4.0

     negative rho (up, down):  6.708E-05 0.000E+00

     add environment contribution to local potential
     polarization accuracy = 6.2E-06, # of iterations =  16

     total cpu time spent up to now is       37.7 secs

     total energy              =     -82.63109090 Ry
     estimated scf accuracy    <       0.05336642 Ry
     electrostatic embedding   =      -0.01954225 Ry
     electrolyte free energy   =       0.00475817 Ry
     correction to one-el term =       0.62933210 Ry

     iteration #  4     ecut=    30.00 Ry     beta= 0.70
     Davidson diagonalization with overlap
     ethr =  1.78E-04,  avg # of iterations =  3.0

     negative rho (up, down):  4.801E-05 0.000E+00

     add environment contribution to local potential
     polarization accuracy = 7.3E-06, # of iterations =  16

     total cpu time spent up to now is       45.4 secs

     total energy              =     -82.64492146 Ry
     estimated scf accuracy    <       0.00339622 Ry
     electrostatic embedding   =      -0.01715615 Ry
     electrolyte free energy   =       0.00475850 Ry
     correction to one-el term =       0.87173822 Ry

     iteration #  5     ecut=    30.00 Ry     beta= 0.70
     Davidson diagonalization with overlap
     ethr =  1.13E-05,  avg # of iterations =  2.0

     negative rho (up, down):  1.375E-04 0.000E+00

     the potential shift due to the Gaussian-smeared nuclei is    -0.0801 ev

     total cpu time spent up to now is       48.0 secs

     End of self-consistent calculation

          k = 0.0000 0.0000 0.0000 ( 11060 PWs)   bands (ev):

   -23.3127 -19.6280 -18.8725 -15.4074 -15.2808 -12.8091 -11.6634 -11.2006
   -10.4483  -9.8097  -9.4551  -8.6872  -7.0578  -6.6506  -5.6508

     highest occupied level (ev):    -5.6508

!    total energy              =     -82.64565662 Ry
     estimated scf accuracy    <       0.00046981 Ry

     The total energy is the sum of the following terms:
     one-electron contribution =    -292.42108684 Ry
     hartree contribution      =     149.42896506 Ry
     xc contribution           =     -25.97522122 Ry
     ewald contribution        =      85.35745758 Ry
     electrostatic embedding   =      -0.01753168 Ry
     electrolyte free energy   =       0.00475111 Ry
     correction to one-el term =       0.97700937 Ry

     WARNING: you are using the parabolic pbc correction;
              the potential shift above must be added to 
              band and Fermi energies.

     convergence has been achieved in   5 iterations
 forces lc
       1    0.0753    0.0001   -0.0000
       2    0.0315    0.0439   -0.0000
       3    0.0278    0.0295   -0.0000
       4    0.0356   -0.0000   -0.0000
       5    0.0279   -0.0295    0.0000
       6    0.0315   -0.0439    0.0000
       7    0.0022    0.0206   -0.0000
       8    0.0070    0.0128   -0.0000
       9    0.0126   -0.0000   -0.0000
      10    0.0070   -0.0128    0.0000
      11    0.0022   -0.0206    0.0000

     Forces acting on atoms (cartesian axes, Ry/au):

     atom    1 type  1   force =    -0.04642420    0.00022798   -0.00001176
     atom    2 type  2   force =    -0.00576673   -0.06089784    0.00007904
     atom    3 type  2   force =     0.01765117    0.01598379   -0.00004622
     atom    4 type  2   force =     0.00773795    0.00004373    0.00000631
     atom    5 type  2   force =     0.01739441   -0.01618179    0.00000493
     atom    6 type  2   force =    -0.00558330    0.06062354   -0.00001655
     atom    7 type  3   force =     0.00301150   -0.00083949    0.00002527
     atom    8 type  3   force =     0.00584014   -0.00118506   -0.00003928
     atom    9 type  3   force =    -0.00265586   -0.00005511    0.00002931
     atom   10 type  3   force =     0.00574877    0.00138739   -0.00002978
     atom   11 type  3   force =     0.00304615    0.00089286   -0.00000127

     Total force =     0.104366     Total SCF correction =     0.037047
     SCF correction compared to forces is large: reduce conv_thr to get better values

     Writing output data file /Users/gabrielmedrano/Desktop/q-e/Environ/tests/../..//tempdir/pwscf.save/

     init_run     :     13.83s CPU     14.64s WALL (       1 calls)
     electrons    :     33.28s CPU     33.28s WALL (       1 calls)
     forces       :     18.11s CPU     18.41s WALL (       1 calls)

     Called by init_run:
     wfcinit      :      0.16s CPU      0.15s WALL (       1 calls)
     potinit      :      1.61s CPU      1.70s WALL (       1 calls)
     hinit0       :     11.32s CPU     11.77s WALL (       1 calls)

     Called by electrons:
     c_bands      :      1.35s CPU      1.12s WALL (       5 calls)
     sum_band     :      4.70s CPU      2.78s WALL (       5 calls)
     v_of_rho     :      3.33s CPU      3.79s WALL (       6 calls)
     newd         :      1.73s CPU      2.40s WALL (       6 calls)
     mix_rho      :      0.34s CPU      0.39s WALL (       5 calls)

     Called by c_bands:
     init_us_2    :      0.04s CPU      0.04s WALL (      11 calls)
     regterg      :      1.29s CPU      1.05s WALL (       5 calls)

     Called by *egterg:
     rdiaghg      :      0.00s CPU      0.00s WALL (      19 calls)
     h_psi        :      1.19s CPU      1.09s WALL (      20 calls)
     s_psi        :      0.09s CPU      0.01s WALL (      20 calls)
     g_psi        :      0.01s CPU      0.01s WALL (      14 calls)

     Called by h_psi:
     h_psi:calbec :      0.04s CPU      0.04s WALL (      20 calls)
     vloc_psi     :      1.00s CPU      1.01s WALL (      20 calls)
     add_vuspsi   :      0.15s CPU      0.04s WALL (      20 calls)

     General routines
     calbec       :      0.06s CPU      0.05s WALL (      29 calls)
     fft          :     11.03s CPU     11.52s WALL (     281 calls)
     ffts         :      0.05s CPU      0.05s WALL (      11 calls)
     fftw         :      0.91s CPU      0.92s WALL (     304 calls)
     interpolate  :      0.27s CPU      0.30s WALL (       6 calls)

     Parallel routines
     fft_scatt_xy :      0.95s CPU      0.95s WALL (     212 calls)
     fft_scatt_yz :      1.25s CPU      1.25s WALL (     212 calls)

     Environ routines
     calc_eelect  :      0.03s CPU      0.03s WALL (      10 calls)
     calc_velect  :     16.68s CPU     17.42s WALL (       8 calls)
     dielectric   :      0.28s CPU      0.31s WALL (       8 calls)
     electrolyte  :      0.01s CPU      0.01s WALL (       2 calls)
     calc_felect  :      0.38s CPU      0.39s WALL (       1 calls)

     PWSCF        :   1m 5.29s CPU   1m 6.52s WALL


   This run was terminated on:  10:31:26  22Jan2021            

=------------------------------------------------------------------------------=
   JOB DONE.
=------------------------------------------------------------------------------=
 Calling electrostatic_initbase now
 electrolyte_distance:    0.0000000000000000     
 sc_distance:    0.0000000000000000     
 velectrostatic started
 vreference created

%%%% IONS %%%%%%%%%%%%%%%%%%%%%%%%%%%%%%%%%%%%%%%%%%%%%%%%%%%%%%%%%%%%%%%%%%%%%%
 number of ions             =         11
 ionic center of charge     =      0.0072664     0.0000000     0.0001166
 total ionic charge         =    -30.0000000
 ionic dipole               =      0.0000000     0.0000000     0.0000000
 ionic quadrupole (pc)      =   -131.0719083  -146.7987081    -0.0000314
 ionic quadrupole (gauss)   =   -134.8219083  -150.5487081    -3.7500314
 ion   1 type =  1 coordinates =     -2.4454071     0.0000002     0.0030272
 ion   2 type =  2 coordinates =     -1.2331440     2.2473584     0.0020749
 ion   3 type =  2 coordinates =      1.3781229     2.2851921     0.0014627
 ion   4 type =  2 coordinates =      2.6939354     0.0000002     0.0013189
 ion   5 type =  2 coordinates =      1.3781232    -2.2851919     0.0026521
 ion   6 type =  2 coordinates =     -1.2331437    -2.2473574     0.0035464
 ion   7 type =  3 coordinates =     -2.4127312     3.9381412     0.0017094
 ion   8 type =  3 coordinates =      2.3590962     4.0987221     0.0008035
 ion   9 type =  3 coordinates =      4.7585861    -0.0000002     0.0000199
 ion  10 type =  3 coordinates =      2.3590968    -4.0987217     0.0032074
 ion  11 type =  3 coordinates =     -2.4127303    -3.9381403     0.0048805

%%%% SYSTEM %%%%%%%%%%%%%%%%%%%%%%%%%%%%%%%%%%%%%%%%%%%%%%%%%%%%%%%%%%%%%%%%%%%%
 system is built from all present ionic types
 system defined dimension   =  0 
 system defined axis        =  3 
 system center              =      0.0072664     0.0000000     0.0001166 
 system width               =      0.2348011 

%%%% IONS %%%%%%%%%%%%%%%%%%%%%%%%%%%%%%%%%%%%%%%%%%%%%%%%%%%%%%%%%%%%%%%%%%%%%%
 number of ions             =         11
 ionic center of charge     =      0.0072664     0.0000000     0.0001166
 total ionic charge         =    -30.0000000
 ionic dipole               =      0.0000000     0.0000000     0.0000000
 ionic quadrupole (pc)      =   -131.0719083  -146.7987081    -0.0000314
 ionic quadrupole (gauss)   =   -134.8219083  -150.5487081    -3.7500314
 ion   1 type =  1 coordinates =     -2.4454071     0.0000002     0.0030272
 ion   2 type =  2 coordinates =     -1.2331440     2.2473584     0.0020749
 ion   3 type =  2 coordinates =      1.3781229     2.2851921     0.0014627
 ion   4 type =  2 coordinates =      2.6939354     0.0000002     0.0013189
 ion   5 type =  2 coordinates =      1.3781232    -2.2851919     0.0026521
 ion   6 type =  2 coordinates =     -1.2331437    -2.2473574     0.0035464
 ion   7 type =  3 coordinates =     -2.4127312     3.9381412     0.0017094
 ion   8 type =  3 coordinates =      2.3590962     4.0987221     0.0008035
 ion   9 type =  3 coordinates =      4.7585861    -0.0000002     0.0000199
 ion  10 type =  3 coordinates =      2.3590968    -4.0987217     0.0032074
 ion  11 type =  3 coordinates =     -2.4127303    -3.9381403     0.0048805

%%%% SYSTEM %%%%%%%%%%%%%%%%%%%%%%%%%%%%%%%%%%%%%%%%%%%%%%%%%%%%%%%%%%%%%%%%%%%%
 system is built from all present ionic types
 system defined dimension   =  0 
 system defined axis        =  3 
 system center              =      0.0072664     0.0000000     0.0001166 
 system width               =      0.2348011 

%%%% DIELECTRIC %%%%%%%%%%%%%%%%%%%%%%%%%%%%%%%%%%%%%%%%%%%%%%%%%%%%%%%%%%%%%%%%%
 dielectric build on homogeneous background
 environment bulk permitt.  =     20.0000000 
 dielectric flags
 need gradient              =  F 
 need factor depend. sqrt   =  T 
 total dielectric charge    =      0.0000000

%%%% BOUNDARY %%%%%%%%%%%%%%%%%%%%%%%%%%%%%%%%%%%%%%%%%%%%%%%%%%%%%%%%%%%%%%%%%%
 boundary label             = electrolyte          
 boundary mode              = ionic                
 boundary is built from soft-spheres centered on ionic positions
 solvent-dependent scaling  =      1.5000000 
 softness parameter         =      0.5000000 
 volume of the QM region    =   1716.7618812 
 surface of the QM region   =    717.2136617 

%%%% ELECTROLYTE %%%%%%%%%%%%%%%%%%%%%%%%%%%%%%%%%%%%%%%%%%%%%%%%%%%%%%%%%%%%%%%%
 number electrol. species   =    2
 solvent temperature        =   300.0
 Debye length / sqrt(eps)   =      0.2301070
 modified Poisson-Boltzmann 
 maximum concentration      =      0.0190986
 electrolyte species    1
 bulk concentration  (a.u.) =      0.7139E-03
 bulk concentration (mol/L) =      8.0000000
 ionic charge               =   -1.00
 electrolyte species    2
 bulk concentration  (a.u.) =      0.7139E-03
 bulk concentration (mol/L) =      8.0000000
 ionic charge               =    1.00
 electrolyte flags
 linearized                 =  T
 total electrolyte charge   =      0.0000000

%%%% ELECTRONS %%%%%%%%%%%%%%%%%%%%%%%%%%%%%%%%%%%%%%%%%%%%%%%%%%%%%%%%%%%%%%%%%
 number of electrons        =         30
 total electronic charge    =     30.0000000

%%%% ELECTRONS %%%%%%%%%%%%%%%%%%%%%%%%%%%%%%%%%%%%%%%%%%%%%%%%%%%%%%%%%%%%%%%%%
 number of electrons        =         30
 total electronic charge    =     30.0000000

%%%% BOUNDARY %%%%%%%%%%%%%%%%%%%%%%%%%%%%%%%%%%%%%%%%%%%%%%%%%%%%%%%%%%%%%%%%%%
 boundary label             = solvent              
 boundary mode              = electronic           
 boundary is built as a function of a smooth density
 function type              =  2 
 using the modified SCCS function with parameters 
 rhomax                     =      0.0050000 
 rhomin                     =      0.0001000 
 volume of the QM region    =   2407.1059940 
 surface of the QM region   =    815.5587045 

%%%% DIELECTRIC %%%%%%%%%%%%%%%%%%%%%%%%%%%%%%%%%%%%%%%%%%%%%%%%%%%%%%%%%%%%%%%%%
 dielectric build on homogeneous background
 environment bulk permitt.  =     20.0000000 
 dielectric flags
 need gradient              =  F 
 need factor depend. sqrt   =  T 
 total dielectric charge    =      0.0000000

%%%% DENSITY %%%%%%%%%%%%%%%%%%%%%%%%%%%%%%%%%%%%%%%%%%%%%%%%%%%%%%%%%%%%%%%%%%%
 density label              = dvtot                                                                           
 integral of density        =      0.000000000    

%%%% DENSITY %%%%%%%%%%%%%%%%%%%%%%%%%%%%%%%%%%%%%%%%%%%%%%%%%%%%%%%%%%%%%%%%%%%
 density label              = vreference                                                                      
 integral of density        =      0.000000000    

%%%% DENSITY %%%%%%%%%%%%%%%%%%%%%%%%%%%%%%%%%%%%%%%%%%%%%%%%%%%%%%%%%%%%%%%%%%%
 density label              = velectrostatic                                                                  
 integral of density        =      0.000000000    

%%%% CHARGES %%%%%%%%%%%%%%%%%%%%%%%%%%%%%%%%%%%%%%%%%%%%%%%%%%%%%%%%%%%%%%%%%%%
 total number of charges    =         41
 total charge               =     -0.0000000

%%%% DENSITY %%%%%%%%%%%%%%%%%%%%%%%%%%%%%%%%%%%%%%%%%%%%%%%%%%%%%%%%%%%%%%%%%%%
 density label              = vsoftcavity                                                                     
 integral of density        =      0.000000000    

%%%% ELECTRONS %%%%%%%%%%%%%%%%%%%%%%%%%%%%%%%%%%%%%%%%%%%%%%%%%%%%%%%%%%%%%%%%%
 number of electrons        =         30
 total electronic charge    =     30.0000000

%%%% ELECTRONS %%%%%%%%%%%%%%%%%%%%%%%%%%%%%%%%%%%%%%%%%%%%%%%%%%%%%%%%%%%%%%%%%
 number of electrons        =         30
 total electronic charge    =     30.0000000

%%%% BOUNDARY %%%%%%%%%%%%%%%%%%%%%%%%%%%%%%%%%%%%%%%%%%%%%%%%%%%%%%%%%%%%%%%%%%
 boundary label             = solvent              
 boundary mode              = electronic           
 boundary is built as a function of a smooth density
 function type              =  2 
 using the modified SCCS function with parameters 
 rhomax                     =      0.0050000 
 rhomin                     =      0.0001000 
 volume of the QM region    =   1079.4809383 
 surface of the QM region   =    528.9398834 

%%%% DIELECTRIC %%%%%%%%%%%%%%%%%%%%%%%%%%%%%%%%%%%%%%%%%%%%%%%%%%%%%%%%%%%%%%%%%
 dielectric build on homogeneous background
 environment bulk permitt.  =     20.0000000 
 dielectric flags
 need gradient              =  F 
 need factor depend. sqrt   =  T 
 total dielectric charge    =      0.0000000

%%%% DENSITY %%%%%%%%%%%%%%%%%%%%%%%%%%%%%%%%%%%%%%%%%%%%%%%%%%%%%%%%%%%%%%%%%%%
 density label              = vreference                                                                      
 integral of density        =    -0.2151175071E-11

%%%% COMPUTE ELECTROSTATIC POTENTIAL %%%%%%%%%%%%%%%%%%%%%%%%%%%%%%%%%%%%%%%%%%%
 Iteration #          1
  pAp =    124.76658528498504       rzold =    121.18010664674728       alpha =   0.97125449390118579     
 delta_qm =   0.157498E-01 delta_en =   0.428639E+03 tol =   0.100000E-04
 Iteration #          2
  pAp =    6250.6900120297068       rzold =    139.96466805752073       alpha =    2.2391874783128429E-002
 delta_qm =   0.351370E-02 delta_en =   0.213341E+02 tol =   0.100000E-04
 Iteration #          3
  pAp =    10.124180295811160       rzold =    1.3360902623648352       alpha =   0.13197021618803426     
 delta_qm =   0.150420E-02 delta_en =   0.390978E+01 tol =   0.100000E-04
 Iteration #          4
  pAp =   0.75187044094704247       rzold =   0.13437273652808537       alpha =   0.17871794023293680     
 delta_qm =   0.695707E-03 delta_en =   0.836365E+00 tol =   0.100000E-04
 Iteration #          5
  pAp =   0.45490716317956043       rzold =    4.3674984491455737E-002  alpha =    9.6008566201047918E-002
 delta_qm =   0.418820E-03 delta_en =   0.303109E+00 tol =   0.100000E-04
 Iteration #          6
  pAp =    8.5810553883707966E-002  rzold =    1.1819856671627828E-002  alpha =   0.13774362402608792     
 delta_qm =   0.230890E-03 delta_en =   0.921201E-01 tol =   0.100000E-04
 Iteration #          7
  pAp =    1.0256824355004631E-002  rzold =    1.9389526598709633E-003  alpha =   0.18904025191041579     
 delta_qm =   0.123937E-03 delta_en =   0.265429E-01 tol =   0.100000E-04
 Iteration #          8
  pAp =    1.4231740687989784E-003  rzold =    2.5269859448057125E-004  alpha =   0.17755986426440759     
 delta_qm =   0.917059E-04 delta_en =   0.145324E-01 tol =   0.100000E-04
 Iteration #          9
  pAp =    2.1078083317836623E-003  rzold =    2.9152381411742812E-004  alpha =   0.13830660488505417     
 delta_qm =   0.472318E-04 delta_en =   0.385490E-02 tol =   0.100000E-04
 Iteration #         10
  pAp =    1.1300384728779043E-004  rzold =    3.4060782124015308E-005  alpha =   0.30141258852250979     
 delta_qm =   0.239527E-04 delta_en =   0.991409E-03 tol =   0.100000E-04
 Iteration #         11
  pAp =    8.9166225117939175E-005  rzold =    1.5793689109058129E-005  alpha =   0.17712636245582888     
 delta_qm =   0.127335E-04 delta_en =   0.280182E-03 tol =   0.100000E-04
 Iteration #         12
  pAp =    1.8334141761425343E-005  rzold =    4.0023273259621673E-006  alpha =   0.21829913709857865     
 delta_qm =   0.639459E-05 delta_en =   0.706592E-04 tol =   0.100000E-04
 Iteration #         13
  pAp =    2.0740395396899702E-005  rzold =    1.7407963756122841E-006  alpha =    8.3932651345330692E-002
 delta_qm =   0.467352E-05 delta_en =   0.377425E-04 tol =   0.100000E-04
 Iteration #         14
  pAp =    4.4713786581829764E-006  rzold =    4.6189194429585667E-007  alpha =   0.10329967099756981     
 delta_qm =   0.337813E-05 delta_en =   0.197195E-04 tol =   0.100000E-04
 Iteration #         15
  pAp =    1.8030829995180683E-005  rzold =    1.0865378397328701E-006  alpha =    6.0260001343436891E-002
 delta_qm =   0.195258E-05 delta_en =   0.658813E-05 tol =   0.100000E-04
 Charges are converged, EXIT

%%%% DENSITY %%%%%%%%%%%%%%%%%%%%%%%%%%%%%%%%%%%%%%%%%%%%%%%%%%%%%%%%%%%%%%%%%%%
 density label              = velectrostatic                                                                  
 integral of density        =     -280.0365251    

%%%% CHARGES %%%%%%%%%%%%%%%%%%%%%%%%%%%%%%%%%%%%%%%%%%%%%%%%%%%%%%%%%%%%%%%%%%%
 total number of charges    =         41
 total charge               =     -0.0000000

%%%% DENSITY %%%%%%%%%%%%%%%%%%%%%%%%%%%%%%%%%%%%%%%%%%%%%%%%%%%%%%%%%%%%%%%%%%%
 density label              = vsoftcavity                                                                     
 integral of density        =      16.22034749    

%%%% DENSITY %%%%%%%%%%%%%%%%%%%%%%%%%%%%%%%%%%%%%%%%%%%%%%%%%%%%%%%%%%%%%%%%%%%
 density label              = dvtot                                                                           
 integral of density        =     -263.8161777    

%%%% ELECTRONS %%%%%%%%%%%%%%%%%%%%%%%%%%%%%%%%%%%%%%%%%%%%%%%%%%%%%%%%%%%%%%%%%
 number of electrons        =         30
 total electronic charge    =     30.0000000

%%%% ELECTRONS %%%%%%%%%%%%%%%%%%%%%%%%%%%%%%%%%%%%%%%%%%%%%%%%%%%%%%%%%%%%%%%%%
 number of electrons        =         30
 total electronic charge    =     30.0000000

%%%% BOUNDARY %%%%%%%%%%%%%%%%%%%%%%%%%%%%%%%%%%%%%%%%%%%%%%%%%%%%%%%%%%%%%%%%%%
 boundary label             = solvent              
 boundary mode              = electronic           
 boundary is built as a function of a smooth density
 function type              =  2 
 using the modified SCCS function with parameters 
 rhomax                     =      0.0050000 
 rhomin                     =      0.0001000 
 volume of the QM region    =   1004.0998544 
 surface of the QM region   =    509.9889518 

%%%% DIELECTRIC %%%%%%%%%%%%%%%%%%%%%%%%%%%%%%%%%%%%%%%%%%%%%%%%%%%%%%%%%%%%%%%%%
 dielectric build on homogeneous background
 environment bulk permitt.  =     20.0000000 
 dielectric flags
 need gradient              =  F 
 need factor depend. sqrt   =  T 
 total dielectric charge    =     -0.0023592

%%%% DENSITY %%%%%%%%%%%%%%%%%%%%%%%%%%%%%%%%%%%%%%%%%%%%%%%%%%%%%%%%%%%%%%%%%%%
 density label              = vreference                                                                      
 integral of density        =     0.2151837607E-11

%%%% COMPUTE ELECTROSTATIC POTENTIAL %%%%%%%%%%%%%%%%%%%%%%%%%%%%%%%%%%%%%%%%%%%
 Warning: bad guess with residual norm =   0.243268E+03, reset to no guess
 Iteration #          1
  pAp =    124.08092525474244       rzold =    122.27929755273439       alpha =   0.98548022028116533     
 delta_qm =   0.117463E-01 delta_en =   0.238423E+03 tol =   0.100000E-04
 Iteration #          2
  pAp =    3194.7988465630342       rzold =    70.041494050102557       alpha =    2.1923600644044687E-002
 delta_qm =   0.330743E-02 delta_en =   0.189027E+02 tol =   0.100000E-04
 Iteration #          3
  pAp =    13.448442142361580       rzold =    1.2497721638257582       alpha =    9.2930627250056713E-002
 delta_qm =   0.175363E-02 delta_en =   0.531398E+01 tol =   0.100000E-04
 Iteration #          4
  pAp =    2.8975270589736941       rzold =   0.30539800350929064       alpha =   0.10539953460088232     
 delta_qm =   0.890619E-03 delta_en =   0.137065E+01 tol =   0.100000E-04
 Iteration #          5
  pAp =   0.32217188611627356       rzold =    5.1025937080670145E-002  alpha =   0.15838109803986625     
 delta_qm =   0.353927E-03 delta_en =   0.216457E+00 tol =   0.100000E-04
 Iteration #          6
  pAp =    2.8039230979029807E-002  rzold =    5.2406136493051069E-003  alpha =   0.18690290233795986     
 delta_qm =   0.179352E-03 delta_en =   0.555846E-01 tol =   0.100000E-04
 Iteration #          7
  pAp =    4.9753816664409806E-003  rzold =    9.2387891729264640E-004  alpha =   0.18569005942282232     
 delta_qm =   0.112266E-03 delta_en =   0.217793E-01 tol =   0.100000E-04
 Iteration #          8
  pAp =    5.8924560863132976E-004  rzold =    1.5115711196720693E-004  alpha =   0.25652649719071663     
 delta_qm =   0.716996E-04 delta_en =   0.888337E-02 tol =   0.100000E-04
 Iteration #          9
  pAp =    1.9486273151464069E-003  rzold =    1.9234113772253336E-004  alpha =    9.8705964053512271E-002
 delta_qm =   0.436462E-04 delta_en =   0.329182E-02 tol =   0.100000E-04
 Iteration #         10
  pAp =    8.9821553024003415E-005  rzold =    2.6626900747804248E-005  alpha =   0.29644222184277558     
 delta_qm =   0.205288E-04 delta_en =   0.728233E-03 tol =   0.100000E-04
 Iteration #         11
  pAp =    7.5017784573185991E-005  rzold =    1.1536227455536689E-005  alpha =   0.15377990060853045     
 delta_qm =   0.123969E-04 delta_en =   0.265565E-03 tol =   0.100000E-04
 Iteration #         12
  pAp =    1.2262841124353841E-005  rzold =    2.3880073989896464E-006  alpha =   0.19473524730309805     
 delta_qm =   0.824899E-05 delta_en =   0.117583E-03 tol =   0.100000E-04
 Iteration #         13
  pAp =    2.1572338751713556E-005  rzold =    2.2139583323532004E-006  alpha =   0.10262949964928300     
 delta_qm =   0.555810E-05 delta_en =   0.533823E-04 tol =   0.100000E-04
 Iteration #         14
  pAp =    4.4602814657998501E-006  rzold =    3.3083750414802310E-007  alpha =    7.4174131539632537E-002
 delta_qm =   0.465685E-05 delta_en =   0.374738E-04 tol =   0.100000E-04
 Iteration #         15
  pAp =    6.1727858357086049E-006  rzold =    6.4670729865570175E-007  alpha =   0.10476749329526398     
 delta_qm =   0.334321E-05 delta_en =   0.193139E-04 tol =   0.100000E-04
 Iteration #         16
  pAp =    1.5296122447938085E-007  rzold =    7.2603496759758660E-008  alpha =   0.47465295212477593     
 delta_qm =   0.162316E-05 delta_en =   0.455266E-05 tol =   0.100000E-04
 Charges are converged, EXIT

%%%% DENSITY %%%%%%%%%%%%%%%%%%%%%%%%%%%%%%%%%%%%%%%%%%%%%%%%%%%%%%%%%%%%%%%%%%%
 density label              = velectrostatic                                                                  
 integral of density        =     -282.1408343    

%%%% CHARGES %%%%%%%%%%%%%%%%%%%%%%%%%%%%%%%%%%%%%%%%%%%%%%%%%%%%%%%%%%%%%%%%%%%
 total number of charges    =         41
 total charge               =     -0.0000000

%%%% DENSITY %%%%%%%%%%%%%%%%%%%%%%%%%%%%%%%%%%%%%%%%%%%%%%%%%%%%%%%%%%%%%%%%%%%
 density label              = vsoftcavity                                                                     
 integral of density        =      9.376429155    

%%%% DENSITY %%%%%%%%%%%%%%%%%%%%%%%%%%%%%%%%%%%%%%%%%%%%%%%%%%%%%%%%%%%%%%%%%%%
 density label              = dvtot                                                                           
 integral of density        =     -272.7644051    

%%%% ELECTRONS %%%%%%%%%%%%%%%%%%%%%%%%%%%%%%%%%%%%%%%%%%%%%%%%%%%%%%%%%%%%%%%%%
 number of electrons        =         30
 total electronic charge    =     30.0000000

%%%% ELECTRONS %%%%%%%%%%%%%%%%%%%%%%%%%%%%%%%%%%%%%%%%%%%%%%%%%%%%%%%%%%%%%%%%%
 number of electrons        =         30
 total electronic charge    =     30.0000000

%%%% BOUNDARY %%%%%%%%%%%%%%%%%%%%%%%%%%%%%%%%%%%%%%%%%%%%%%%%%%%%%%%%%%%%%%%%%%
 boundary label             = solvent              
 boundary mode              = electronic           
 boundary is built as a function of a smooth density
 function type              =  2 
 using the modified SCCS function with parameters 
 rhomax                     =      0.0050000 
 rhomin                     =      0.0001000 
 volume of the QM region    =    976.6894757 
 surface of the QM region   =    504.0766817 

%%%% DIELECTRIC %%%%%%%%%%%%%%%%%%%%%%%%%%%%%%%%%%%%%%%%%%%%%%%%%%%%%%%%%%%%%%%%%
 dielectric build on homogeneous background
 environment bulk permitt.  =     20.0000000 
 dielectric flags
 need gradient              =  F 
 need factor depend. sqrt   =  T 
 total dielectric charge    =     -0.0007192

%%%% DENSITY %%%%%%%%%%%%%%%%%%%%%%%%%%%%%%%%%%%%%%%%%%%%%%%%%%%%%%%%%%%%%%%%%%%
 density label              = vreference                                                                      
 integral of density        =     0.5214964263E-11

%%%% COMPUTE ELECTROSTATIC POTENTIAL %%%%%%%%%%%%%%%%%%%%%%%%%%%%%%%%%%%%%%%%%%%
 Warning: bad guess with residual norm =   0.167350E+03, reset to no guess
 Iteration #          1
  pAp =    123.72949634581872       rzold =    122.59428024922342       alpha =   0.99082501642597476     
 delta_qm =   0.977663E-02 delta_en =   0.165166E+03 tol =   0.100000E-04
 Iteration #          2
  pAp =    1995.4631046522761       rzold =    43.312782240640097       alpha =    2.1705629204398474E-002
 delta_qm =   0.312418E-02 delta_en =   0.168662E+02 tol =   0.100000E-04
 Iteration #          3
  pAp =    10.635508202239413       rzold =   0.98265881953323853       alpha =    9.2394157462671114E-002
 delta_qm =   0.162091E-02 delta_en =   0.454005E+01 tol =   0.100000E-04
 Iteration #          4
  pAp =    2.2733160492394591       rzold =   0.24254440166179070       alpha =   0.10669189695068323     
 delta_qm =   0.826948E-03 delta_en =   0.118168E+01 tol =   0.100000E-04
 Iteration #          5
  pAp =   0.28999186915305153       rzold =    4.4988325828082237E-002  alpha =   0.15513650765269682     
 delta_qm =   0.337898E-03 delta_en =   0.197294E+00 tol =   0.100000E-04
 Iteration #          6
  pAp =    2.3112044759384113E-002  rzold =    4.4905701067785792E-003  alpha =   0.19429566503220302     
 delta_qm =   0.163746E-03 delta_en =   0.463324E-01 tol =   0.100000E-04
 Iteration #          7
  pAp =    3.8889475308001198E-003  rzold =    7.1339141506640438E-004  alpha =   0.18344074056448631     
 delta_qm =   0.110362E-03 delta_en =   0.210467E-01 tol =   0.100000E-04
 Iteration #          8
  pAp =    4.6350159925025294E-004  rzold =    1.3905027779958866E-004  alpha =   0.29999956423993457     
 delta_qm =   0.620994E-04 delta_en =   0.666375E-02 tol =   0.100000E-04
 Iteration #          9
  pAp =    1.5405101222642687E-003  rzold =    1.3161482502291761E-004  alpha =    8.5435871612104586E-002
 delta_qm =   0.429245E-04 delta_en =   0.318386E-02 tol =   0.100000E-04
 Iteration #         10
  pAp =    8.2831958180261433E-005  rzold =    2.4231975728563564E-005  alpha =   0.29254379904709243     
 delta_qm =   0.209019E-04 delta_en =   0.754946E-03 tol =   0.100000E-04
 Iteration #         11
  pAp =    6.6397436058032044E-005  rzold =    1.0265650030354859E-005  alpha =   0.15460913312048036     
 delta_qm =   0.137585E-04 delta_en =   0.327102E-03 tol =   0.100000E-04
 Iteration #         12
  pAp =    8.1184379175744013E-006  rzold =    2.0794477573952945E-006  alpha =   0.25613889993465450     
 delta_qm =   0.842256E-05 delta_en =   0.122584E-03 tol =   0.100000E-04
 Iteration #         13
  pAp =    1.9256498790017207E-005  rzold =    1.6445294154024804E-006  alpha =    8.5401268077612502E-002
 delta_qm =   0.654387E-05 delta_en =   0.739968E-04 tol =   0.100000E-04
 Iteration #         14
  pAp =    9.1089783157512013E-007  rzold =    2.8878635791496372E-007  alpha =   0.31703485056671588     
 delta_qm =   0.422058E-05 delta_en =   0.307813E-04 tol =   0.100000E-04
 Iteration #         15
  pAp =    2.7958087973273308E-005  rzold =    8.2789298871785621E-007  alpha =    2.9611931599517291E-002
 delta_qm =   0.401115E-05 delta_en =   0.278023E-04 tol =   0.100000E-04
 Iteration #         16
  pAp =    3.2434438839636032E-007  rzold =    1.2541851815102210E-007  alpha =   0.38668317577844519     
 delta_qm =   0.189422E-05 delta_en =   0.620017E-05 tol =   0.100000E-04
 Charges are converged, EXIT

%%%% DENSITY %%%%%%%%%%%%%%%%%%%%%%%%%%%%%%%%%%%%%%%%%%%%%%%%%%%%%%%%%%%%%%%%%%%
 density label              = velectrostatic                                                                  
 integral of density        =     -275.9570919    

%%%% CHARGES %%%%%%%%%%%%%%%%%%%%%%%%%%%%%%%%%%%%%%%%%%%%%%%%%%%%%%%%%%%%%%%%%%%
 total number of charges    =         41
 total charge               =     -0.0000000

%%%% DENSITY %%%%%%%%%%%%%%%%%%%%%%%%%%%%%%%%%%%%%%%%%%%%%%%%%%%%%%%%%%%%%%%%%%%
 density label              = vsoftcavity                                                                     
 integral of density        =      7.850629555    

%%%% DENSITY %%%%%%%%%%%%%%%%%%%%%%%%%%%%%%%%%%%%%%%%%%%%%%%%%%%%%%%%%%%%%%%%%%%
 density label              = dvtot                                                                           
 integral of density        =     -268.1064624    

%%%% ELECTRONS %%%%%%%%%%%%%%%%%%%%%%%%%%%%%%%%%%%%%%%%%%%%%%%%%%%%%%%%%%%%%%%%%
 number of electrons        =         30
 total electronic charge    =     30.0000000

%%%% ELECTRONS %%%%%%%%%%%%%%%%%%%%%%%%%%%%%%%%%%%%%%%%%%%%%%%%%%%%%%%%%%%%%%%%%
 number of electrons        =         30
 total electronic charge    =     30.0000000

%%%% BOUNDARY %%%%%%%%%%%%%%%%%%%%%%%%%%%%%%%%%%%%%%%%%%%%%%%%%%%%%%%%%%%%%%%%%%
 boundary label             = solvent              
 boundary mode              = electronic           
 boundary is built as a function of a smooth density
 function type              =  2 
 using the modified SCCS function with parameters 
 rhomax                     =      0.0050000 
 rhomin                     =      0.0001000 
 volume of the QM region    =    970.6046575 
 surface of the QM region   =    503.3753255 

%%%% DIELECTRIC %%%%%%%%%%%%%%%%%%%%%%%%%%%%%%%%%%%%%%%%%%%%%%%%%%%%%%%%%%%%%%%%%
 dielectric build on homogeneous background
 environment bulk permitt.  =     20.0000000 
 dielectric flags
 need gradient              =  F 
 need factor depend. sqrt   =  T 
 total dielectric charge    =      0.0001586

%%%% DENSITY %%%%%%%%%%%%%%%%%%%%%%%%%%%%%%%%%%%%%%%%%%%%%%%%%%%%%%%%%%%%%%%%%%%
 density label              = vreference                                                                      
 integral of density        =    -0.2001679943E-11

%%%% COMPUTE ELECTROSTATIC POTENTIAL %%%%%%%%%%%%%%%%%%%%%%%%%%%%%%%%%%%%%%%%%%%
 Warning: bad guess with residual norm =   0.145037E+03, reset to no guess
 Iteration #          1
  pAp =    123.65728118143004       rzold =    122.70910986510731       alpha =   0.99233226456813672     
 delta_qm =   0.911072E-02 delta_en =   0.143433E+03 tol =   0.100000E-04
 Iteration #          2
  pAp =    1601.4576547782876       rzold =    34.897905057068520       alpha =    2.1791338005687031E-002
 delta_qm =   0.319716E-02 delta_en =   0.176633E+02 tol =   0.100000E-04
 Iteration #          3
  pAp =    12.076268635296699       rzold =    1.0400078559765156       alpha =    8.6119966968668207E-002
 delta_qm =   0.167010E-02 delta_en =   0.481977E+01 tol =   0.100000E-04
 Iteration #          4
  pAp =    2.1831386466631613       rzold =   0.24607241412268241       alpha =   0.11271497323305329     
 delta_qm =   0.816491E-03 delta_en =   0.115198E+01 tol =   0.100000E-04
 Iteration #          5
  pAp =   0.28550153123429717       rzold =    4.3795741251954318E-002  alpha =   0.15339932175709869     
 delta_qm =   0.337562E-03 delta_en =   0.196902E+00 tol =   0.100000E-04
 Iteration #          6
  pAp =    2.1282835094606167E-002  rzold =    4.2686602866457042E-003  alpha =   0.20056821695374297     
 delta_qm =   0.158603E-03 delta_en =   0.434678E-01 tol =   0.100000E-04
 Iteration #          7
  pAp =    3.4722984858905795E-003  rzold =    6.3730232836822732E-004  alpha =   0.18353903933024676     
 delta_qm =   0.111165E-03 delta_en =   0.213540E-01 tol =   0.100000E-04
 Iteration #          8
  pAp =    4.5262617136745590E-004  rzold =    1.3990300091860103E-004  alpha =   0.30909171799750718     
 delta_qm =   0.597922E-04 delta_en =   0.617779E-02 tol =   0.100000E-04
 Iteration #          9
  pAp =    1.2356573706454477E-003  rzold =    1.0509701820937917E-004  alpha =    8.5053527544194193E-002
 delta_qm =   0.436635E-04 delta_en =   0.329444E-02 tol =   0.100000E-04
 Iteration #         10
  pAp =    8.9779299109797988E-005  rzold =    2.5377278487873598E-005  alpha =   0.28266291605638155     
 delta_qm =   0.215347E-04 delta_en =   0.801349E-03 tol =   0.100000E-04
 Iteration #         11
  pAp =    6.2985363794029671E-005  rzold =    9.7175896758304581E-006  alpha =   0.15428329838037039     
 delta_qm =   0.148791E-04 delta_en =   0.382560E-03 tol =   0.100000E-04
 Iteration #         12
  pAp =    7.6026062309430990E-006  rzold =    2.1183700183252401E-006  alpha =   0.27863734540180934     
 delta_qm =   0.901408E-05 delta_en =   0.140406E-03 tol =   0.100000E-04
 Iteration #         13
  pAp =    1.6959120750155654E-005  rzold =    1.4176218229570441E-006  alpha =    8.3590525938323348E-002
 delta_qm =   0.730266E-05 delta_en =   0.921522E-04 tol =   0.100000E-04
 Iteration #         14
  pAp =    2.4882733937480350E-006  rzold =    3.7178484597097786E-007  alpha =   0.14941478975144529     
 delta_qm =   0.665344E-05 delta_en =   0.764955E-04 tol =   0.100000E-04
 Iteration #         15
  pAp =    2.4039359343259736E-005  rzold =    1.4490048031641247E-006  alpha =    6.0276348569597099E-002
 delta_qm =   0.432822E-05 delta_en =   0.323714E-04 tol =   0.100000E-04
 Iteration #         16
  pAp =    3.7147312519852058E-007  rzold =    1.4638388223734805E-007  alpha =   0.39406318333020296     
 delta_qm =   0.205473E-05 delta_en =   0.729549E-05 tol =   0.100000E-04
 Charges are converged, EXIT

%%%% DENSITY %%%%%%%%%%%%%%%%%%%%%%%%%%%%%%%%%%%%%%%%%%%%%%%%%%%%%%%%%%%%%%%%%%%
 density label              = velectrostatic                                                                  
 integral of density        =     -274.1055719    

%%%% CHARGES %%%%%%%%%%%%%%%%%%%%%%%%%%%%%%%%%%%%%%%%%%%%%%%%%%%%%%%%%%%%%%%%%%%
 total number of charges    =         41
 total charge               =     -0.0000000

%%%% DENSITY %%%%%%%%%%%%%%%%%%%%%%%%%%%%%%%%%%%%%%%%%%%%%%%%%%%%%%%%%%%%%%%%%%%
 density label              = vsoftcavity                                                                     
 integral of density        =      7.603534130    

%%%% DENSITY %%%%%%%%%%%%%%%%%%%%%%%%%%%%%%%%%%%%%%%%%%%%%%%%%%%%%%%%%%%%%%%%%%%
 density label              = dvtot                                                                           
 integral of density        =     -266.5020378    

%%%% ELECTRONS %%%%%%%%%%%%%%%%%%%%%%%%%%%%%%%%%%%%%%%%%%%%%%%%%%%%%%%%%%%%%%%%%
 number of electrons        =         30
 total electronic charge    =     30.0000000

%%%% ELECTRONS %%%%%%%%%%%%%%%%%%%%%%%%%%%%%%%%%%%%%%%%%%%%%%%%%%%%%%%%%%%%%%%%%
 number of electrons        =         30
 total electronic charge    =     30.0000000

%%%% BOUNDARY %%%%%%%%%%%%%%%%%%%%%%%%%%%%%%%%%%%%%%%%%%%%%%%%%%%%%%%%%%%%%%%%%%
 boundary label             = solvent              
 boundary mode              = electronic           
 boundary is built as a function of a smooth density
 function type              =  2 
 using the modified SCCS function with parameters 
 rhomax                     =      0.0050000 
 rhomin                     =      0.0001000 
 volume of the QM region    =    970.6046575 
 surface of the QM region   =    503.3753255 

%%%% DIELECTRIC %%%%%%%%%%%%%%%%%%%%%%%%%%%%%%%%%%%%%%%%%%%%%%%%%%%%%%%%%%%%%%%%%
 dielectric build on homogeneous background
 environment bulk permitt.  =     20.0000000 
 dielectric flags
 need gradient              =  F 
 need factor depend. sqrt   =  T 
 total dielectric charge    =      0.0006580

%%%% DENSITY %%%%%%%%%%%%%%%%%%%%%%%%%%%%%%%%%%%%%%%%%%%%%%%%%%%%%%%%%%%%%%%%%%%
 density label              = dvtot                                                                           
 integral of density        =     -266.5020378    

%%%% DENSITY %%%%%%%%%%%%%%%%%%%%%%%%%%%%%%%%%%%%%%%%%%%%%%%%%%%%%%%%%%%%%%%%%%%
 density label              = vreference                                                                      
 integral of density        =    -0.2001679943E-11

%%%% DENSITY %%%%%%%%%%%%%%%%%%%%%%%%%%%%%%%%%%%%%%%%%%%%%%%%%%%%%%%%%%%%%%%%%%%
 density label              = velectrostatic                                                                  
 integral of density        =     -274.1055719    

%%%% CHARGES %%%%%%%%%%%%%%%%%%%%%%%%%%%%%%%%%%%%%%%%%%%%%%%%%%%%%%%%%%%%%%%%%%%
 total number of charges    =         41
 total charge               =     -0.0000000

%%%% DENSITY %%%%%%%%%%%%%%%%%%%%%%%%%%%%%%%%%%%%%%%%%%%%%%%%%%%%%%%%%%%%%%%%%%%
 density label              = vsoftcavity                                                                     
 integral of density        =      7.603534130    
