
     Program PWSCF v.6.1 (svn rev. 13369) starts on 29Jan2018 at 15: 2:32 

     This program is part of the open-source Quantum ESPRESSO suite
     for quantum simulation of materials; please cite
         "P. Giannozzi et al., J. Phys.:Condens. Matter 21 395502 (2009);
          URL http://www.quantum-espresso.org", 
     in publications or presentations arising from this work. More details at
     http://www.quantum-espresso.org/quote

     Parallel version (MPI), running on     1 processors
     Waiting for input...
     Reading input from standard input

     Current dimensions of program PWSCF are:
     Max number of different atomic species (ntypx) = 10
     Max number of k-points (npk) =  40000
     Max angular momentum in pseudopotentials (lmaxx) =  3
               file H.pbe-rrkjus.UPF: wavefunction(s)  1S renormalized
               file O.pbe-rrkjus.UPF: wavefunction(s)  2S renormalized

     Subspace diagonalization in iterative solution of the eigenvalue problem:
     a serial algorithm will be used

 
     G-vector sticks info
     --------------------
     sticks:   dense  smooth     PW     G-vecs:    dense   smooth      PW
     Sum        9549    3809    949               701475   177509   22119
 


     bravais-lattice index     =            1
     lattice parameter (alat)  =      20.0000  a.u.
     unit-cell volume          =    8000.0000 (a.u.)^3
     number of atoms/cell      =            3
     number of atomic types    =            2
     number of electrons       =         8.00
     number of Kohn-Sham states=            4
     kinetic-energy cutoff     =      30.0000  Ry
     charge density cutoff     =     300.0000  Ry
     convergence threshold     =      5.0E-09
     mixing beta               =       0.4000
     number of iterations used =            8  plain     mixing
     Exchange-correlation      =  SLA  PW   PBE  PBE ( 1  4  3  4 0 0)
     nstep                     =           50

 

     Environ Module
     ==============

     Plese cite
         O. Andreussi, I. Dabo and N. Marzari, J. Chem. Phys. 136, 064102 (2012)         
     in publications or presentations arising from this work.

     compensation onset threshold      =               0.1000E+00 
     static permittivity               =                    78.30 
     epsilon calculation mode          =                    ionic 
     surface tension in input (dyn/cm) =                    50.00 
     surface tension in internal units =               0.6423E-04 
     external pressure in input (GPa)  =                    -0.35 
     external pressure in inter. units =              -0.2379E-04 

     Electrostatic Setup
     -------------------
     electrostatic problem to solve    = generalized              
     numerical solver adopted          = cg                       
     type of auxiliary density adopted = none                     
     type of core tool for poisson     = fft                      
     type of core tool for s(r) deriv  = analytic                 



     celldm(1)=  20.000000  celldm(2)=   0.000000  celldm(3)=   0.000000
     celldm(4)=   0.000000  celldm(5)=   0.000000  celldm(6)=   0.000000

     crystal axes: (cart. coord. in units of alat)
               a(1) = (   1.000000   0.000000   0.000000 )  
               a(2) = (   0.000000   1.000000   0.000000 )  
               a(3) = (   0.000000   0.000000   1.000000 )  

     reciprocal axes: (cart. coord. in units 2 pi/alat)
               b(1) = (  1.000000  0.000000  0.000000 )  
               b(2) = (  0.000000  1.000000  0.000000 )  
               b(3) = (  0.000000  0.000000  1.000000 )  


     PseudoPot. # 1 for H  read from file:
     /home/fnattino/Programs/qe-6.1/pseudo/H.pbe-rrkjus.UPF
     MD5 check sum: 7cc9d459525c9a0585f487a71c3c9563
     Pseudo is Ultrasoft, Zval =  1.0
     Generated by new atomic code, or converted to UPF format
     Using radial grid of 1061 points,  2 beta functions with: 
                l(1) =   0
                l(2) =   0
     Q(r) pseudized with 0 coefficients 


     PseudoPot. # 2 for O  read from file:
     /home/fnattino/Programs/qe-6.1/pseudo/O.pbe-rrkjus.UPF
     MD5 check sum: 390ba29e75625707450f3bd3f0eb6be9
     Pseudo is Ultrasoft, Zval =  6.0
     Generated by new atomic code, or converted to UPF format
     Using radial grid of 1269 points,  4 beta functions with: 
                l(1) =   0
                l(2) =   0
                l(3) =   1
                l(4) =   1
     Q(r) pseudized with 0 coefficients 


     atomic species   valence    mass     pseudopotential
        H              1.00     1.00000     H ( 1.00)
        O              6.00    16.00000     O ( 1.00)

     No symmetry found


                                    s                        frac. trans.

      isym =  1     identity                                     

 cryst.   s( 1) = (     1          0          0      )
                  (     0          1          0      )
                  (     0          0          1      )

 cart.    s( 1) = (  1.0000000  0.0000000  0.0000000 )
                  (  0.0000000  1.0000000  0.0000000 )
                  (  0.0000000  0.0000000  1.0000000 )


     point group C_1 (1)    
     there are  1 classes
     the character table:

       E    
A      1.00

     the symmetry operations in each class and the name of the first element:

     E        1
          identity                                               

   Cartesian axes

     site n.     atom                  positions (alat units)
         1           O   tau(   1) = (   0.5895000   0.6025000   0.5750000  )
         2           H   tau(   2) = (   0.6725000   0.5610000   0.5750000  )
         3           H   tau(   3) = (   0.5280000   0.5330000   0.5750000  )

   Crystallographic axes

     site n.     atom                  positions (cryst. coord.)
         1           O   tau(   1) = (  0.5895000  0.6025000  0.5750000  )
         2           H   tau(   2) = (  0.6725000  0.5610000  0.5750000  )
         3           H   tau(   3) = (  0.5280000  0.5330000  0.5750000  )

     number of k points=     1
                       cart. coord. in units 2pi/alat
        k(    1) = (   0.0000000   0.0000000   0.0000000), wk =   2.0000000

                       cryst. coord.
        k(    1) = (   0.0000000   0.0000000   0.0000000), wk =   2.0000000

     Dense  grid:   701475 G-vectors     FFT dimensions: ( 120, 120, 120)

     Smooth grid:   177509 G-vectors     FFT dimensions: (  72,  72,  72)

     Estimated max dynamical RAM per process >     411.75MB

     Initial potential from superposition of free atoms
     Check: negative starting charge=   -0.000775

     starting charge    7.80759, renormalised to    8.00000

     negative rho (up, down):  7.936E-04 0.000E+00
     Starting wfc are    6 randomized atomic wfcs

     total cpu time spent up to now is        6.3 secs

     per-process dynamical memory:   642.5 Mb

     Self-consistent Calculation

     iteration #  1     ecut=    30.00 Ry     beta=0.40
     CG style diagonalization
     ethr =  1.00E-02,  avg # of iterations =  3.0

     negative rho (up, down):  4.642E-04 0.000E+00

     total cpu time spent up to now is        7.8 secs

     total energy              =     -34.21322419 Ry
     Harris-Foulkes estimate   =     -34.58548901 Ry
     estimated scf accuracy    <       0.67771187 Ry
     electrostatic embedding   =       0.00000000 Ry
     cavitation energy         =       0.01344471 Ry
     PV energy                 =      -0.00670492 Ry
     correction to one-el term =       0.00000000 Ry

     iteration #  2     ecut=    30.00 Ry     beta=0.40
     CG style diagonalization
     ethr =  8.47E-03,  avg # of iterations =  3.8

     negative rho (up, down):  2.934E-04 0.000E+00

     add environment contribution to local potential

     total cpu time spent up to now is       13.8 secs

     total energy              =     -34.27101788 Ry
     Harris-Foulkes estimate   =     -34.31757621 Ry
     estimated scf accuracy    <       0.09820248 Ry
     electrostatic embedding   =       0.00000000 Ry
     cavitation energy         =       0.01344471 Ry
     PV energy                 =      -0.00670492 Ry
     correction to one-el term =       0.00000000 Ry

     iteration #  3     ecut=    30.00 Ry     beta=0.40
     CG style diagonalization
     ethr =  1.23E-03,  avg # of iterations =  3.5

     negative rho (up, down):  7.223E-04 0.000E+00

     add environment contribution to local potential

     total cpu time spent up to now is       19.9 secs

     total energy              =     -34.27625063 Ry
     Harris-Foulkes estimate   =     -33.87871936 Ry
     estimated scf accuracy    <       0.02559857 Ry
     electrostatic embedding   =      -0.02752080 Ry
     cavitation energy         =       0.01344471 Ry
     PV energy                 =      -0.00670492 Ry
     correction to one-el term =      -0.39082382 Ry

     iteration #  4     ecut=    30.00 Ry     beta=0.40
     CG style diagonalization
     ethr =  3.20E-04,  avg # of iterations =  3.2

     negative rho (up, down):  6.059E-04 0.000E+00

     add environment contribution to local potential

     total cpu time spent up to now is       25.9 secs

     total energy              =     -34.28554007 Ry
     Harris-Foulkes estimate   =     -34.26960139 Ry
     estimated scf accuracy    <       0.00180077 Ry
     electrostatic embedding   =      -0.02463897 Ry
     cavitation energy         =       0.01344471 Ry
     PV energy                 =      -0.00670492 Ry
     correction to one-el term =       0.00149128 Ry

     iteration #  5     ecut=    30.00 Ry     beta=0.40
     CG style diagonalization
     ethr =  2.25E-05,  avg # of iterations =  4.0

     negative rho (up, down):  5.427E-04 0.000E+00

     add environment contribution to local potential

     total cpu time spent up to now is       32.0 secs

     total energy              =     -34.28650009 Ry
     Harris-Foulkes estimate   =     -34.36651525 Ry
     estimated scf accuracy    <       0.00017988 Ry
     electrostatic embedding   =      -0.02761084 Ry
     cavitation energy         =       0.01344471 Ry
     PV energy                 =      -0.00670492 Ry
     correction to one-el term =       0.10087214 Ry

     iteration #  6     ecut=    30.00 Ry     beta=0.40
     CG style diagonalization
     ethr =  2.25E-06,  avg # of iterations =  3.5

     negative rho (up, down):  5.172E-04 0.000E+00

     add environment contribution to local potential

     total cpu time spent up to now is       38.0 secs

     total energy              =     -34.28658792 Ry
     Harris-Foulkes estimate   =     -34.39304890 Ry
     estimated scf accuracy    <       0.00002124 Ry
     electrostatic embedding   =      -0.02898715 Ry
     cavitation energy         =       0.01344471 Ry
     PV energy                 =      -0.00670492 Ry
     correction to one-el term =       0.12870660 Ry

     iteration #  7     ecut=    30.00 Ry     beta=0.40
     CG style diagonalization
     ethr =  2.66E-07,  avg # of iterations =  3.2

     negative rho (up, down):  3.259E-04 0.000E+00

     add environment contribution to local potential

     total cpu time spent up to now is       44.1 secs

     total energy              =     -34.28659773 Ry
     Harris-Foulkes estimate   =     -34.40135828 Ry
     estimated scf accuracy    <       0.00000137 Ry
     electrostatic embedding   =      -0.02991531 Ry
     cavitation energy         =       0.01344471 Ry
     PV energy                 =      -0.00670492 Ry
     correction to one-el term =       0.13793465 Ry

     iteration #  8     ecut=    30.00 Ry     beta=0.40
     CG style diagonalization
     ethr =  1.72E-08,  avg # of iterations =  4.2

     negative rho (up, down):  2.536E-04 0.000E+00

     add environment contribution to local potential

     total cpu time spent up to now is       50.2 secs

     total energy              =     -34.28659796 Ry
     Harris-Foulkes estimate   =     -34.40063202 Ry
     estimated scf accuracy    <       0.00000039 Ry
     electrostatic embedding   =      -0.02983972 Ry
     cavitation energy         =       0.01344471 Ry
     PV energy                 =      -0.00670492 Ry
     correction to one-el term =       0.13713365 Ry

     iteration #  9     ecut=    30.00 Ry     beta=0.40
     CG style diagonalization
     ethr =  4.87E-09,  avg # of iterations =  4.0

     negative rho (up, down):  2.308E-04 0.000E+00

     add environment contribution to local potential

     total cpu time spent up to now is       56.2 secs

     total energy              =     -34.28659800 Ry
     Harris-Foulkes estimate   =     -34.40043534 Ry
     estimated scf accuracy    <       0.00000012 Ry
     electrostatic embedding   =      -0.02984576 Ry
     cavitation energy         =       0.01344471 Ry
     PV energy                 =      -0.00670492 Ry
     correction to one-el term =       0.13694320 Ry

     iteration # 10     ecut=    30.00 Ry     beta=0.40
     CG style diagonalization
     ethr =  1.56E-09,  avg # of iterations =  4.0

     negative rho (up, down):  2.210E-04 0.000E+00

     add environment contribution to local potential

     total cpu time spent up to now is       62.3 secs

     total energy              =     -34.28659801 Ry
     Harris-Foulkes estimate   =     -34.40048567 Ry
     estimated scf accuracy    <          9.7E-09 Ry
     electrostatic embedding   =      -0.02984733 Ry
     cavitation energy         =       0.01344471 Ry
     PV energy                 =      -0.00670492 Ry
     correction to one-el term =       0.13699517 Ry

     iteration # 11     ecut=    30.00 Ry     beta=0.40
     CG style diagonalization
     ethr =  1.21E-10,  avg # of iterations =  3.8

     negative rho (up, down):  2.163E-04 0.000E+00

     total cpu time spent up to now is       63.6 secs

     End of self-consistent calculation

          k = 0.0000 0.0000 0.0000 ( 22119 PWs)   bands (ev):

   -25.0771 -12.8745  -9.3082  -7.3053

     occupation numbers 
     1.0000   1.0000   1.0000   1.0000

     highest occupied level (ev):    -7.3053

!    total energy              =     -34.28659795 Ry
     Harris-Foulkes estimate   =     -34.40046613 Ry
     estimated scf accuracy    <          1.4E-10 Ry

     The total energy is the sum of the following terms:

     one-electron contribution =     -63.99100800 Ry
     hartree contribution      =      33.42692136 Ry
     xc contribution           =      -8.39373717 Ry
     ewald contribution        =       4.55735774 Ry
     electrostatic embedding   =      -0.02985514 Ry
     cavitation energy         =       0.01344471 Ry
     PV energy                 =      -0.00670492 Ry
     correction to one-el term =       0.13698347 Ry

     convergence has been achieved in  11 iterations
     The global environment contribution to forces
     atom    1 type  2   force =     0.05175288   -0.26770982   -0.00000002
     atom    2 type  1   force =     0.02475726   -0.03491178   -0.00000000
     atom    3 type  1   force =    -0.00997252   -0.04154094   -0.00000000
 

     Forces acting on atoms (cartesian axes, Ry/au):

     atom    1 type  2   force =     0.00146399   -0.00787307    0.00000000
     atom    2 type  1   force =    -0.00915648    0.00226559    0.00000000
     atom    3 type  1   force =     0.00769249    0.00560748   -0.00000000
     The non-local contrib.  to forces
     atom    1 type  2   force =     0.43452849   -2.24212930   -0.00000001
     atom    2 type  1   force =    -0.17838890    0.08247905   -0.00000000
     atom    3 type  1   force =     0.13464894    0.14310063   -0.00000000
     The ionic contribution  to forces
     atom    1 type  2   force =    -0.80474894    4.15284562   -0.00000000
     atom    2 type  1   force =     3.32883149   -1.50955609    0.00000000
     atom    3 type  1   force =    -2.52408255   -2.64328953    0.00000000
     The local contribution  to forces
     atom    1 type  2   force =     0.31994732   -1.65085897    0.00000002
     atom    2 type  1   force =    -3.18434058    1.46427940   -0.00000000
     atom    3 type  1   force =     2.40711296    2.54736147   -0.00000000
     The core correction contribution to forces
     atom    1 type  2   force =     0.00000000    0.00000000    0.00000000
     atom    2 type  1   force =     0.00000000    0.00000000    0.00000000
     atom    3 type  1   force =     0.00000000    0.00000000    0.00000000
     The Hubbard contrib.    to forces
     atom    1 type  2   force =     0.00000000    0.00000000    0.00000000
     atom    2 type  1   force =     0.00000000    0.00000000    0.00000000
     atom    3 type  1   force =     0.00000000    0.00000000    0.00000000
     The SCF correction term to forces
     atom    1 type  2   force =    -0.00000086    0.00000481    0.00000002
     atom    2 type  1   force =    -0.00000086    0.00000043    0.00000001
     atom    3 type  1   force =     0.00000057    0.00000125    0.00000000

     Total force =     0.015612     Total SCF correction =     0.000005

     BFGS Geometry Optimization

     number of scf cycles    =   1
     number of bfgs steps    =   0

     energy   new            =     -34.2865979536 Ry

     new trust radius        =       0.0095193591 bohr
     new conv_thr            =       0.0000000050 Ry


ATOMIC_POSITIONS (bohr)
O       11.791463994  12.042126930  11.500000002
H       13.440843518  11.222265590  11.500000001
H       10.567692488  10.665607480  11.499999998



     Writing output data file h2o_water.save
     Check: negative starting charge=   -0.000775
     NEW-OLD atomic charge density approx. for the potential
     Check: negative starting charge=   -0.000776

     negative rho (up, down):  6.004E-04 0.000E+00

     add environment contribution to local potential

     total cpu time spent up to now is       75.8 secs

     per-process dynamical memory:   642.5 Mb

     Self-consistent Calculation

     iteration #  1     ecut=    30.00 Ry     beta=0.40
     CG style diagonalization
     ethr =  1.00E-06,  avg # of iterations =  4.2

     negative rho (up, down):  4.205E-04 0.000E+00

     add environment contribution to local potential

     total cpu time spent up to now is       81.8 secs

     total energy              =     -34.28660321 Ry
     Harris-Foulkes estimate   =     -34.39839679 Ry
     estimated scf accuracy    <       0.00021219 Ry
     electrostatic embedding   =      -0.02960556 Ry
     cavitation energy         =       0.01341679 Ry
     PV energy                 =      -0.00668714 Ry
     correction to one-el term =       0.13456172 Ry

     iteration #  2     ecut=    30.00 Ry     beta=0.40
     CG style diagonalization
     ethr =  2.65E-06,  avg # of iterations =  4.0

     negative rho (up, down):  3.321E-04 0.000E+00

     add environment contribution to local potential

     total cpu time spent up to now is       87.9 secs

     total energy              =     -34.28664543 Ry
     Harris-Foulkes estimate   =     -34.39951078 Ry
     estimated scf accuracy    <       0.00001296 Ry
     electrostatic embedding   =      -0.02968825 Ry
     cavitation energy         =       0.01341679 Ry
     PV energy                 =      -0.00668714 Ry
     correction to one-el term =       0.13581920 Ry

     iteration #  3     ecut=    30.00 Ry     beta=0.40
     CG style diagonalization
     ethr =  1.62E-07,  avg # of iterations =  4.0

     negative rho (up, down):  2.430E-04 0.000E+00

     add environment contribution to local potential

     total cpu time spent up to now is       94.0 secs

     total energy              =     -34.28664688 Ry
     Harris-Foulkes estimate   =     -34.39903673 Ry
     estimated scf accuracy    <       0.00000276 Ry
     electrostatic embedding   =      -0.02963074 Ry
     cavitation energy         =       0.01341679 Ry
     PV energy                 =      -0.00668714 Ry
     correction to one-el term =       0.13528977 Ry

     iteration #  4     ecut=    30.00 Ry     beta=0.40
     CG style diagonalization
     ethr =  3.45E-08,  avg # of iterations =  4.0

     negative rho (up, down):  2.296E-04 0.000E+00

     add environment contribution to local potential

     total cpu time spent up to now is      100.0 secs

     total energy              =     -34.28664734 Ry
     Harris-Foulkes estimate   =     -34.39871924 Ry
     estimated scf accuracy    <       0.00000017 Ry
     electrostatic embedding   =      -0.02959266 Ry
     cavitation energy         =       0.01341679 Ry
     PV energy                 =      -0.00668714 Ry
     correction to one-el term =       0.13493487 Ry

     iteration #  5     ecut=    30.00 Ry     beta=0.40
     CG style diagonalization
     ethr =  2.17E-09,  avg # of iterations =  4.0

     negative rho (up, down):  2.198E-04 0.000E+00

     add environment contribution to local potential

     total cpu time spent up to now is      106.1 secs

     total energy              =     -34.28664739 Ry
     Harris-Foulkes estimate   =     -34.39868310 Ry
     estimated scf accuracy    <       0.00000002 Ry
     electrostatic embedding   =      -0.02960267 Ry
     cavitation energy         =       0.01341679 Ry
     PV energy                 =      -0.00668714 Ry
     correction to one-el term =       0.13490876 Ry

     iteration #  6     ecut=    30.00 Ry     beta=0.40
     CG style diagonalization
     ethr =  1.99E-10,  avg # of iterations =  3.0

     negative rho (up, down):  2.173E-04 0.000E+00

     total cpu time spent up to now is      107.3 secs

     End of self-consistent calculation

          k = 0.0000 0.0000 0.0000 ( 22119 PWs)   bands (ev):

   -25.1549 -12.9586  -9.3108  -7.3210

     occupation numbers 
     1.0000   1.0000   1.0000   1.0000

     highest occupied level (ev):    -7.3210

!    total energy              =     -34.28664742 Ry
     Harris-Foulkes estimate   =     -34.39865256 Ry
     estimated scf accuracy    <          1.7E-09 Ry

     The total energy is the sum of the following terms:

     one-electron contribution =     -64.15729619 Ry
     hartree contribution      =      33.50570131 Ry
     xc contribution           =      -8.40717281 Ry
     ewald contribution        =       4.66011509 Ry
     electrostatic embedding   =      -0.02961056 Ry
     cavitation energy         =       0.01341679 Ry
     PV energy                 =      -0.00668714 Ry
     correction to one-el term =       0.13488609 Ry

     convergence has been achieved in   6 iterations
     The global environment contribution to forces
     atom    1 type  2   force =     0.05170596   -0.26744033    0.00000000
     atom    2 type  1   force =     0.02466093   -0.03486730    0.00000000
     atom    3 type  1   force =    -0.00989557   -0.04146451    0.00000000
 

     Forces acting on atoms (cartesian axes, Ry/au):

     atom    1 type  2   force =    -0.00152420    0.00853451    0.00000000
     atom    2 type  1   force =     0.00327309   -0.00375874   -0.00000000
     atom    3 type  1   force =    -0.00174889   -0.00477576   -0.00000000
     The non-local contrib.  to forces
     atom    1 type  2   force =     0.43440852   -2.24113755   -0.00000001
     atom    2 type  1   force =    -0.18278507    0.08399985    0.00000000
     atom    3 type  1   force =     0.13819638    0.14620234    0.00000000
     The ionic contribution  to forces
     atom    1 type  2   force =    -0.81421662    4.20438179    0.00000001
     atom    2 type  1   force =     3.38293461   -1.52550371   -0.00000000
     atom    3 type  1   force =    -2.56871799   -2.67887808   -0.00000001
     The local contribution  to forces
     atom    1 type  2   force =     0.32660218   -1.68719922   -0.00000000
     atom    2 type  1   force =    -3.22150789    1.47263485    0.00000000
     atom    3 type  1   force =     2.43870554    2.56938850    0.00000001
     The core correction contribution to forces
     atom    1 type  2   force =     0.00000000    0.00000000    0.00000000
     atom    2 type  1   force =     0.00000000    0.00000000    0.00000000
     atom    3 type  1   force =     0.00000000    0.00000000    0.00000000
     The Hubbard contrib.    to forces
     atom    1 type  2   force =     0.00000000    0.00000000    0.00000000
     atom    2 type  1   force =     0.00000000    0.00000000    0.00000000
     atom    3 type  1   force =     0.00000000    0.00000000    0.00000000
     The SCF correction term to forces
     atom    1 type  2   force =     0.00001043   -0.00005247    0.00000000
     atom    2 type  1   force =     0.00000520   -0.00000472    0.00000000
     atom    3 type  1   force =    -0.00000256   -0.00000630    0.00000000

     Total force =     0.011219     Total SCF correction =     0.000054

     number of scf cycles    =   2
     number of bfgs steps    =   1

     energy   old            =     -34.2865979536 Ry
     energy   new            =     -34.2866474227 Ry

     CASE: energy  _new < energy  _old

     new trust radius        =       0.0049367649 bohr
     new conv_thr            =            5.0E-11 Ry


ATOMIC_POSITIONS (bohr)
O       11.790599247  12.046987368  11.500000003
H       13.442358640  11.220056639  11.500000000
H       10.567042114  10.662955992  11.499999997



     Writing output data file h2o_water.save
     Check: negative starting charge=   -0.000776
     NEW-OLD atomic charge density approx. for the potential
     Check: negative starting charge=   -0.000775

     negative rho (up, down):  2.333E-04 0.000E+00

     add environment contribution to local potential

     total cpu time spent up to now is      119.5 secs

     per-process dynamical memory:   642.5 Mb

     Self-consistent Calculation

     iteration #  1     ecut=    30.00 Ry     beta=0.40
     CG style diagonalization
     ethr =  1.00E-06,  avg # of iterations =  3.5

     negative rho (up, down):  2.176E-04 0.000E+00

     add environment contribution to local potential

     total cpu time spent up to now is      125.6 secs

     total energy              =     -34.28667962 Ry
     Harris-Foulkes estimate   =     -34.39945861 Ry
     estimated scf accuracy    <       0.00003022 Ry
     electrostatic embedding   =      -0.02969530 Ry
     cavitation energy         =       0.01342667 Ry
     PV energy                 =      -0.00669362 Ry
     correction to one-el term =       0.13572614 Ry

     iteration #  2     ecut=    30.00 Ry     beta=0.40
     CG style diagonalization
     ethr =  3.78E-07,  avg # of iterations =  4.0

     negative rho (up, down):  2.131E-04 0.000E+00

     add environment contribution to local potential

     total cpu time spent up to now is      131.6 secs

     total energy              =     -34.28668620 Ry
     Harris-Foulkes estimate   =     -34.39900815 Ry
     estimated scf accuracy    <       0.00000219 Ry
     electrostatic embedding   =      -0.02966987 Ry
     cavitation energy         =       0.01342667 Ry
     PV energy                 =      -0.00669362 Ry
     correction to one-el term =       0.13525804 Ry

     iteration #  3     ecut=    30.00 Ry     beta=0.40
     CG style diagonalization
     ethr =  2.74E-08,  avg # of iterations =  4.0

     negative rho (up, down):  2.176E-04 0.000E+00

     add environment contribution to local potential

     total cpu time spent up to now is      137.7 secs

     total energy              =     -34.28668665 Ry
     Harris-Foulkes estimate   =     -34.39918551 Ry
     estimated scf accuracy    <       0.00000043 Ry
     electrostatic embedding   =      -0.02970018 Ry
     cavitation energy         =       0.01342667 Ry
     PV energy                 =      -0.00669362 Ry
     correction to one-el term =       0.13546593 Ry

     iteration #  4     ecut=    30.00 Ry     beta=0.40
     CG style diagonalization
     ethr =  5.42E-09,  avg # of iterations =  4.0

     negative rho (up, down):  2.163E-04 0.000E+00

     add environment contribution to local potential

     total cpu time spent up to now is      143.7 secs

     total energy              =     -34.28668670 Ry
     Harris-Foulkes estimate   =     -34.39929379 Ry
     estimated scf accuracy    <       0.00000003 Ry
     electrostatic embedding   =      -0.02972532 Ry
     cavitation energy         =       0.01342667 Ry
     PV energy                 =      -0.00669362 Ry
     correction to one-el term =       0.13559932 Ry

     iteration #  5     ecut=    30.00 Ry     beta=0.40
     CG style diagonalization
     ethr =  3.81E-10,  avg # of iterations =  4.0

     negative rho (up, down):  2.175E-04 0.000E+00

     add environment contribution to local potential

     total cpu time spent up to now is      149.8 secs

     total energy              =     -34.28668670 Ry
     Harris-Foulkes estimate   =     -34.39929807 Ry
     estimated scf accuracy    <          2.7E-09 Ry
     electrostatic embedding   =      -0.02972091 Ry
     cavitation energy         =       0.01342667 Ry
     PV energy                 =      -0.00669362 Ry
     correction to one-el term =       0.13559922 Ry

     iteration #  6     ecut=    30.00 Ry     beta=0.40
     CG style diagonalization
     ethr =  3.36E-11,  avg # of iterations =  3.2

     negative rho (up, down):  2.172E-04 0.000E+00

     add environment contribution to local potential

     total cpu time spent up to now is      155.8 secs

     total energy              =     -34.28668669 Ry
     Harris-Foulkes estimate   =     -34.39930532 Ry
     estimated scf accuracy    <          3.2E-10 Ry
     electrostatic embedding   =      -0.02971843 Ry
     cavitation energy         =       0.01342667 Ry
     PV energy                 =      -0.00669362 Ry
     correction to one-el term =       0.13560399 Ry

     iteration #  7     ecut=    30.00 Ry     beta=0.40
     CG style diagonalization
     ethr =  3.94E-12,  avg # of iterations =  3.5

     negative rho (up, down):  2.170E-04 0.000E+00

     total cpu time spent up to now is      157.1 secs

     End of self-consistent calculation

          k = 0.0000 0.0000 0.0000 ( 22119 PWs)   bands (ev):

   -25.1287 -12.9158  -9.3200  -7.3156

     occupation numbers 
     1.0000   1.0000   1.0000   1.0000

     highest occupied level (ev):    -7.3156

!    total energy              =     -34.28668668 Ry
     Harris-Foulkes estimate   =     -34.39930126 Ry
     estimated scf accuracy    <          1.6E-11 Ry

     The total energy is the sum of the following terms:

     one-electron contribution =     -64.09476011 Ry
     hartree contribution      =      33.47575186 Ry
     xc contribution           =      -8.40205960 Ry
     ewald contribution        =       4.62176661 Ry
     electrostatic embedding   =      -0.02971739 Ry
     cavitation energy         =       0.01342667 Ry
     PV energy                 =      -0.00669362 Ry
     correction to one-el term =       0.13559890 Ry

     convergence has been achieved in   7 iterations
     The global environment contribution to forces
     atom    1 type  2   force =     0.05177783   -0.26785956    0.00000000
     atom    2 type  1   force =     0.02462055   -0.03499038    0.00000000
     atom    3 type  1   force =    -0.00981749   -0.04156354    0.00000000
 

     Forces acting on atoms (cartesian axes, Ry/au):

     atom    1 type  2   force =    -0.00034659    0.00150015    0.00000000
     atom    2 type  1   force =    -0.00101221   -0.00102086   -0.00000000
     atom    3 type  1   force =     0.00135880   -0.00047929   -0.00000000
     The non-local contrib.  to forces
     atom    1 type  2   force =     0.43502585   -2.24476551   -0.00000001
     atom    2 type  1   force =    -0.18091190    0.08385568    0.00000000
     atom    3 type  1   force =     0.13647966    0.14531324    0.00000000
     The ionic contribution  to forces
     atom    1 type  2   force =    -0.81287713    4.19512071    0.00000002
     atom    2 type  1   force =     3.35999203   -1.52550962   -0.00000001
     atom    3 type  1   force =    -2.54711489   -2.66961109   -0.00000001
     The local contribution  to forces
     atom    1 type  2   force =     0.32575003   -1.68097786   -0.00000001
     atom    2 type  1   force =    -3.20469005    1.47564297    0.00000001
     atom    3 type  1   force =     2.42183369    2.56540144    0.00000001
     The core correction contribution to forces
     atom    1 type  2   force =     0.00000000    0.00000000    0.00000000
     atom    2 type  1   force =     0.00000000    0.00000000    0.00000000
     atom    3 type  1   force =     0.00000000    0.00000000    0.00000000
     The Hubbard contrib.    to forces
     atom    1 type  2   force =     0.00000000    0.00000000    0.00000000
     atom    2 type  1   force =     0.00000000    0.00000000    0.00000000
     atom    3 type  1   force =     0.00000000    0.00000000    0.00000000
     The SCF correction term to forces
     atom    1 type  2   force =    -0.00000081    0.00000247    0.00000000
     atom    2 type  1   force =    -0.00000049    0.00000058   -0.00000000
     atom    3 type  1   force =     0.00000017    0.00000074   -0.00000000

     Total force =     0.002552     Total SCF correction =     0.000003

     number of scf cycles    =   3
     number of bfgs steps    =   2

     energy   old            =     -34.2866474227 Ry
     energy   new            =     -34.2866866793 Ry

     CASE: energy  _new < energy  _old

     new trust radius        =       0.0019755664 bohr
     new conv_thr            =            5.0E-11 Ry


ATOMIC_POSITIONS (bohr)
O       11.790168025  12.048915297  11.500000005
H       13.440971782  11.218734876  11.499999999
H       10.568860194  10.662349827  11.499999996



     Writing output data file h2o_water.save
     Check: negative starting charge=   -0.000775
     NEW-OLD atomic charge density approx. for the potential
     Check: negative starting charge=   -0.000776

     negative rho (up, down):  2.535E-04 0.000E+00

     add environment contribution to local potential

     total cpu time spent up to now is      169.3 secs

     per-process dynamical memory:   642.5 Mb

     Self-consistent Calculation

     iteration #  1     ecut=    30.00 Ry     beta=0.40
     CG style diagonalization
     ethr =  1.00E-06,  avg # of iterations =  3.0

     Threshold (ethr) on eigenvalues was too large:
     Diagonalizing with lowered threshold

     CG style diagonalization
     ethr =  5.89E-09,  avg # of iterations =  3.2

     negative rho (up, down):  2.341E-04 0.000E+00

     add environment contribution to local potential

     total cpu time spent up to now is      175.9 secs

     total energy              =     -34.28669327 Ry
     Harris-Foulkes estimate   =     -34.39930990 Ry
     estimated scf accuracy    <       0.00000039 Ry
     electrostatic embedding   =      -0.02971383 Ry
     cavitation energy         =       0.01342700 Ry
     PV energy                 =      -0.00669398 Ry
     correction to one-el term =       0.13559737 Ry

     iteration #  2     ecut=    30.00 Ry     beta=0.40
     CG style diagonalization
     ethr =  4.89E-09,  avg # of iterations =  3.2

     negative rho (up, down):  2.238E-04 0.000E+00

     add environment contribution to local potential

     total cpu time spent up to now is      181.9 secs

     total energy              =     -34.28669332 Ry
     Harris-Foulkes estimate   =     -34.39927393 Ry
     estimated scf accuracy    <       0.00000010 Ry
     electrostatic embedding   =      -0.02972051 Ry
     cavitation energy         =       0.01342700 Ry
     PV energy                 =      -0.00669398 Ry
     correction to one-el term =       0.13556812 Ry

     iteration #  3     ecut=    30.00 Ry     beta=0.40
     CG style diagonalization
     ethr =  1.19E-09,  avg # of iterations =  3.0

     negative rho (up, down):  2.180E-04 0.000E+00

     add environment contribution to local potential

     total cpu time spent up to now is      187.9 secs

     total energy              =     -34.28669335 Ry
     Harris-Foulkes estimate   =     -34.39927895 Ry
     estimated scf accuracy    <       0.00000002 Ry
     electrostatic embedding   =      -0.02972855 Ry
     cavitation energy         =       0.01342700 Ry
     PV energy                 =      -0.00669398 Ry
     correction to one-el term =       0.13558116 Ry

     iteration #  4     ecut=    30.00 Ry     beta=0.40
     CG style diagonalization
     ethr =  3.10E-10,  avg # of iterations =  3.0

     negative rho (up, down):  2.175E-04 0.000E+00

     add environment contribution to local potential

     total cpu time spent up to now is      193.9 secs

     total energy              =     -34.28669334 Ry
     Harris-Foulkes estimate   =     -34.39928584 Ry
     estimated scf accuracy    <          2.4E-10 Ry
     electrostatic embedding   =      -0.02973723 Ry
     cavitation energy         =       0.01342700 Ry
     PV energy                 =      -0.00669398 Ry
     correction to one-el term =       0.13559671 Ry

     iteration #  5     ecut=    30.00 Ry     beta=0.40
     CG style diagonalization
     ethr =  3.02E-12,  avg # of iterations =  4.0

     negative rho (up, down):  2.172E-04 0.000E+00

     add environment contribution to local potential

     total cpu time spent up to now is      200.0 secs

     total energy              =     -34.28669333 Ry
     Harris-Foulkes estimate   =     -34.39928340 Ry
     estimated scf accuracy    <          1.1E-10 Ry
     electrostatic embedding   =      -0.02973668 Ry
     cavitation energy         =       0.01342700 Ry
     PV energy                 =      -0.00669398 Ry
     correction to one-el term =       0.13559372 Ry

     iteration #  6     ecut=    30.00 Ry     beta=0.40
     CG style diagonalization
     ethr =  1.32E-12,  avg # of iterations =  3.8

     negative rho (up, down):  2.170E-04 0.000E+00

     total cpu time spent up to now is      201.5 secs

     End of self-consistent calculation

          k = 0.0000 0.0000 0.0000 ( 22119 PWs)   bands (ev):

   -25.1293 -12.9033  -9.3291  -7.3157

     occupation numbers 
     1.0000   1.0000   1.0000   1.0000

     highest occupied level (ev):    -7.3157

!    total energy              =     -34.28669332 Ry
     Harris-Foulkes estimate   =     -34.39927940 Ry
     estimated scf accuracy    <          1.7E-11 Ry

     The total energy is the sum of the following terms:

     one-electron contribution =     -64.08982733 Ry
     hartree contribution      =      33.47320969 Ry
     xc contribution           =      -8.40162665 Ry
     ewald contribution        =       4.61896490 Ry
     electrostatic embedding   =      -0.02973591 Ry
     cavitation energy         =       0.01342700 Ry
     PV energy                 =      -0.00669398 Ry
     correction to one-el term =       0.13558897 Ry

     convergence has been achieved in   6 iterations
     The global environment contribution to forces
     atom    1 type  2   force =     0.05183319   -0.26813138    0.00000000
     atom    2 type  1   force =     0.02455750   -0.03508374    0.00000000
     atom    3 type  1   force =    -0.00972088   -0.04162624    0.00000000
 

     Forces acting on atoms (cartesian axes, Ry/au):

     atom    1 type  2   force =     0.00002936    0.00034326    0.00000000
     atom    2 type  1   force =    -0.00112422   -0.00036623   -0.00000000
     atom    3 type  1   force =     0.00109486    0.00002296   -0.00000000
     The non-local contrib.  to forces
     atom    1 type  2   force =     0.43553079   -2.24763744   -0.00000002
     atom    2 type  1   force =    -0.18054255    0.08416280    0.00000000
     atom    3 type  1   force =     0.13606184    0.14550907    0.00000000
     The ionic contribution  to forces
     atom    1 type  2   force =    -0.81380796    4.20278232    0.00000003
     atom    2 type  1   force =     3.35562154   -1.53003599   -0.00000001
     atom    3 type  1   force =    -2.54181358   -2.67274633   -0.00000002
     The local contribution  to forces
     atom    1 type  2   force =     0.32648542   -1.68664328   -0.00000001
     atom    2 type  1   force =    -3.20074435    1.48061633    0.00000001
     atom    3 type  1   force =     2.41658509    2.56891249    0.00000002
     The core correction contribution to forces
     atom    1 type  2   force =     0.00000000    0.00000000    0.00000000
     atom    2 type  1   force =     0.00000000    0.00000000    0.00000000
     atom    3 type  1   force =     0.00000000    0.00000000    0.00000000
     The Hubbard contrib.    to forces
     atom    1 type  2   force =     0.00000000    0.00000000    0.00000000
     atom    2 type  1   force =     0.00000000    0.00000000    0.00000000
     atom    3 type  1   force =     0.00000000    0.00000000    0.00000000
     The SCF correction term to forces
     atom    1 type  2   force =     0.00000488   -0.00000131    0.00000000
     atom    2 type  1   force =     0.00000061    0.00000002    0.00000000
     atom    3 type  1   force =    -0.00000064   -0.00000040   -0.00000000

     Total force =     0.001648     Total SCF correction =     0.000005

     number of scf cycles    =   4
     number of bfgs steps    =   3

     energy   old            =     -34.2866866793 Ry
     energy   new            =     -34.2866933233 Ry

     CASE: energy  _new < energy  _old

     new trust radius        =       0.0021731230 bohr
     new conv_thr            =            5.0E-11 Ry


ATOMIC_POSITIONS (bohr)
O       11.790014003  12.050443958  11.500000008
H       13.439108276  11.217616927  11.499999998
H       10.570877721  10.661939116  11.499999994



     Writing output data file h2o_water.save
     Check: negative starting charge=   -0.000776
     NEW-OLD atomic charge density approx. for the potential
     Check: negative starting charge=   -0.000776

     negative rho (up, down):  2.625E-04 0.000E+00

     add environment contribution to local potential

     total cpu time spent up to now is      213.7 secs

     per-process dynamical memory:   642.5 Mb

     Self-consistent Calculation

     iteration #  1     ecut=    30.00 Ry     beta=0.40
     CG style diagonalization
     ethr =  1.00E-06,  avg # of iterations =  2.8

     Threshold (ethr) on eigenvalues was too large:
     Diagonalizing with lowered threshold

     CG style diagonalization
     ethr =  4.50E-09,  avg # of iterations =  3.2

     negative rho (up, down):  2.391E-04 0.000E+00

     add environment contribution to local potential

     total cpu time spent up to now is      220.3 secs

     total energy              =     -34.28669688 Ry
     Harris-Foulkes estimate   =     -34.39918966 Ry
     estimated scf accuracy    <       0.00000039 Ry
     electrostatic embedding   =      -0.02972194 Ry
     cavitation energy         =       0.01342604 Ry
     PV energy                 =      -0.00669353 Ry
     correction to one-el term =       0.13548212 Ry

     iteration #  2     ecut=    30.00 Ry     beta=0.40
     CG style diagonalization
     ethr =  4.90E-09,  avg # of iterations =  3.0

     negative rho (up, down):  2.236E-04 0.000E+00

     add environment contribution to local potential

     total cpu time spent up to now is      226.3 secs

     total energy              =     -34.28669692 Ry
     Harris-Foulkes estimate   =     -34.39920522 Ry
     estimated scf accuracy    <       0.00000010 Ry
     electrostatic embedding   =      -0.02973155 Ry
     cavitation energy         =       0.01342604 Ry
     PV energy                 =      -0.00669353 Ry
     correction to one-el term =       0.13550735 Ry

     iteration #  3     ecut=    30.00 Ry     beta=0.40
     CG style diagonalization
     ethr =  1.26E-09,  avg # of iterations =  3.0

     negative rho (up, down):  2.185E-04 0.000E+00

     add environment contribution to local potential

     total cpu time spent up to now is      232.3 secs

     total energy              =     -34.28669693 Ry
     Harris-Foulkes estimate   =     -34.39919790 Ry
     estimated scf accuracy    <          9.4E-09 Ry
     electrostatic embedding   =      -0.02974045 Ry
     cavitation energy         =       0.01342604 Ry
     PV energy                 =      -0.00669353 Ry
     correction to one-el term =       0.13550891 Ry

     iteration #  4     ecut=    30.00 Ry     beta=0.40
     CG style diagonalization
     ethr =  1.18E-10,  avg # of iterations =  3.2

     negative rho (up, down):  2.174E-04 0.000E+00

     add environment contribution to local potential

     total cpu time spent up to now is      238.4 secs

     total energy              =     -34.28669692 Ry
     Harris-Foulkes estimate   =     -34.39918421 Ry
     estimated scf accuracy    <          5.8E-10 Ry
     electrostatic embedding   =      -0.02974378 Ry
     cavitation energy         =       0.01342604 Ry
     PV energy                 =      -0.00669353 Ry
     correction to one-el term =       0.13549855 Ry

     iteration #  5     ecut=    30.00 Ry     beta=0.40
     CG style diagonalization
     ethr =  7.20E-12,  avg # of iterations =  4.0

     negative rho (up, down):  2.172E-04 0.000E+00

     add environment contribution to local potential

     total cpu time spent up to now is      244.4 secs

     total energy              =     -34.28669691 Ry
     Harris-Foulkes estimate   =     -34.39917234 Ry
     estimated scf accuracy    <          3.0E-10 Ry
     electrostatic embedding   =      -0.02974345 Ry
     cavitation energy         =       0.01342604 Ry
     PV energy                 =      -0.00669353 Ry
     correction to one-el term =       0.13548635 Ry

     iteration #  6     ecut=    30.00 Ry     beta=0.40
     CG style diagonalization
     ethr =  3.69E-12,  avg # of iterations =  4.0

     negative rho (up, down):  2.171E-04 0.000E+00

     total cpu time spent up to now is      245.7 secs

     End of self-consistent calculation

          k = 0.0000 0.0000 0.0000 ( 22119 PWs)   bands (ev):

   -25.1334 -12.8952  -9.3380  -7.3165

     occupation numbers 
     1.0000   1.0000   1.0000   1.0000

     highest occupied level (ev):    -7.3165

!    total energy              =     -34.28669690 Ry
     Harris-Foulkes estimate   =     -34.39917483 Ry
     estimated scf accuracy    <          1.1E-11 Ry

     The total energy is the sum of the following terms:

     one-electron contribution =     -64.09263915 Ry
     hartree contribution      =      33.47430525 Ry
     xc contribution           =      -8.40181315 Ry
     ewald contribution        =       4.62097223 Ry
     electrostatic embedding   =      -0.02974357 Ry
     cavitation energy         =       0.01342604 Ry
     PV energy                 =      -0.00669353 Ry
     correction to one-el term =       0.13548897 Ry

     convergence has been achieved in   6 iterations
     The global environment contribution to forces
     atom    1 type  2   force =     0.05186669   -0.26838877   -0.00000000
     atom    2 type  1   force =     0.02448643   -0.03517445    0.00000000
     atom    3 type  1   force =    -0.00963057   -0.04168438   -0.00000000
 

     Forces acting on atoms (cartesian axes, Ry/au):

     atom    1 type  2   force =    -0.00019146   -0.00010010    0.00000000
     atom    2 type  1   force =    -0.00040130   -0.00014160   -0.00000000
     atom    3 type  1   force =     0.00059275    0.00024170   -0.00000000
     The non-local contrib.  to forces
     atom    1 type  2   force =     0.43598914   -2.25036302   -0.00000003
     atom    2 type  1   force =    -0.18046230    0.08457986    0.00000000
     atom    3 type  1   force =     0.13577127    0.14576258    0.00000000
     The ionic contribution  to forces
     atom    1 type  2   force =    -0.81647784    4.21224323    0.00000005
     atom    2 type  1   force =     3.35471511   -1.53579234   -0.00000002
     atom    3 type  1   force =    -2.53823728   -2.67645089   -0.00000003
     The local contribution  to forces
     atom    1 type  2   force =     0.32844597   -1.69356521   -0.00000002
     atom    2 type  1   force =    -3.19912792    1.48627219    0.00000002
     atom    3 type  1   force =     2.41270181    2.57264106    0.00000003
     The core correction contribution to forces
     atom    1 type  2   force =     0.00000000    0.00000000    0.00000000
     atom    2 type  1   force =     0.00000000    0.00000000    0.00000000
     atom    3 type  1   force =     0.00000000    0.00000000    0.00000000
     The Hubbard contrib.    to forces
     atom    1 type  2   force =     0.00000000    0.00000000    0.00000000
     atom    2 type  1   force =     0.00000000    0.00000000    0.00000000
     atom    3 type  1   force =     0.00000000    0.00000000    0.00000000
     The SCF correction term to forces
     atom    1 type  2   force =    -0.00000302    0.00000084    0.00000000
     atom    2 type  1   force =    -0.00000023    0.00000032    0.00000000
     atom    3 type  1   force =    -0.00000008    0.00000051    0.00000000

     Total force =     0.000798     Total SCF correction =     0.000003

     bfgs converged in   5 scf cycles and   4 bfgs steps
     (criteria: energy <  1.0E-04 Ry, force <  1.0E-03 Ry/Bohr)

     End of BFGS Geometry Optimization

     Final energy   =     -34.2866969030 Ry
Begin final coordinates

ATOMIC_POSITIONS (bohr)
O       11.790014003  12.050443958  11.500000008
H       13.439108276  11.217616927  11.499999998
H       10.570877721  10.661939116  11.499999994
End final coordinates



     Writing output data file h2o_water.save
 
     init_run     :      6.00s CPU      6.27s WALL (       1 calls)
     electrons    :    179.98s CPU    191.04s WALL (       5 calls)
     update_pot   :      2.75s CPU      2.85s WALL (       4 calls)
     forces       :     10.89s CPU     11.21s WALL (       5 calls)

     Called by init_run:
     wfcinit      :      0.06s CPU      0.05s WALL (       1 calls)
     wfcinit:atom :      0.00s CPU      0.00s WALL (       1 calls)
     wfcinit:wfcr :      0.04s CPU      0.04s WALL (       1 calls)
     potinit      :      0.85s CPU      0.91s WALL (       1 calls)

     Called by electrons:
     c_bands      :      4.72s CPU      4.73s WALL (      38 calls)
     sum_band     :     15.23s CPU     16.77s WALL (      38 calls)
     v_of_rho     :     17.84s CPU     18.60s WALL (      41 calls)
     v_h          :     26.36s CPU     30.78s WALL (     856 calls)
     v_xc         :     16.55s CPU     17.22s WALL (      41 calls)
     newd         :      7.84s CPU      9.55s WALL (      41 calls)
     mix_rho      :      2.36s CPU      2.35s WALL (      38 calls)

     Called by c_bands:
     init_us_2    :      0.30s CPU      0.30s WALL (      77 calls)
     ccgdiagg     :      3.60s CPU      3.63s WALL (      38 calls)
     wfcrot       :      1.00s CPU      0.99s WALL (      32 calls)

     Called by sum_band:
     sum_band:bec :      0.00s CPU      0.00s WALL (      38 calls)
     addusdens    :     10.96s CPU     12.49s WALL (      38 calls)

     Called by *cgdiagg:
     h_psi        :      4.07s CPU      4.09s WALL (     453 calls)
     s_psi        :      0.19s CPU      0.18s WALL (     874 calls)
     cdiaghg      :      0.00s CPU      0.00s WALL (      32 calls)

     Called by h_psi:
     h_psi:pot    :      4.05s CPU      4.06s WALL (     453 calls)
     h_psi:calbec :      0.16s CPU      0.16s WALL (     453 calls)
     vloc_psi     :      3.80s CPU      3.80s WALL (     453 calls)
     add_vuspsi   :      0.08s CPU      0.10s WALL (     453 calls)
     h_1psi       :      3.24s CPU      3.24s WALL (     421 calls)

     General routines
     calbec       :      0.24s CPU      0.27s WALL (     932 calls)
     fft          :     51.78s CPU     54.43s WALL (    2449 calls)
     ffts         :      0.27s CPU      0.27s WALL (      79 calls)
     fftw         :      2.96s CPU      2.90s WALL (    1254 calls)
     interpolate  :      2.41s CPU      2.45s WALL (      79 calls)
     davcio       :      0.00s CPU      0.00s WALL (       5 calls)
 
     Parallel routines
     fft_scatter  :     13.81s CPU     14.73s WALL (    3782 calls)
 
     Environ routines
     calc_eelect  :      0.13s CPU      0.10s WALL (      72 calls)
     calc_velect  :    145.27s CPU    153.21s WALL (      68 calls)
     dielectric   :      0.53s CPU      0.54s WALL (      10 calls)
     calc_felect  :      0.76s CPU      0.78s WALL (       5 calls)
 
     PWSCF        :  3m54.82s CPU     4m 8.12s WALL

 
   This run was terminated on:  15: 6:40  29Jan2018            

=------------------------------------------------------------------------------=
   JOB DONE.
=------------------------------------------------------------------------------=
