
     Program PWSCF v.5.1 (svn rev. 11016M) starts on 30May2014 at 15:35:17 

     This program is part of the open-source Quantum ESPRESSO suite
     for quantum simulation of materials; please cite
         "P. Giannozzi et al., J. Phys.:Condens. Matter 21 395502 (2009);
          URL http://www.quantum-espresso.org", 
     in publications or presentations arising from this work. More details at
     http://www.quantum-espresso.org/quote

     Parallel version (MPI), running on     2 processors
     R & G space division:  proc/nbgrp/npool/nimage =       2
     Waiting for input...
     Reading input from standard input
Warning: card  &IONS ignored
Warning: card    ION_DYNAMICS    = 'BFGS' ignored
Warning: card  / ignored

     Current dimensions of program PWSCF are:
     Max number of different atomic species (ntypx) = 10
     Max number of k-points (npk) =  40000
     Max angular momentum in pseudopotentials (lmaxx) =  3
               file N.pbe-rrkjus.UPF: wavefunction(s)  2S renormalized
               file C.pbe-rrkjus.UPF: wavefunction(s)  2S 2P renormalized
               file H.pbe-rrkjus.UPF: wavefunction(s)  1S renormalized

     gamma-point specific algorithms are used

     Subspace diagonalization in iterative solution of the eigenvalue problem:
     a serial algorithm will be used

 
     Parallelization info
     --------------------
     sticks:   dense  smooth     PW     G-vecs:    dense   smooth      PW
     Min       10732    4292   1072              1184460   299536   37384
     Max       10733    4293   1073              1184465   299625   37389
     Sum       21465    8585   2145              2368925   599161   74773
     Tot       10733    4293   1073
 


     bravais-lattice index     =            1
     lattice parameter (alat)  =      30.0000  a.u.
     unit-cell volume          =   27000.0000 (a.u.)^3
     number of atoms/cell      =           12
     number of atomic types    =            3
     number of electrons       =        30.00
     number of Kohn-Sham states=           15
     kinetic-energy cutoff     =      30.0000  Ry
     charge density cutoff     =     300.0000  Ry
     convergence threshold     =      5.0E-09
     mixing beta               =       0.4000
     number of iterations used =            8  plain     mixing
     Exchange-correlation      =  SLA  PW   PBE  PBE ( 1  4  3  4 0)
 

     Environ Module
     ==============

     Please cite
         "O. Andreussi, I. Dabo and N. Marzari, J. Chem. Phys. 136, 064102 (2012);"
     in publications or presentations arising from this work.

     compensation onset threshold      =               0.1000E+00 
     switching function adopted        =                     SCCS 
     density limit for vacuum region   =               0.5000E-02 
     density limit for bulk solvent    =               0.1000E-03 
     static permittivity               =                    80.00 
     epsilon calculation mode          =               electronic 
     type of numerical differentiator  =            central diff. 
     number of points in num. diff.    =                        2 
     required accuracy                 =               0.1000E-11 
     linear mixing parameter           =                     0.60 
 

     celldm(1)=  30.000000  celldm(2)=   0.000000  celldm(3)=   0.000000
     celldm(4)=   0.000000  celldm(5)=   0.000000  celldm(6)=   0.000000

     crystal axes: (cart. coord. in units of alat)
               a(1) = (   1.000000   0.000000   0.000000 )  
               a(2) = (   0.000000   1.000000   0.000000 )  
               a(3) = (   0.000000   0.000000   1.000000 )  

     reciprocal axes: (cart. coord. in units 2 pi/alat)
               b(1) = (  1.000000  0.000000  0.000000 )  
               b(2) = (  0.000000  1.000000  0.000000 )  
               b(3) = (  0.000000  0.000000  1.000000 )  


     PseudoPot. # 1 for N  read from file:
     /home/oliviero/PWSCF/espresso/pseudo/N.pbe-rrkjus.UPF
     MD5 check sum: 0c3fbe5807a93f9ba59d5a7019aa238b
     Pseudo is Ultrasoft, Zval =  5.0
     Generated by new atomic code, or converted to UPF format
     Using radial grid of 1257 points,  4 beta functions with: 
                l(1) =   0
                l(2) =   0
                l(3) =   1
                l(4) =   1
     Q(r) pseudized with 0 coefficients 


     PseudoPot. # 2 for C  read from file:
     /home/oliviero/PWSCF/espresso/pseudo/C.pbe-rrkjus.UPF
     MD5 check sum: 00fb224312de0c5b6853bd333518df6f
     Pseudo is Ultrasoft, Zval =  4.0
     Generated by new atomic code, or converted to UPF format
     Using radial grid of  627 points,  4 beta functions with: 
                l(1) =   0
                l(2) =   0
                l(3) =   1
                l(4) =   1
     Q(r) pseudized with 0 coefficients 


     PseudoPot. # 3 for H  read from file:
     /home/oliviero/PWSCF/espresso/pseudo/H.pbe-rrkjus.UPF
     MD5 check sum: 7cc9d459525c9a0585f487a71c3c9563
     Pseudo is Ultrasoft, Zval =  1.0
     Generated by new atomic code, or converted to UPF format
     Using radial grid of 1061 points,  2 beta functions with: 
                l(1) =   0
                l(2) =   0
     Q(r) pseudized with 0 coefficients 


     atomic species   valence    mass     pseudopotential
        N              5.00    14.00000     N ( 1.00)
        C              4.00    12.00000     C ( 1.00)
        H              1.00     1.00000     H ( 1.00)

     No symmetry found


                                    s                        frac. trans.

      isym =  1     identity                                     

 cryst.   s( 1) = (     1          0          0      )
                  (     0          1          0      )
                  (     0          0          1      )

 cart.    s( 1) = (  1.0000000  0.0000000  0.0000000 )
                  (  0.0000000  1.0000000  0.0000000 )
                  (  0.0000000  0.0000000  1.0000000 )


     point group C_1 (1)    
     there are  1 classes
     the character table:

       E    
A      1.00

     the symmetry operations in each class:
     E        1

   Cartesian axes

     site n.     atom                  positions (alat units)
         1           H   tau(   1) = (   0.1523532   0.0000000   0.0001258  )
         2           N   tau(   2) = (  -0.0815136   0.0000000   0.0001009  )
         3           C   tau(   3) = (  -0.0411048   0.0749119   0.0000692  )
         4           C   tau(   4) = (   0.0459374   0.0761731   0.0000488  )
         5           C   tau(   5) = (   0.0897978   0.0000000   0.0000440  )
         6           C   tau(   6) = (   0.0459374  -0.0761731   0.0000884  )
         7           C   tau(   7) = (  -0.0411048  -0.0749119   0.0001182  )
         8           H   tau(   8) = (  -0.0804244   0.1312714   0.0000570  )
         9           H   tau(   9) = (   0.0786365   0.1366241   0.0000268  )
        10           H   tau(  10) = (   0.1586195   0.0000000   0.0000007  )
        11           H   tau(  11) = (   0.0786366  -0.1366241   0.0001069  )
        12           H   tau(  12) = (  -0.0804243  -0.1312713   0.0001627  )

   Crystallographic axes

     site n.     atom                  positions (cryst. coord.)
         1           H   tau(   1) = (  0.1523532  0.0000000  0.0001258  )
         2           N   tau(   2) = ( -0.0815136  0.0000000  0.0001009  )
         3           C   tau(   3) = ( -0.0411048  0.0749119  0.0000692  )
         4           C   tau(   4) = (  0.0459374  0.0761731  0.0000488  )
         5           C   tau(   5) = (  0.0897978  0.0000000  0.0000440  )
         6           C   tau(   6) = (  0.0459374 -0.0761731  0.0000884  )
         7           C   tau(   7) = ( -0.0411048 -0.0749119  0.0001182  )
         8           H   tau(   8) = ( -0.0804244  0.1312714  0.0000570  )
         9           H   tau(   9) = (  0.0786365  0.1366241  0.0000268  )
        10           H   tau(  10) = (  0.1586195  0.0000000  0.0000007  )
        11           H   tau(  11) = (  0.0786366 -0.1366241  0.0001069  )
        12           H   tau(  12) = ( -0.0804243 -0.1312713  0.0001627  )

     number of k points=     1
                       cart. coord. in units 2pi/alat
        k(    1) = (   0.0000000   0.0000000   0.0000000), wk =   2.0000000

                       cryst. coord.
        k(    1) = (   0.0000000   0.0000000   0.0000000), wk =   2.0000000

     Dense  grid:  1184463 G-vectors     FFT dimensions: ( 180, 180, 180)

     Smooth grid:   299581 G-vectors     FFT dimensions: ( 108, 108, 108)

     Largest allocated arrays     est. size (Mb)     dimensions
        Kohn-Sham Wavefunctions         4.28 Mb     (   18695,   15)
        NL pseudopotentials            17.12 Mb     (   18695,   60)
        Each V/rho on FFT grid         44.49 Mb     ( 2916000)
        Each G-vector array             4.52 Mb     (  592233)
        G-vector shells                 0.04 Mb     (    5700)
     Largest temporary arrays     est. size (Mb)     dimensions
        Auxiliary wavefunctions         8.56 Mb     (   18695,   60)
        Each subspace H/S matrix        0.03 Mb     (      60,   60)
        Each <psi_i|beta_j> matrix      0.01 Mb     (      60,   15)
        Arrays for rho mixing         355.96 Mb     ( 2916000,    8)

     Initial potential from superposition of free atoms
     Check: negative starting charge=   -0.002341

     starting charge   30.42250, renormalised to   30.00000

     negative rho (up, down):  2.308E-03 0.000E+00
     Starting wfc are   30 randomized atomic wfcs

     total cpu time spent up to now is       10.1 secs

     per-process dynamical memory:   699.5 Mb

     Self-consistent Calculation

     iteration #  1     ecut=    30.00 Ry     beta=0.40
     Davidson diagonalization with overlap
     ethr =  1.00E-02,  avg # of iterations =  3.0

     negative rho (up, down):  1.370E-03 0.000E+00

     total cpu time spent up to now is       19.1 secs

     total energy              =     -74.04859948 Ry
     Harris-Foulkes estimate   =     -77.00000956 Ry
     estimated scf accuracy    <       5.71001980 Ry
     solvation energy          =       0.00000000 Ry
     periodic energy correct.  =       0.00000000 Ry

     iteration #  2     ecut=    30.00 Ry     beta=0.40
     Davidson diagonalization with overlap
     ethr =  1.00E-02,  avg # of iterations =  4.0

     negative rho (up, down):  4.036E-03 0.000E+00

     total cpu time spent up to now is       28.1 secs

     total energy              =     -74.99478643 Ry
     Harris-Foulkes estimate   =     -76.27569812 Ry
     estimated scf accuracy    <       3.51017746 Ry
     solvation energy          =       0.00000000 Ry
     periodic energy correct.  =       0.00000000 Ry

     iteration #  3     ecut=    30.00 Ry     beta=0.40
     Davidson diagonalization with overlap
     ethr =  1.00E-02,  avg # of iterations =  3.0

     negative rho (up, down):  2.738E-03 0.000E+00

     total cpu time spent up to now is       36.6 secs

     total energy              =     -75.18322833 Ry
     Harris-Foulkes estimate   =     -75.39645050 Ry
     estimated scf accuracy    <       0.38871362 Ry
     solvation energy          =       0.00000000 Ry
     periodic energy correct.  =       0.00000000 Ry

     iteration #  4     ecut=    30.00 Ry     beta=0.40
     Davidson diagonalization with overlap
     ethr =  1.30E-03,  avg # of iterations =  3.0

     negative rho (up, down):  1.346E-03 0.000E+00

     add environment contribution to local potential
     polarization accuracy = 7.5E-13, # of iterations =  37

     total cpu time spent up to now is       91.6 secs

     total energy              =     -75.22946606 Ry
     Harris-Foulkes estimate   =     -75.26252688 Ry
     estimated scf accuracy    <       0.08995560 Ry
     solvation energy          =       0.00000000 Ry
     periodic energy correct.  =       0.00000000 Ry

     iteration #  5     ecut=    30.00 Ry     beta=0.40
     Davidson diagonalization with overlap
     ethr =  3.00E-04,  avg # of iterations =  5.0

     negative rho (up, down):  1.470E-03 0.000E+00

     add environment contribution to local potential
     polarization accuracy = 8.1E-13, # of iterations =  37

     total cpu time spent up to now is      147.4 secs

     total energy              =     -75.38048599 Ry
     Harris-Foulkes estimate   =     -69.57100672 Ry
     estimated scf accuracy    <       0.02631377 Ry
     solvation energy          =      -0.16033568 Ry
     periodic energy correct.  =       0.00892384 Ry

     iteration #  6     ecut=    30.00 Ry     beta=0.40
     Davidson diagonalization with overlap
     ethr =  8.77E-05,  avg # of iterations =  3.0

     negative rho (up, down):  1.405E-03 0.000E+00

     add environment contribution to local potential
     polarization accuracy = 8.1E-13, # of iterations =  39

     total cpu time spent up to now is      205.0 secs

     total energy              =     -75.37551365 Ry
     Harris-Foulkes estimate   =     -69.82211851 Ry
     estimated scf accuracy    <       0.01318635 Ry
     solvation energy          =      -0.17441935 Ry
     periodic energy correct.  =       0.00878822 Ry

     iteration #  7     ecut=    30.00 Ry     beta=0.40
     Davidson diagonalization with overlap
     ethr =  4.40E-05,  avg # of iterations =  3.0

     negative rho (up, down):  8.706E-04 0.000E+00

     add environment contribution to local potential
     polarization accuracy = 9.3E-13, # of iterations =  27

     total cpu time spent up to now is      248.6 secs

     total energy              =     -75.39796722 Ry
     Harris-Foulkes estimate   =     -69.94445161 Ry
     estimated scf accuracy    <       0.00161917 Ry
     solvation energy          =      -0.19184274 Ry
     periodic energy correct.  =       0.00871453 Ry

     iteration #  8     ecut=    30.00 Ry     beta=0.40
     Davidson diagonalization with overlap
     ethr =  5.40E-06,  avg # of iterations =  3.0

     negative rho (up, down):  6.394E-04 0.000E+00

     add environment contribution to local potential
     polarization accuracy = 9.9E-13, # of iterations =  32

     total cpu time spent up to now is      298.4 secs

     total energy              =     -75.40224806 Ry
     Harris-Foulkes estimate   =     -69.94330313 Ry
     estimated scf accuracy    <       0.00137837 Ry
     solvation energy          =      -0.18999725 Ry
     periodic energy correct.  =       0.00871244 Ry

     iteration #  9     ecut=    30.00 Ry     beta=0.40
     Davidson diagonalization with overlap
     ethr =  4.59E-06,  avg # of iterations =  3.0

     negative rho (up, down):  9.496E-04 0.000E+00

     add environment contribution to local potential
     polarization accuracy = 8.3E-13, # of iterations =  35

     total cpu time spent up to now is      351.7 secs

     total energy              =     -75.39520769 Ry
     Harris-Foulkes estimate   =     -69.93136172 Ry
     estimated scf accuracy    <       0.00253376 Ry
     solvation energy          =      -0.18817160 Ry
     periodic energy correct.  =       0.00872116 Ry

     iteration # 10     ecut=    30.00 Ry     beta=0.40
     Davidson diagonalization with overlap
     ethr =  4.59E-06,  avg # of iterations =  3.0

     negative rho (up, down):  1.516E-03 0.000E+00

     add environment contribution to local potential
     polarization accuracy = 8.1E-13, # of iterations =  37

     total cpu time spent up to now is      407.3 secs

     total energy              =     -75.39121005 Ry
     Harris-Foulkes estimate   =     -69.92390326 Ry
     estimated scf accuracy    <       0.00433066 Ry
     solvation energy          =      -0.19555249 Ry
     periodic energy correct.  =       0.00870967 Ry

     iteration # 11     ecut=    30.00 Ry     beta=0.40
     Davidson diagonalization with overlap
     ethr =  4.59E-06,  avg # of iterations =  3.0

     negative rho (up, down):  1.207E-03 0.000E+00

     add environment contribution to local potential
     polarization accuracy = 9.1E-13, # of iterations =  33

     total cpu time spent up to now is      458.3 secs

     total energy              =     -75.39594785 Ry
     Harris-Foulkes estimate   =     -69.89978177 Ry
     estimated scf accuracy    <       0.00174433 Ry
     solvation energy          =      -0.20487864 Ry
     periodic energy correct.  =       0.00869482 Ry

     iteration # 12     ecut=    30.00 Ry     beta=0.40
     Davidson diagonalization with overlap
     ethr =  4.59E-06,  avg # of iterations =  2.0

     negative rho (up, down):  8.117E-04 0.000E+00

     add environment contribution to local potential
     polarization accuracy = 9.9E-13, # of iterations =  30

     total cpu time spent up to now is      505.4 secs

     total energy              =     -75.39741163 Ry
     Harris-Foulkes estimate   =     -69.88278292 Ry
     estimated scf accuracy    <       0.00045843 Ry
     solvation energy          =      -0.20920864 Ry
     periodic energy correct.  =       0.00869326 Ry

     iteration # 13     ecut=    30.00 Ry     beta=0.40
     Davidson diagonalization with overlap
     ethr =  1.53E-06,  avg # of iterations =  3.0

     negative rho (up, down):  7.604E-04 0.000E+00

     add environment contribution to local potential
     polarization accuracy = 7.1E-13, # of iterations =  32

     total cpu time spent up to now is      555.2 secs

     total energy              =     -75.39808716 Ry
     Harris-Foulkes estimate   =     -69.87173656 Ry
     estimated scf accuracy    <       0.00002033 Ry
     solvation energy          =      -0.21158003 Ry
     periodic energy correct.  =       0.00869185 Ry

     iteration # 14     ecut=    30.00 Ry     beta=0.40
     Davidson diagonalization with overlap
     ethr =  6.78E-08,  avg # of iterations =  4.0

     negative rho (up, down):  6.161E-04 0.000E+00

     add environment contribution to local potential
     polarization accuracy = 1.0E-12, # of iterations =  25

     total cpu time spent up to now is      597.2 secs

     total energy              =     -75.39898884 Ry
     Harris-Foulkes estimate   =     -69.86114118 Ry
     estimated scf accuracy    <       0.00002749 Ry
     solvation energy          =      -0.21312127 Ry
     periodic energy correct.  =       0.00868925 Ry

     iteration # 15     ecut=    30.00 Ry     beta=0.40
     Davidson diagonalization with overlap
     ethr =  6.78E-08,  avg # of iterations =  2.0

     negative rho (up, down):  5.883E-04 0.000E+00

     add environment contribution to local potential
     polarization accuracy = 9.2E-13, # of iterations =  25

     total cpu time spent up to now is      638.4 secs

     total energy              =     -75.39902892 Ry
     Harris-Foulkes estimate   =     -69.85694118 Ry
     estimated scf accuracy    <       0.00001230 Ry
     solvation energy          =      -0.21374321 Ry
     periodic energy correct.  =       0.00868921 Ry

     iteration # 16     ecut=    30.00 Ry     beta=0.40
     Davidson diagonalization with overlap
     ethr =  4.10E-08,  avg # of iterations =  3.0

     negative rho (up, down):  5.794E-04 0.000E+00

     add environment contribution to local potential
     polarization accuracy = 8.7E-13, # of iterations =  18

     total cpu time spent up to now is      671.7 secs

     total energy              =     -75.39939862 Ry
     Harris-Foulkes estimate   =     -69.85467683 Ry
     estimated scf accuracy    <       0.00000021 Ry
     solvation energy          =      -0.21407236 Ry
     periodic energy correct.  =       0.00868906 Ry

     iteration # 17     ecut=    30.00 Ry     beta=0.40
     Davidson diagonalization with overlap
     ethr =  7.05E-10,  avg # of iterations =  3.0

     negative rho (up, down):  5.781E-04 0.000E+00

     add environment contribution to local potential
     polarization accuracy = 8.5E-13, # of iterations =  17

     total cpu time spent up to now is      704.0 secs

     total energy              =     -75.39938297 Ry
     Harris-Foulkes estimate   =     -69.85443197 Ry
     estimated scf accuracy    <       0.00000002 Ry
     solvation energy          =      -0.21405073 Ry
     periodic energy correct.  =       0.00868911 Ry

     iteration # 18     ecut=    30.00 Ry     beta=0.40
     Davidson diagonalization with overlap
     ethr =  6.47E-11,  avg # of iterations =  3.0

     negative rho (up, down):  5.818E-04 0.000E+00

     total cpu time spent up to now is      712.3 secs

     End of self-consistent calculation

          k = 0.0000 0.0000 0.0000 ( 37387 PWs)   bands (ev):

   -26.7953 -24.1015 -19.9657 -19.8928 -16.5144 -15.4803 -12.9977 -12.5496
   -11.8870 -11.2801 -10.8161  -9.7330  -8.4498  -7.5144  -6.4040

     occupation numbers 
     1.0000   1.0000   1.0000   1.0000   1.0000   1.0000   1.0000   1.0000
     1.0000   1.0000   1.0000   1.0000   1.0000   1.0000   1.0000

     highest occupied level (ev):    -6.4040

!    total energy              =     -75.39938022 Ry
     Harris-Foulkes estimate   =     -69.85443558 Ry
     estimated scf accuracy    <          2.2E-09 Ry

     The total energy is the sum of the following terms:

     one-electron contribution =    -376.34406102 Ry
     hartree contribution      =     189.65458483 Ry
     xc contribution           =     -26.56395095 Ry
     ewald contribution        =     143.39899156 Ry
     solvation energy          =      -0.21404800 Ry
     periodic energy correct.  =       0.00868914 Ry

     convergence has been achieved in  18 iterations

     Forces acting on atoms (Ry/au):

     The dielectric solvent contribution to forces
     atom    1 type  3   force =     0.09322803   -0.00000043   -0.00001115
     atom    2 type  1   force =     0.18971398    0.00000007   -0.00003598
     atom    3 type  2   force =     0.12342023    0.02395397   -0.00002973
     atom    4 type  2   force =     0.17099936   -0.02918628   -0.00000012
     atom    5 type  2   force =     0.27935793   -0.00000025    0.00003061
     atom    6 type  2   force =     0.17099965    0.02918660   -0.00000546
     atom    7 type  2   force =     0.12342003   -0.02395394   -0.00000204
     atom    8 type  3   force =     0.01766362    0.01595263   -0.00000952
     atom    9 type  3   force =     0.03213391   -0.01285958    0.00000120
     atom   10 type  3   force =     0.09220183   -0.00000047   -0.00000809
     atom   11 type  3   force =     0.03213402    0.01285971   -0.00000289
     atom   12 type  3   force =     0.01766347   -0.01595280    0.00000682
     The global environment contribution to forces
     atom    1 type  3   force =     0.09320022   -0.00002282   -0.00003354
     atom    2 type  1   force =     0.18943911   -0.00011189   -0.00014792
     atom    3 type  2   force =     0.12321911    0.02389921   -0.00011929
     atom    4 type  2   force =     0.17083867   -0.02924047   -0.00008969
     atom    5 type  2   force =     0.27921762   -0.00008982   -0.00005897
     atom    6 type  2   force =     0.17083897    0.02906164   -0.00009502
     atom    7 type  2   force =     0.12321891   -0.02407831   -0.00009158
     atom    8 type  3   force =     0.01760877    0.01594549   -0.00003192
     atom    9 type  3   force =     0.03209754   -0.01286611   -0.00002119
     atom   10 type  3   force =     0.09217475   -0.00002286   -0.00003049
     atom   11 type  3   force =     0.03209765    0.01282145   -0.00002528
     atom   12 type  3   force =     0.01760862   -0.01599043   -0.00001556
 
     atom    1 type  3   force =   -55.71142981    0.00021205    1.11720512
     atom    2 type  1   force =    -0.03780445   -0.00005357   -0.00002552
     atom    3 type  2   force =    -0.00997440   -0.07561271   -0.00004373
     atom    4 type  2   force =     0.07374121    0.02863736   -0.00010026
     atom    5 type  2   force =    -0.34881312   -0.00003166   -0.00013370
     atom    6 type  2   force =     0.07374162   -0.02870029   -0.00004324
     atom    7 type  2   force =    -0.00997512    0.07554871   -0.00006812
     atom    8 type  3   force =     0.00937915    0.00075719    0.00004370
     atom    9 type  3   force =     0.00377056   -0.00568374    0.00004739
     atom   10 type  3   force =    55.94421448   -0.00014101   -1.11693219
     atom   11 type  3   force =     0.00377100    0.00575408    0.00003188
     atom   12 type  3   force =     0.00937888   -0.00068641    0.00001867
     The non-local contrib.  to forces
     atom    1 type  3   force =    -0.08737141   -0.00000059   -0.00448769
     atom    2 type  1   force =     1.96600859    0.00000077   -0.00054232
     atom    3 type  2   force =     0.03523346   -0.25228762    0.00004264
     atom    4 type  2   force =     0.06016452   -0.17800470   -0.00008177
     atom    5 type  2   force =     0.54424255    0.00000077    0.00036467
     atom    6 type  2   force =     0.06016479    0.17800495   -0.00016712
     atom    7 type  2   force =     0.03523263    0.25228773   -0.00014538
     atom    8 type  3   force =     0.09054973   -0.12654223    0.00002843
     atom    9 type  3   force =    -0.07160464   -0.13670481    0.00005055
     atom   10 type  3   force =    -0.41072541    0.00000073    0.00391023
     atom   11 type  3   force =    -0.07160468    0.13670482   -0.00004271
     atom   12 type  3   force =     0.09054969    0.12654224   -0.00010299
     The ionic contribution  to forces
     atom    1 type  3   force =   -52.75815263    0.00017906    1.13330367
     atom    2 type  1   force =   -11.44975081    0.00000198    0.00244705
     atom    3 type  2   force =    -3.43025301    7.32033480   -0.00118373
     atom    4 type  2   force =     3.43049542    6.59197365   -0.00207532
     atom    5 type  2   force =     4.95781432   -0.00000146   -0.00614305
     atom    6 type  2   force =     3.43049659   -6.59197391    0.00054579
     atom    7 type  2   force =    -3.43025067   -7.32033566    0.00360758
     atom    8 type  3   force =    -1.89627879    2.85909077   -0.00058495
     atom    9 type  3   force =     1.57817041    3.00266910   -0.00108222
     atom   10 type  3   force =    59.88581631   -0.00017899   -1.13172016
     atom   11 type  3   force =     1.57817071   -3.00266890    0.00078874
     atom   12 type  3   force =    -1.89627786   -2.85909043    0.00209660
     The local contribution  to forces
     atom    1 type  3   force =    -2.95911296   -0.00000134   -0.01163582
     atom    2 type  1   force =     9.25652682    0.00000034   -0.00184103
     atom    3 type  2   force =     3.26182578   -7.16764447    0.00115810
     atom    4 type  2   force =    -3.58777371   -6.35617712    0.00208804
     atom    5 type  2   force =    -6.13013394    0.00000343    0.00564531
     atom    6 type  2   force =    -3.58777380    6.35617911   -0.00038539
     atom    7 type  2   force =     3.26182142    7.16764570   -0.00349733
     atom    8 type  3   force =     1.79749437   -2.74779510    0.00057362
     atom    9 type  3   force =    -1.53489740   -2.85884132    0.00104173
     atom   10 type  3   force =    -3.62305713    0.00000234    0.01084976
     atom   11 type  3   force =    -1.53489699    2.85884003   -0.00074741
     atom   12 type  3   force =     1.79749308    2.74779457   -0.00201792
     The core correction contribution to forces
     atom    1 type  3   force =     0.00000000    0.00000000    0.00000000
     atom    2 type  1   force =     0.00000000    0.00000000    0.00000000
     atom    3 type  2   force =     0.00000000    0.00000000    0.00000000
     atom    4 type  2   force =     0.00000000    0.00000000    0.00000000
     atom    5 type  2   force =     0.00000000    0.00000000    0.00000000
     atom    6 type  2   force =     0.00000000    0.00000000    0.00000000
     atom    7 type  2   force =     0.00000000    0.00000000    0.00000000
     atom    8 type  3   force =     0.00000000    0.00000000    0.00000000
     atom    9 type  3   force =     0.00000000    0.00000000    0.00000000
     atom   10 type  3   force =     0.00000000    0.00000000    0.00000000
     atom   11 type  3   force =     0.00000000    0.00000000    0.00000000
     atom   12 type  3   force =     0.00000000    0.00000000    0.00000000
     The Hubbard contrib.    to forces
     atom    1 type  3   force =     0.00000000    0.00000000    0.00000000
     atom    2 type  1   force =     0.00000000    0.00000000    0.00000000
     atom    3 type  2   force =     0.00000000    0.00000000    0.00000000
     atom    4 type  2   force =     0.00000000    0.00000000    0.00000000
     atom    5 type  2   force =     0.00000000    0.00000000    0.00000000
     atom    6 type  2   force =     0.00000000    0.00000000    0.00000000
     atom    7 type  2   force =     0.00000000    0.00000000    0.00000000
     atom    8 type  3   force =     0.00000000    0.00000000    0.00000000
     atom    9 type  3   force =     0.00000000    0.00000000    0.00000000
     atom   10 type  3   force =     0.00000000    0.00000000    0.00000000
     atom   11 type  3   force =     0.00000000    0.00000000    0.00000000
     atom   12 type  3   force =     0.00000000    0.00000000    0.00000000
     The SCF correction term to forces
     atom    1 type  3   force =     0.00000133   -0.00000013   -0.00000005
     atom    2 type  1   force =    -0.00003380   -0.00000264    0.00000016
     atom    3 type  2   force =    -0.00000538    0.00002750    0.00000002
     atom    4 type  2   force =     0.00001067    0.00002812   -0.00000005
     atom    5 type  2   force =     0.00004069   -0.00000245   -0.00000019
     atom    6 type  2   force =     0.00000943   -0.00002995   -0.00000003
     atom    7 type  2   force =    -0.00000306   -0.00002863    0.00000004
     atom    8 type  3   force =    -0.00000057    0.00000039   -0.00000002
     atom    9 type  3   force =    -0.00000099    0.00000151   -0.00000002
     atom   10 type  3   force =     0.00000032   -0.00000011   -0.00000006
     atom   11 type  3   force =    -0.00000133   -0.00000120    0.00000001
     atom   12 type  3   force =    -0.00000029   -0.00000023    0.00000000

     Total force =    78.969372     Total SCF correction =     0.000080

     Writing output data file piridine_water_pcc.save
 
     init_run     :      6.90s CPU      7.39s WALL (       1 calls)
     electrons    :    649.56s CPU    702.47s WALL (       1 calls)
     forces       :      6.46s CPU      6.63s WALL (       1 calls)

     Called by init_run:
     wfcinit      :      0.70s CPU      0.72s WALL (       1 calls)
     potinit      :      2.65s CPU      2.93s WALL (       1 calls)

     Called by electrons:
     c_bands      :     19.14s CPU     19.30s WALL (      18 calls)
     sum_band     :     42.52s CPU     44.23s WALL (      18 calls)
     v_of_rho     :     31.55s CPU     35.11s WALL (      19 calls)
     v_h          :     10.21s CPU     11.97s WALL (      65 calls)
     v_xc         :     28.52s CPU     31.60s WALL (      19 calls)
     newd         :     41.70s CPU     42.65s WALL (      19 calls)
     mix_rho      :      6.75s CPU      7.23s WALL (      18 calls)

     Called by c_bands:
     init_us_2    :      0.37s CPU      0.38s WALL (      37 calls)
     regterg      :     18.51s CPU     18.67s WALL (      18 calls)

     Called by sum_band:
     sum_band:bec :      0.00s CPU      0.00s WALL (      18 calls)
     addusdens    :     30.32s CPU     31.08s WALL (      18 calls)

     Called by *egterg:
     h_psi        :     17.46s CPU     17.60s WALL (      75 calls)
     s_psi        :      0.36s CPU      0.37s WALL (      75 calls)
     g_psi        :      0.12s CPU      0.13s WALL (      56 calls)
     rdiaghg      :      0.02s CPU      0.03s WALL (      74 calls)
     regterg:over :      0.33s CPU      0.33s WALL (      56 calls)
     regterg:upda :      0.29s CPU      0.29s WALL (      56 calls)
     regterg:last :      0.09s CPU      0.09s WALL (      18 calls)

     Called by h_psi:
     h_psi:vloc   :     16.61s CPU     16.76s WALL (      75 calls)
     h_psi:vnl    :      0.75s CPU      0.76s WALL (      75 calls)
     add_vuspsi   :      0.37s CPU      0.37s WALL (      75 calls)

     General routines
     calbec       :      0.52s CPU      0.52s WALL (      97 calls)
     fft          :    269.67s CPU    295.57s WALL (    2147 calls)
     ffts         :      1.03s CPU      1.06s WALL (      37 calls)
     fftw         :     15.48s CPU     15.65s WALL (     950 calls)
     interpolate  :      6.41s CPU      7.35s WALL (      37 calls)
     davcio       :      0.00s CPU      0.00s WALL (       1 calls)
 
     Parallel routines
     fft_scatter  :    117.84s CPU    128.92s WALL (    3134 calls)
 
     Environ routines
     calc_esolv   :      5.58s CPU      6.68s WALL (      18 calls)
     calc_vsolv   :    483.09s CPU    526.00s WALL (      14 calls)
     dielectric   :     12.35s CPU     13.07s WALL (      14 calls)
     get_rhopol   :    466.04s CPU    507.35s WALL (      14 calls)
     calc_veps    :     14.20s CPU     15.86s WALL (      14 calls)
     calc_epbc    :      0.14s CPU      0.14s WALL (      18 calls)
     calc_vpbc    :      2.88s CPU      2.91s WALL (      14 calls)
     calc_fpbc    :      0.03s CPU      0.03s WALL (       1 calls)
 
     PWSCF        : 11m 5.86s CPU    11m59.54s WALL

 
   This run was terminated on:  15:47:16  30May2014            

=------------------------------------------------------------------------------=
   JOB DONE.
=------------------------------------------------------------------------------=
