
     Program PWSCF v.6.4 starts on 24Jun2020 at 13: 1:30 

     This program is part of the open-source Quantum ESPRESSO suite
     for quantum simulation of materials; please cite
         "P. Giannozzi et al., J. Phys.:Condens. Matter 21 395502 (2009);
         "P. Giannozzi et al., J. Phys.:Condens. Matter 29 465901 (2017);
          URL http://www.quantum-espresso.org", 
     in publications or presentations arising from this work. More details at
     http://www.quantum-espresso.org/quote

     Parallel version (MPI), running on     1 processors

     MPI processes distributed on     1 nodes
     Reading input from pw.in
Warning: card  &IONS ignored
Warning: card     ION_DYNAMICS = 'BFGS', ignored
Warning: card  / ignored

     Current dimensions of program PWSCF are:
     Max number of different atomic species (ntypx) = 10
     Max number of k-points (npk) =  40000
     Max angular momentum in pseudopotentials (lmaxx) =  3


*******************************************

     Running initial calculation for flatband.

     Using charge of:     0.00000000

*******************************************

     Subspace diagonalization in iterative solution of the eigenvalue problem:
     a serial algorithm will be used

     Message from routine setup:
     no reason to have ecutrho>4*ecutwfc

     G-vector sticks info
     --------------------
     sticks:   dense  smooth     PW     G-vecs:    dense   smooth      PW
     Sum         861     341     89               221431    56001    7059



     bravais-lattice index     =            0
     lattice parameter (alat)  =       5.5435  a.u.
     unit-cell volume          =    2000.1211 (a.u.)^3
     number of atoms/cell      =            2
     number of atomic types    =            1
     number of electrons       =        38.00
     number of Kohn-Sham states=           23
     kinetic-energy cutoff     =      35.0000  Ry
     charge density cutoff     =     350.0000  Ry
     convergence threshold     =      5.0E-09
     mixing beta               =       0.7000
     number of iterations used =            8  plain     mixing
     Exchange-correlation      = PBE ( 1  4  3  4 0 0)


     Environ Module
     ==============

     Plese cite
         O. Andreussi, I. Dabo and N. Marzari, J. Chem. Phys. 136, 064102 (2012)         
     in publications or presentations arising from this work.

     compensation onset threshold      =               0.1000E+00 

     Electrostatic Setup
     -------------------
     electrostatic problem to solve    = poisson                  
     numerical solver adopted          = direct                   
     type of auxiliary density adopted = none                     
     type of core tool for poisson     = fft                      
     type of core tool for s(r) deriv  = analytic                 



     celldm(1)=   5.543526  celldm(2)=   0.000000  celldm(3)=   0.000000
     celldm(4)=   0.000000  celldm(5)=   0.000000  celldm(6)=   0.000000

     crystal axes: (cart. coord. in units of alat)
               a(1) = (   1.000000   0.000000   0.000000 )  
               a(2) = (   0.000000   1.000000   0.000000 )  
               a(3) = (   0.000000   0.000000  11.740809 )  

     reciprocal axes: (cart. coord. in units 2 pi/alat)
               b(1) = (  1.000000  0.000000  0.000000 )  
               b(2) = (  0.000000  1.000000  0.000000 )  
               b(3) = (  0.000000  0.000000  0.085173 )  


     PseudoPot. # 1 for Ag read from file:
     /home/drano/q-e-qe-6.4/Environ/tests/../..//pseudo/Ag_ONCV_PBE-1.0.upf
     MD5 check sum: c998b012c8d43a980e58b625d935ae32
     Pseudo is Norm-conserving, Zval = 19.0
     Generated using ONCVPSP code by D. R. Hamann
     Using radial grid of  602 points,  6 beta functions with: 
                l(1) =   0
                l(2) =   0
                l(3) =   1
                l(4) =   1
                l(5) =   2
                l(6) =   2

     atomic species   valence    mass     pseudopotential
        Ag            19.00   107.86800     Ag( 1.00)

      8 Sym. Ops. (no inversion) found



   Cartesian axes

     site n.     atom                  positions (alat units)
         1           Ag  tau(   1) = (   0.5000000   0.5000000   3.4088881  )
         2           Ag  tau(   2) = (   0.0000000   0.0000000   4.1021437  )

     number of k points=     1  Marzari-Vanderbilt smearing, width (Ry)=  0.0200
                       cart. coord. in units 2pi/alat
        k(    1) = (   0.0000000   0.0000000   0.0000000), wk =   2.0000000

     Dense  grid:   221431 G-vectors     FFT dimensions: (  36,  36, 400)

     Smooth grid:    56001 G-vectors     FFT dimensions: (  24,  24, 250)

     Estimated max dynamical RAM per process >     154.06 MB

     Initial potential from superposition of free atoms

     starting charge   37.92190, renormalised to   38.00000

     negative rho (up, down):  2.993E-04 0.000E+00
     Starting wfcs are random

     total cpu time spent up to now is        1.0 secs

     Self-consistent Calculation

     iteration #  1     ecut=    35.00 Ry     beta= 0.70
     Davidson diagonalization with overlap
     ethr =  1.00E-02,  avg # of iterations = 11.0

     Threshold (ethr) on eigenvalues was too large:
     Diagonalizing with lowered threshold

     Davidson diagonalization with overlap
     ethr =  8.88E-04,  avg # of iterations =  1.0

     negative rho (up, down):  9.205E-06 0.000E+00

     total cpu time spent up to now is        2.2 secs

     total energy              =    -575.35091210 Ry
     Harris-Foulkes estimate   =    -575.59403414 Ry
     estimated scf accuracy    <       0.33762138 Ry
     electrostatic embedding   =       0.00000000 Ry
     correction to one-el term =       0.00000000 Ry

     iteration #  2     ecut=    35.00 Ry     beta= 0.70
     Davidson diagonalization with overlap
     ethr =  8.88E-04,  avg # of iterations =  3.0

     negative rho (up, down):  7.007E-05 0.000E+00

     total cpu time spent up to now is        2.8 secs

     total energy              =    -575.02617876 Ry
     Harris-Foulkes estimate   =    -575.84065634 Ry
     estimated scf accuracy    <       3.06717776 Ry
     electrostatic embedding   =       0.00000000 Ry
     correction to one-el term =       0.00000000 Ry

     iteration #  3     ecut=    35.00 Ry     beta= 0.70
     Davidson diagonalization with overlap
     ethr =  8.88E-04,  avg # of iterations =  3.0

     negative rho (up, down):  7.521E-07 0.000E+00

     total cpu time spent up to now is        3.3 secs

     total energy              =    -575.48854613 Ry
     Harris-Foulkes estimate   =    -575.51996236 Ry
     estimated scf accuracy    <       0.12579208 Ry
     electrostatic embedding   =       0.00000000 Ry
     correction to one-el term =       0.00000000 Ry

     iteration #  4     ecut=    35.00 Ry     beta= 0.70
     Davidson diagonalization with overlap
     ethr =  3.31E-04,  avg # of iterations =  4.0

     negative rho (up, down):  6.634E-08 0.000E+00

     total cpu time spent up to now is        3.8 secs

     total energy              =    -575.48450092 Ry
     Harris-Foulkes estimate   =    -575.50391342 Ry
     estimated scf accuracy    <       0.13363811 Ry
     electrostatic embedding   =      -0.00000000 Ry
     correction to one-el term =       0.00000000 Ry

     iteration #  5     ecut=    35.00 Ry     beta= 0.70
     Davidson diagonalization with overlap
     ethr =  3.31E-04,  avg # of iterations =  3.0

     add environment contribution to local potential

     total cpu time spent up to now is        4.4 secs

     total energy              =    -575.48361269 Ry
     Harris-Foulkes estimate   =    -575.48999020 Ry
     estimated scf accuracy    <       0.03396691 Ry
     electrostatic embedding   =      -0.00000000 Ry
     correction to one-el term =       0.00000000 Ry

     iteration #  6     ecut=    35.00 Ry     beta= 0.70
     Davidson diagonalization with overlap
     ethr =  8.94E-05,  avg # of iterations =  3.0

     negative rho (up, down):  1.344E-08 0.000E+00

     add environment contribution to local potential

     total cpu time spent up to now is        4.9 secs

     total energy              =    -575.47707095 Ry
     Harris-Foulkes estimate   =    -581.26428463 Ry
     estimated scf accuracy    <       0.01609583 Ry
     electrostatic embedding   =       0.00000020 Ry
     correction to one-el term =       5.77985990 Ry

     iteration #  7     ecut=    35.00 Ry     beta= 0.70
     Davidson diagonalization with overlap
     ethr =  4.24E-05,  avg # of iterations =  6.0

     add environment contribution to local potential

     total cpu time spent up to now is        5.5 secs

     total energy              =    -575.47829197 Ry
     Harris-Foulkes estimate   =    -580.77238718 Ry
     estimated scf accuracy    <       0.03253633 Ry
     electrostatic embedding   =       0.00000032 Ry
     correction to one-el term =       5.28978943 Ry

     iteration #  8     ecut=    35.00 Ry     beta= 0.70
     Davidson diagonalization with overlap
     ethr =  4.24E-05,  avg # of iterations =  2.0

     add environment contribution to local potential

     total cpu time spent up to now is        6.2 secs

     total energy              =    -575.48056061 Ry
     Harris-Foulkes estimate   =    -580.89724243 Ry
     estimated scf accuracy    <       0.00107776 Ry
     electrostatic embedding   =       0.00000005 Ry
     correction to one-el term =       5.41650125 Ry

     iteration #  9     ecut=    35.00 Ry     beta= 0.70
     Davidson diagonalization with overlap
     ethr =  2.84E-06,  avg # of iterations =  5.0

     add environment contribution to local potential

     total cpu time spent up to now is        6.8 secs

     total energy              =    -575.48053460 Ry
     Harris-Foulkes estimate   =    -580.84718605 Ry
     estimated scf accuracy    <       0.00246881 Ry
     electrostatic embedding   =       0.00000004 Ry
     correction to one-el term =       5.36636402 Ry

     iteration # 10     ecut=    35.00 Ry     beta= 0.70
     Davidson diagonalization with overlap
     ethr =  2.84E-06,  avg # of iterations =  2.0

     add environment contribution to local potential

     total cpu time spent up to now is        7.4 secs

     total energy              =    -575.48065981 Ry
     Harris-Foulkes estimate   =    -580.86928160 Ry
     estimated scf accuracy    <       0.00041006 Ry
     electrostatic embedding   =       0.00000001 Ry
     correction to one-el term =       5.38858365 Ry

     iteration # 11     ecut=    35.00 Ry     beta= 0.70
     Davidson diagonalization with overlap
     ethr =  1.08E-06,  avg # of iterations =  2.0

     add environment contribution to local potential

     total cpu time spent up to now is        8.0 secs

     total energy              =    -575.48067934 Ry
     Harris-Foulkes estimate   =    -580.89428190 Ry
     estimated scf accuracy    <       0.00026928 Ry
     electrostatic embedding   =       0.00000001 Ry
     correction to one-el term =       5.41357587 Ry

     iteration # 12     ecut=    35.00 Ry     beta= 0.70
     Davidson diagonalization with overlap
     ethr =  7.09E-07,  avg # of iterations =  1.0

     add environment contribution to local potential

     total cpu time spent up to now is        8.6 secs

     total energy              =    -575.48068183 Ry
     Harris-Foulkes estimate   =    -580.88582885 Ry
     estimated scf accuracy    <       0.00007506 Ry
     electrostatic embedding   =       0.00000000 Ry
     correction to one-el term =       5.40513813 Ry

     iteration # 13     ecut=    35.00 Ry     beta= 0.70
     Davidson diagonalization with overlap
     ethr =  1.98E-07,  avg # of iterations =  1.0

     add environment contribution to local potential

     total cpu time spent up to now is        9.2 secs

     total energy              =    -575.48068603 Ry
     Harris-Foulkes estimate   =    -580.87969462 Ry
     estimated scf accuracy    <       0.00000110 Ry
     electrostatic embedding   =      -0.00000000 Ry
     correction to one-el term =       5.39900851 Ry

     iteration # 14     ecut=    35.00 Ry     beta= 0.70
     Davidson diagonalization with overlap
     ethr =  2.89E-09,  avg # of iterations =  2.0

     add environment contribution to local potential

     total cpu time spent up to now is        9.9 secs

     total energy              =    -575.48068607 Ry
     Harris-Foulkes estimate   =    -580.87877620 Ry
     estimated scf accuracy    <       0.00000012 Ry
     electrostatic embedding   =      -0.00000000 Ry
     correction to one-el term =       5.39809011 Ry

     iteration # 15     ecut=    35.00 Ry     beta= 0.70
     Davidson diagonalization with overlap
     ethr =  3.06E-10,  avg # of iterations =  1.0

     add environment contribution to local potential

     total cpu time spent up to now is       10.5 secs

     total energy              =    -575.48068608 Ry
     Harris-Foulkes estimate   =    -580.87896590 Ry
     estimated scf accuracy    <          6.6E-09 Ry
     electrostatic embedding   =      -0.00000000 Ry
     correction to one-el term =       5.39827982 Ry

     iteration # 16     ecut=    35.00 Ry     beta= 0.70
     Davidson diagonalization with overlap
     ethr =  1.73E-11,  avg # of iterations =  2.0

     total cpu time spent up to now is       11.0 secs

     End of self-consistent calculation

          k = 0.0000 0.0000 0.0000 (  7059 PWs)   bands (ev):

   -93.7124 -93.7021 -57.1412 -57.0708 -56.9992 -56.9992 -56.9690 -56.9690
    -7.8544  -7.3688  -7.2272  -6.4588  -5.7820  -5.7520  -5.7520  -4.9796
    -4.7940  -4.7940  -4.6000  -4.2237  -1.5321   0.1736   0.2361

     the Fermi energy is    -4.4654 ev

!    total energy              =    -575.48068608 Ry
     Harris-Foulkes estimate   =    -580.87892593 Ry
     estimated scf accuracy    <          2.2E-09 Ry

     The total energy is the sum of the following terms:

     one-electron contribution =   -5346.44580848 Ry
     hartree contribution      =    2664.92159189 Ry
     xc contribution           =     -54.31785350 Ry
     ewald contribution        =    2154.95128476 Ry
     smearing contrib. (-TS)   =       0.01185941 Ry
     electrostatic embedding   =      -0.00000000 Ry
     correction to one-el term =       5.39823985 Ry

     the Fermi energy shift due to the parabolic pbc-correction is    -0.4060 ev

     convergence has been achieved in  16 iterations


***************************************************

     Finished Charge convergence step :  -1

     DFT Fermi level calculated as    -4.46540469

     Charge trapped in surface states:     0.00000000 e

     Charge Accuracy <     0.00000000

     Difference between bulk and DFT fermi:     0.32820122

     Now using DFT charge of:      0.00000000

***************************************************
     charge density from previous step

     add environment contribution to local potential

     Forces acting on atoms (cartesian axes, Ry/au):

     atom    1 type  1   force =     0.00000000    0.00000000    0.02326854
     atom    2 type  1   force =     0.00000000    0.00000000   -0.02326854

     Total force =     0.032907     Total SCF correction =     0.000341

     total cpu time spent up to now is       11.8 secs

     Self-consistent Calculation

     iteration #  1     ecut=    35.00 Ry     beta= 0.70
     Davidson diagonalization with overlap
     ethr =  1.00E-06,  avg # of iterations =  1.0

     Threshold (ethr) on eigenvalues was too large:
     Diagonalizing with lowered threshold

     Davidson diagonalization with overlap
     ethr =  4.37E-10,  avg # of iterations =  1.0

     add environment contribution to local potential

     total cpu time spent up to now is       12.6 secs

     total energy              =    -575.48068596 Ry
     Harris-Foulkes estimate   =    -580.87861801 Ry
     estimated scf accuracy    <       0.00000017 Ry
     electrostatic embedding   =      -0.00000000 Ry
     correction to one-el term =       5.39793192 Ry

     iteration #  2     ecut=    35.00 Ry     beta= 0.70
     Davidson diagonalization with overlap
     ethr =  4.51E-10,  avg # of iterations =  3.0

     add environment contribution to local potential

     total cpu time spent up to now is       13.2 secs

     total energy              =    -575.48068460 Ry
     Harris-Foulkes estimate   =    -580.88005368 Ry
     estimated scf accuracy    <       0.00005274 Ry
     electrostatic embedding   =       0.00000000 Ry
     correction to one-el term =       5.39936605 Ry

     iteration #  3     ecut=    35.00 Ry     beta= 0.70
     Davidson diagonalization with overlap
     ethr =  4.51E-10,  avg # of iterations =  2.0

     add environment contribution to local potential

     total cpu time spent up to now is       13.8 secs

     total energy              =    -575.48068591 Ry
     Harris-Foulkes estimate   =    -580.87972859 Ry
     estimated scf accuracy    <       0.00000385 Ry
     electrostatic embedding   =      -0.00000000 Ry
     correction to one-el term =       5.39904231 Ry

     iteration #  4     ecut=    35.00 Ry     beta= 0.70
     Davidson diagonalization with overlap
     ethr =  4.51E-10,  avg # of iterations =  2.0

     total cpu time spent up to now is       14.3 secs

     End of self-consistent calculation

          k = 0.0000 0.0000 0.0000 (  7059 PWs)   bands (ev):

   -93.7122 -93.7020 -57.1411 -57.0707 -56.9990 -56.9990 -56.9688 -56.9688
    -7.8543  -7.3686  -7.2270  -6.4586  -5.7818  -5.7519  -5.7519  -4.9795
    -4.7939  -4.7939  -4.5999  -4.2236  -1.5320   0.1736   0.2361

     the Fermi energy is    -4.4653 ev

!    total energy              =    -575.48068608 Ry
     Harris-Foulkes estimate   =    -580.87887280 Ry
     estimated scf accuracy    <          4.5E-11 Ry

     The total energy is the sum of the following terms:

     one-electron contribution =   -5346.44366945 Ry
     hartree contribution      =    2664.91942609 Ry
     xc contribution           =     -54.31777189 Ry
     ewald contribution        =    2154.95128476 Ry
     smearing contrib. (-TS)   =       0.01185769 Ry
     electrostatic embedding   =      -0.00000000 Ry
     correction to one-el term =       5.39818672 Ry

     the Fermi energy shift due to the parabolic pbc-correction is    -0.4060 ev

     convergence has been achieved in   4 iterations


***************************************************

     Flatband potential calculated as    -4.46525183

     Now using initial charge of:      0.00000000

***************************************************
     charge density from previous step

     add environment contribution to local potential

     Forces acting on atoms (cartesian axes, Ry/au):

     atom    1 type  1   force =     0.00000000    0.00000000    0.02328175
     atom    2 type  1   force =     0.00000000    0.00000000   -0.02328175

     Total force =     0.032925     Total SCF correction =     0.000063

     total cpu time spent up to now is       15.0 secs

     Self-consistent Calculation

     iteration #  1     ecut=    35.00 Ry     beta= 0.70
     Davidson diagonalization with overlap
     ethr =  1.00E-06,  avg # of iterations =  1.0

     Threshold (ethr) on eigenvalues was too large:
     Diagonalizing with lowered threshold

     Davidson diagonalization with overlap
     ethr =  2.17E-11,  avg # of iterations =  1.0

     add environment contribution to local potential

     total cpu time spent up to now is       15.8 secs

     total energy              =    -575.48068607 Ry
     Harris-Foulkes estimate   =    -580.87887886 Ry
     estimated scf accuracy    <          8.5E-09 Ry
     electrostatic embedding   =      -0.00000000 Ry
     correction to one-el term =       5.39819278 Ry

     iteration #  2     ecut=    35.00 Ry     beta= 0.70
     Davidson diagonalization with overlap
     ethr =  2.24E-11,  avg # of iterations =  3.0

     add environment contribution to local potential

     total cpu time spent up to now is       16.4 secs

     total energy              =    -575.48068595 Ry
     Harris-Foulkes estimate   =    -580.87887900 Ry
     estimated scf accuracy    <       0.00000629 Ry
     electrostatic embedding   =       0.00000000 Ry
     correction to one-el term =       5.39819275 Ry

     iteration #  3     ecut=    35.00 Ry     beta= 0.70
     Davidson diagonalization with overlap
     ethr =  2.24E-11,  avg # of iterations =  3.0

     total cpu time spent up to now is       16.9 secs

     End of self-consistent calculation

          k = 0.0000 0.0000 0.0000 (  7059 PWs)   bands (ev):

   -93.7122 -93.7020 -57.1411 -57.0707 -56.9990 -56.9990 -56.9688 -56.9688
    -7.8543  -7.3686  -7.2270  -6.4586  -5.7818  -5.7519  -5.7519  -4.9794
    -4.7939  -4.7939  -4.5999  -4.2236  -1.5320   0.1736   0.2361

     the Fermi energy is    -4.4652 ev

!    total energy              =    -575.48068608 Ry
     Harris-Foulkes estimate   =    -580.87886691 Ry
     estimated scf accuracy    <          6.2E-10 Ry

     The total energy is the sum of the following terms:

     one-electron contribution =   -5346.44357866 Ry
     hartree contribution      =    2664.91934188 Ry
     xc contribution           =     -54.31777260 Ry
     ewald contribution        =    2154.95128476 Ry
     smearing contrib. (-TS)   =       0.01185771 Ry
     electrostatic embedding   =      -0.00000000 Ry
     correction to one-el term =       5.39818083 Ry

     the Fermi energy shift due to the parabolic pbc-correction is    -0.4060 ev

     convergence has been achieved in   3 iterations


***************************************************

     Finished Charge convergence step :   1

     DFT Fermi level calculated as    -4.46524487

     Charge trapped in surface states:     0.00000000 e

     Charge Accuracy <     0.00000000

     Difference between bulk and DFT fermi:     0.32818947

     Now using DFT charge of:      0.00000000

***************************************************
     charge density from previous step

     add environment contribution to local potential

     Forces acting on atoms (cartesian axes, Ry/au):

     atom    1 type  1   force =     0.00000000    0.00000000    0.02327884
     atom    2 type  1   force =     0.00000000    0.00000000   -0.02327884

     Total force =     0.032921     Total SCF correction =     0.000291

     total cpu time spent up to now is       17.6 secs

     Self-consistent Calculation

     iteration #  1     ecut=    35.00 Ry     beta= 0.70
     Davidson diagonalization with overlap
     ethr =  1.00E-06,  avg # of iterations =  1.0

     Threshold (ethr) on eigenvalues was too large:
     Diagonalizing with lowered threshold

     Davidson diagonalization with overlap
     ethr =  1.02E-09,  avg # of iterations =  1.0

     add environment contribution to local potential

     total cpu time spent up to now is       18.4 secs

     total energy              =    -575.48068574 Ry
     Harris-Foulkes estimate   =    -580.87888650 Ry
     estimated scf accuracy    <       0.00000041 Ry
     electrostatic embedding   =      -0.00000000 Ry
     correction to one-el term =       5.39820041 Ry

     iteration #  2     ecut=    35.00 Ry     beta= 0.70
     Davidson diagonalization with overlap
     ethr =  1.07E-09,  avg # of iterations =  3.0

     add environment contribution to local potential

     total cpu time spent up to now is       19.0 secs

     total energy              =    -575.48067978 Ry
     Harris-Foulkes estimate   =    -580.87891895 Ry
     estimated scf accuracy    <       0.00030464 Ry
     electrostatic embedding   =       0.00000002 Ry
     correction to one-el term =       5.39822491 Ry

     iteration #  3     ecut=    35.00 Ry     beta= 0.70
     Davidson diagonalization with overlap
     ethr =  1.07E-09,  avg # of iterations =  2.0

     add environment contribution to local potential

     total cpu time spent up to now is       19.6 secs

     total energy              =    -575.48068608 Ry
     Harris-Foulkes estimate   =    -580.87884442 Ry
     estimated scf accuracy    <       0.00000004 Ry
     electrostatic embedding   =      -0.00000000 Ry
     correction to one-el term =       5.39815833 Ry

     iteration #  4     ecut=    35.00 Ry     beta= 0.70
     Davidson diagonalization with overlap
     ethr =  9.91E-11,  avg # of iterations =  2.0

     total cpu time spent up to now is       20.2 secs

     End of self-consistent calculation

          k = 0.0000 0.0000 0.0000 (  7059 PWs)   bands (ev):

   -93.7123 -93.7020 -57.1411 -57.0707 -56.9991 -56.9991 -56.9689 -56.9689
    -7.8543  -7.3687  -7.2271  -6.4587  -5.7819  -5.7519  -5.7519  -4.9795
    -4.7939  -4.7939  -4.5999  -4.2236  -1.5321   0.1736   0.2361

     the Fermi energy is    -4.4653 ev

!    total energy              =    -575.48068608 Ry
     Harris-Foulkes estimate   =    -580.87889067 Ry
     estimated scf accuracy    <          7.4E-10 Ry

     The total energy is the sum of the following terms:

     one-electron contribution =   -5346.44484870 Ry
     hartree contribution      =    2664.92063354 Ry
     xc contribution           =     -54.31781878 Ry
     ewald contribution        =    2154.95128476 Ry
     smearing contrib. (-TS)   =       0.01185850 Ry
     electrostatic embedding   =      -0.00000000 Ry
     correction to one-el term =       5.39820459 Ry

     the Fermi energy shift due to the parabolic pbc-correction is    -0.4060 ev

     convergence has been achieved in   4 iterations


***************************************************

     Finished Charge convergence step :   2

     DFT Fermi level calculated as    -4.46531198

     Charge trapped in surface states:     0.00000000 e

     Charge Accuracy <     0.00000000

     Difference between bulk and DFT fermi:     0.32819441

     Now using DFT charge of:      0.00000000

***************************************************
     charge density from previous step

     add environment contribution to local potential

     Forces acting on atoms (cartesian axes, Ry/au):

     atom    1 type  1   force =     0.00000000    0.00000000    0.02327386
     atom    2 type  1   force =     0.00000000    0.00000000   -0.02327386

     Total force =     0.032914     Total SCF correction =     0.000188

     total cpu time spent up to now is       20.9 secs

     Self-consistent Calculation

     iteration #  1     ecut=    35.00 Ry     beta= 0.70
     Davidson diagonalization with overlap
     ethr =  1.00E-06,  avg # of iterations =  1.0

     Threshold (ethr) on eigenvalues was too large:
     Diagonalizing with lowered threshold

     Davidson diagonalization with overlap
     ethr =  9.54E-11,  avg # of iterations =  1.0

     add environment contribution to local potential

     total cpu time spent up to now is       21.7 secs

     total energy              =    -575.48068606 Ry
     Harris-Foulkes estimate   =    -580.87873580 Ry
     estimated scf accuracy    <       0.00000004 Ry
     electrostatic embedding   =      -0.00000000 Ry
     correction to one-el term =       5.39804971 Ry

     iteration #  2     ecut=    35.00 Ry     beta= 0.70
     Davidson diagonalization with overlap
     ethr =  9.60E-11,  avg # of iterations =  3.0

     add environment contribution to local potential

     total cpu time spent up to now is       22.3 secs

     total energy              =    -575.48068593 Ry
     Harris-Foulkes estimate   =    -580.87953333 Ry
     estimated scf accuracy    <       0.00000257 Ry
     electrostatic embedding   =      -0.00000000 Ry
     correction to one-el term =       5.39884712 Ry

     iteration #  3     ecut=    35.00 Ry     beta= 0.70
     Davidson diagonalization with overlap
     ethr =  9.60E-11,  avg # of iterations =  2.0

     add environment contribution to local potential

     total cpu time spent up to now is       22.9 secs

     total energy              =    -575.48068598 Ry
     Harris-Foulkes estimate   =    -580.87920198 Ry
     estimated scf accuracy    <       0.00000383 Ry
     electrostatic embedding   =      -0.00000000 Ry
     correction to one-el term =       5.39851578 Ry

     iteration #  4     ecut=    35.00 Ry     beta= 0.70
     Davidson diagonalization with overlap
     ethr =  9.60E-11,  avg # of iterations =  2.0

     total cpu time spent up to now is       23.4 secs

     End of self-consistent calculation

          k = 0.0000 0.0000 0.0000 (  7059 PWs)   bands (ev):

   -93.7122 -93.7020 -57.1411 -57.0707 -56.9990 -56.9990 -56.9688 -56.9688
    -7.8543  -7.3686  -7.2270  -6.4586  -5.7818  -5.7519  -5.7519  -4.9794
    -4.7939  -4.7939  -4.5999  -4.2236  -1.5320   0.1736   0.2361

     the Fermi energy is    -4.4652 ev

!    total energy              =    -575.48068608 Ry
     Harris-Foulkes estimate   =    -580.87887005 Ry
     estimated scf accuracy    <          6.9E-10 Ry

     The total energy is the sum of the following terms:

     one-electron contribution =   -5346.44348643 Ry
     hartree contribution      =    2664.91923747 Ry
     xc contribution           =     -54.31776341 Ry
     ewald contribution        =    2154.95128476 Ry
     smearing contrib. (-TS)   =       0.01185756 Ry
     electrostatic embedding   =      -0.00000000 Ry
     correction to one-el term =       5.39818396 Ry

     the Fermi energy shift due to the parabolic pbc-correction is    -0.4060 ev

     convergence has been achieved in   4 iterations


***************************************************

     Finished Charge convergence step :   3

     DFT Fermi level calculated as    -4.46524317

     Charge trapped in surface states:     0.00000000 e

     Charge Accuracy <     0.00000000

     Difference between bulk and DFT fermi:     0.32818935

     Now using DFT charge of:      0.00000000

***************************************************
     charge density from previous step

     add environment contribution to local potential

     Forces acting on atoms (cartesian axes, Ry/au):

     atom    1 type  1   force =     0.00000000    0.00000000    0.02328193
     atom    2 type  1   force =     0.00000000    0.00000000   -0.02328193

     Total force =     0.032926     Total SCF correction =     0.000319

     total cpu time spent up to now is       24.1 secs

     Self-consistent Calculation

     iteration #  1     ecut=    35.00 Ry     beta= 0.70
     Davidson diagonalization with overlap
     ethr =  1.00E-06,  avg # of iterations =  1.0

     Threshold (ethr) on eigenvalues was too large:
     Diagonalizing with lowered threshold

     Davidson diagonalization with overlap
     ethr =  1.48E-09,  avg # of iterations =  1.0

     add environment contribution to local potential

     total cpu time spent up to now is       24.9 secs

     total energy              =    -575.48068558 Ry
     Harris-Foulkes estimate   =    -580.87889335 Ry
     estimated scf accuracy    <       0.00000059 Ry
     electrostatic embedding   =      -0.00000000 Ry
     correction to one-el term =       5.39820726 Ry

     iteration #  2     ecut=    35.00 Ry     beta= 0.70
     Davidson diagonalization with overlap
     ethr =  1.55E-09,  avg # of iterations =  2.0

     add environment contribution to local potential

     total cpu time spent up to now is       25.4 secs

     total energy              =    -575.48067696 Ry
     Harris-Foulkes estimate   =    -580.87889594 Ry
     estimated scf accuracy    <       0.00043936 Ry
     electrostatic embedding   =       0.00000003 Ry
     correction to one-el term =       5.39819839 Ry

     iteration #  3     ecut=    35.00 Ry     beta= 0.70
     Davidson diagonalization with overlap
     ethr =  1.55E-09,  avg # of iterations =  3.0

     add environment contribution to local potential

     total cpu time spent up to now is       26.0 secs

     total energy              =    -575.48068608 Ry
     Harris-Foulkes estimate   =    -580.87881476 Ry
     estimated scf accuracy    <       0.00000004 Ry
     electrostatic embedding   =      -0.00000000 Ry
     correction to one-el term =       5.39812868 Ry

     iteration #  4     ecut=    35.00 Ry     beta= 0.70
     Davidson diagonalization with overlap
     ethr =  1.09E-10,  avg # of iterations =  1.0

     total cpu time spent up to now is       26.5 secs

     End of self-consistent calculation

          k = 0.0000 0.0000 0.0000 (  7059 PWs)   bands (ev):

   -93.7123 -93.7021 -57.1412 -57.0708 -56.9992 -56.9992 -56.9689 -56.9689
    -7.8544  -7.3687  -7.2271  -6.4588  -5.7819  -5.7520  -5.7520  -4.9796
    -4.7940  -4.7940  -4.6000  -4.2237  -1.5321   0.1736   0.2361

     the Fermi energy is    -4.4654 ev

!    total energy              =    -575.48068608 Ry
     Harris-Foulkes estimate   =    -580.87890791 Ry
     estimated scf accuracy    <          2.5E-09 Ry

     The total energy is the sum of the following terms:

     one-electron contribution =   -5346.44577928 Ry
     hartree contribution      =    2664.92158120 Ry
     xc contribution           =     -54.31785367 Ry
     ewald contribution        =    2154.95128476 Ry
     smearing contrib. (-TS)   =       0.01185910 Ry
     electrostatic embedding   =      -0.00000000 Ry
     correction to one-el term =       5.39822183 Ry

     the Fermi energy shift due to the parabolic pbc-correction is    -0.4060 ev

     convergence has been achieved in   4 iterations


***************************************************

     Finished Charge convergence step :   4

     DFT Fermi level calculated as    -4.46536180

     Charge trapped in surface states:     0.00000000 e

     Charge Accuracy <     0.00000000

     Difference between bulk and DFT fermi:     0.32819807

     Now using DFT charge of:      0.00000000

***************************************************
     charge density from previous step

     add environment contribution to local potential

     Forces acting on atoms (cartesian axes, Ry/au):

     atom    1 type  1   force =     0.00000000    0.00000000    0.02327169
     atom    2 type  1   force =     0.00000000    0.00000000   -0.02327169

     Total force =     0.032911     Total SCF correction =     0.000430

     total cpu time spent up to now is       27.2 secs

     Self-consistent Calculation

     iteration #  1     ecut=    35.00 Ry     beta= 0.70
     Davidson diagonalization with overlap
     ethr =  1.00E-06,  avg # of iterations =  1.0

     Threshold (ethr) on eigenvalues was too large:
     Diagonalizing with lowered threshold

     Davidson diagonalization with overlap
     ethr =  8.41E-10,  avg # of iterations =  1.0

     add environment contribution to local potential

     total cpu time spent up to now is       28.0 secs

     total energy              =    -575.48068582 Ry
     Harris-Foulkes estimate   =    -580.87861932 Ry
     estimated scf accuracy    <       0.00000033 Ry
     electrostatic embedding   =      -0.00000000 Ry
     correction to one-el term =       5.39793322 Ry

     iteration #  2     ecut=    35.00 Ry     beta= 0.70
     Davidson diagonalization with overlap
     ethr =  8.76E-10,  avg # of iterations =  3.0

     add environment contribution to local potential

     total cpu time spent up to now is       28.6 secs

     total energy              =    -575.48068220 Ry
     Harris-Foulkes estimate   =    -580.88012635 Ry
     estimated scf accuracy    <       0.00016853 Ry
     electrostatic embedding   =       0.00000001 Ry
     correction to one-el term =       5.39943567 Ry

     iteration #  3     ecut=    35.00 Ry     beta= 0.70
     Davidson diagonalization with overlap
     ethr =  8.76E-10,  avg # of iterations =  2.0

     add environment contribution to local potential

     total cpu time spent up to now is       29.2 secs

     total energy              =    -575.48068592 Ry
     Harris-Foulkes estimate   =    -580.87980561 Ry
     estimated scf accuracy    <       0.00000225 Ry
     electrostatic embedding   =      -0.00000000 Ry
     correction to one-el term =       5.39911936 Ry

     iteration #  4     ecut=    35.00 Ry     beta= 0.70
     Davidson diagonalization with overlap
     ethr =  8.76E-10,  avg # of iterations =  2.0

     total cpu time spent up to now is       29.6 secs

     End of self-consistent calculation

          k = 0.0000 0.0000 0.0000 (  7059 PWs)   bands (ev):

   -93.7122 -93.7019 -57.1410 -57.0707 -56.9990 -56.9990 -56.9688 -56.9688
    -7.8543  -7.3686  -7.2270  -6.4586  -5.7818  -5.7519  -5.7519  -4.9794
    -4.7939  -4.7939  -4.5999  -4.2236  -1.5320   0.1736   0.2361

     the Fermi energy is    -4.4652 ev

!    total energy              =    -575.48068608 Ry
     Harris-Foulkes estimate   =    -580.87887001 Ry
     estimated scf accuracy    <          4.3E-09 Ry

     The total energy is the sum of the following terms:

     one-electron contribution =   -5346.44331668 Ry
     hartree contribution      =    2664.91906471 Ry
     xc contribution           =     -54.31776011 Ry
     ewald contribution        =    2154.95128476 Ry
     smearing contrib. (-TS)   =       0.01185732 Ry
     electrostatic embedding   =      -0.00000000 Ry
     correction to one-el term =       5.39818393 Ry

     the Fermi energy shift due to the parabolic pbc-correction is    -0.4060 ev

     convergence has been achieved in   4 iterations


***************************************************

     Finished Charge convergence step :   5

     DFT Fermi level calculated as    -4.46523457

     Charge trapped in surface states:     0.00000000 e

     Charge Accuracy <     0.00000000

     Difference between bulk and DFT fermi:     0.32818872

     Now using DFT charge of:      0.00000000

***************************************************
     charge density from previous step

     add environment contribution to local potential

     Forces acting on atoms (cartesian axes, Ry/au):

     atom    1 type  1   force =     0.00000000    0.00000000    0.02330578
     atom    2 type  1   force =     0.00000000    0.00000000   -0.02330578

     Total force =     0.032959     Total SCF correction =     0.000777

     total cpu time spent up to now is       30.4 secs

     Self-consistent Calculation

     iteration #  1     ecut=    35.00 Ry     beta= 0.70
     Davidson diagonalization with overlap
     ethr =  1.00E-06,  avg # of iterations =  2.0

     Threshold (ethr) on eigenvalues was too large:
     Diagonalizing with lowered threshold

     Davidson diagonalization with overlap
     ethr =  9.70E-09,  avg # of iterations =  1.0

     add environment contribution to local potential

     total cpu time spent up to now is       31.2 secs

     total energy              =    -575.48068283 Ry
     Harris-Foulkes estimate   =    -580.87890806 Ry
     estimated scf accuracy    <       0.00000383 Ry
     electrostatic embedding   =       0.00000000 Ry
     correction to one-el term =       5.39822187 Ry

     iteration #  2     ecut=    35.00 Ry     beta= 0.70
     Davidson diagonalization with overlap
     ethr =  1.01E-08,  avg # of iterations =  4.0

     add environment contribution to local potential

     total cpu time spent up to now is       31.8 secs

     total energy              =    -575.48062729 Ry
     Harris-Foulkes estimate   =    -580.87905018 Ry
     estimated scf accuracy    <       0.00282779 Ry
     electrostatic embedding   =       0.00000017 Ry
     correction to one-el term =       5.39828959 Ry

     iteration #  3     ecut=    35.00 Ry     beta= 0.70
     Davidson diagonalization with overlap
     ethr =  1.01E-08,  avg # of iterations =  3.0

     add environment contribution to local potential

     total cpu time spent up to now is       32.4 secs

     total energy              =    -575.48068607 Ry
     Harris-Foulkes estimate   =    -580.87885867 Ry
     estimated scf accuracy    <       0.00000024 Ry
     electrostatic embedding   =       0.00000000 Ry
     correction to one-el term =       5.39817256 Ry

     iteration #  4     ecut=    35.00 Ry     beta= 0.70
     Davidson diagonalization with overlap
     ethr =  6.23E-10,  avg # of iterations =  1.0

     total cpu time spent up to now is       32.8 secs

     End of self-consistent calculation

          k = 0.0000 0.0000 0.0000 (  7059 PWs)   bands (ev):

   -93.7122 -93.7020 -57.1411 -57.0707 -56.9991 -56.9991 -56.9688 -56.9688
    -7.8543  -7.3686  -7.2270  -6.4587  -5.7819  -5.7519  -5.7519  -4.9795
    -4.7939  -4.7939  -4.5999  -4.2236  -1.5321   0.1738   0.2363

     the Fermi energy is    -4.4653 ev

!    total energy              =    -575.48068608 Ry
     Harris-Foulkes estimate   =    -580.87887871 Ry
     estimated scf accuracy    <          4.9E-10 Ry

     The total energy is the sum of the following terms:

     one-electron contribution =   -5346.44416758 Ry
     hartree contribution      =    2664.91993424 Ry
     xc contribution           =     -54.31778788 Ry
     ewald contribution        =    2154.95128476 Ry
     smearing contrib. (-TS)   =       0.01185775 Ry
     electrostatic embedding   =      -0.00000000 Ry
     correction to one-el term =       5.39819263 Ry

     the Fermi energy shift due to the parabolic pbc-correction is    -0.4060 ev

     convergence has been achieved in   4 iterations


***************************************************

     Finished Charge convergence step :   6

     DFT Fermi level calculated as    -4.46527474

     Charge trapped in surface states:     0.00000000 e

     Charge Accuracy <     0.00000000

     Difference between bulk and DFT fermi:     0.32819167

     Now using DFT charge of:      0.00000000

***************************************************
     charge density from previous step

     add environment contribution to local potential

     Forces acting on atoms (cartesian axes, Ry/au):

     atom    1 type  1   force =     0.00000000    0.00000000    0.02327273
     atom    2 type  1   force =     0.00000000    0.00000000   -0.02327273

     Total force =     0.032913     Total SCF correction =     0.000131

     total cpu time spent up to now is       33.6 secs

     Self-consistent Calculation

     iteration #  1     ecut=    35.00 Ry     beta= 0.70
     Davidson diagonalization with overlap
     ethr =  1.00E-06,  avg # of iterations =  1.0

     Threshold (ethr) on eigenvalues was too large:
     Diagonalizing with lowered threshold

     Davidson diagonalization with overlap
     ethr =  2.57E-11,  avg # of iterations =  1.0

     add environment contribution to local potential

     total cpu time spent up to now is       34.3 secs

     total energy              =    -575.48068607 Ry
     Harris-Foulkes estimate   =    -580.87881252 Ry
     estimated scf accuracy    <          9.8E-09 Ry
     electrostatic embedding   =      -0.00000000 Ry
     correction to one-el term =       5.39812644 Ry

     iteration #  2     ecut=    35.00 Ry     beta= 0.70
     Davidson diagonalization with overlap
     ethr =  2.58E-11,  avg # of iterations =  3.0

     add environment contribution to local potential

     total cpu time spent up to now is       34.9 secs

     total energy              =    -575.48068604 Ry
     Harris-Foulkes estimate   =    -580.87917307 Ry
     estimated scf accuracy    <       0.00000070 Ry
     electrostatic embedding   =      -0.00000000 Ry
     correction to one-el term =       5.39848696 Ry

     iteration #  3     ecut=    35.00 Ry     beta= 0.70
     Davidson diagonalization with overlap
     ethr =  2.58E-11,  avg # of iterations =  2.0

     add environment contribution to local potential

     total cpu time spent up to now is       35.5 secs

     total energy              =    -575.48068606 Ry
     Harris-Foulkes estimate   =    -580.87903348 Ry
     estimated scf accuracy    <       0.00000087 Ry
     electrostatic embedding   =      -0.00000000 Ry
     correction to one-el term =       5.39834737 Ry

     iteration #  4     ecut=    35.00 Ry     beta= 0.70
     Davidson diagonalization with overlap
     ethr =  2.58E-11,  avg # of iterations =  2.0

     total cpu time spent up to now is       36.0 secs

     End of self-consistent calculation

          k = 0.0000 0.0000 0.0000 (  7059 PWs)   bands (ev):

   -93.7121 -93.7019 -57.1410 -57.0706 -56.9989 -56.9989 -56.9687 -56.9687
    -7.8542  -7.3685  -7.2269  -6.4586  -5.7818  -5.7518  -5.7518  -4.9794
    -4.7938  -4.7938  -4.5998  -4.2236  -1.5320   0.1737   0.2362

     the Fermi energy is    -4.4652 ev

!    total energy              =    -575.48068608 Ry
     Harris-Foulkes estimate   =    -580.87885118 Ry
     estimated scf accuracy    <          3.1E-09 Ry

     The total energy is the sum of the following terms:

     one-electron contribution =   -5346.44234276 Ry
     hartree contribution      =    2664.91806356 Ry
     xc contribution           =     -54.31771330 Ry
     ewald contribution        =    2154.95128476 Ry
     smearing contrib. (-TS)   =       0.01185657 Ry
     electrostatic embedding   =      -0.00000000 Ry
     correction to one-el term =       5.39816510 Ry

     the Fermi energy shift due to the parabolic pbc-correction is    -0.4060 ev

     convergence has been achieved in   4 iterations


***************************************************

     Finished Charge convergence step :   7

     DFT Fermi level calculated as    -4.46518122

     Charge trapped in surface states:     0.00000000 e

     Charge Accuracy <     0.00000000

     Difference between bulk and DFT fermi:     0.32818480

     Now using DFT charge of:      0.00000000

***************************************************
     charge density from previous step

     add environment contribution to local potential

     Forces acting on atoms (cartesian axes, Ry/au):

     atom    1 type  1   force =     0.00000000    0.00000000    0.02327793
     atom    2 type  1   force =     0.00000000    0.00000000   -0.02327793

     Total force =     0.032920     Total SCF correction =     0.000656

     total cpu time spent up to now is       36.7 secs

     Self-consistent Calculation

     iteration #  1     ecut=    35.00 Ry     beta= 0.70
     Davidson diagonalization with overlap
     ethr =  1.00E-06,  avg # of iterations =  2.0

     Threshold (ethr) on eigenvalues was too large:
     Diagonalizing with lowered threshold

     Davidson diagonalization with overlap
     ethr =  5.97E-09,  avg # of iterations =  1.0

     add environment contribution to local potential

     total cpu time spent up to now is       37.5 secs

     total energy              =    -575.48068408 Ry
     Harris-Foulkes estimate   =    -580.87901963 Ry
     estimated scf accuracy    <       0.00000236 Ry
     electrostatic embedding   =      -0.00000000 Ry
     correction to one-el term =       5.39833348 Ry

     iteration #  2     ecut=    35.00 Ry     beta= 0.70
     Davidson diagonalization with overlap
     ethr =  6.22E-09,  avg # of iterations =  3.0

     add environment contribution to local potential

     total cpu time spent up to now is       38.1 secs

     total energy              =    -575.48064982 Ry
     Harris-Foulkes estimate   =    -580.87842220 Ry
     estimated scf accuracy    <       0.00173359 Ry
     electrostatic embedding   =       0.00000010 Ry
     correction to one-el term =       5.39769068 Ry

     iteration #  3     ecut=    35.00 Ry     beta= 0.70
     Davidson diagonalization with overlap
     ethr =  6.22E-09,  avg # of iterations =  2.0

     add environment contribution to local potential

     total cpu time spent up to now is       38.6 secs

     total energy              =    -575.48068603 Ry
     Harris-Foulkes estimate   =    -580.87838066 Ry
     estimated scf accuracy    <       0.00000049 Ry
     electrostatic embedding   =      -0.00000000 Ry
     correction to one-el term =       5.39769452 Ry

     iteration #  4     ecut=    35.00 Ry     beta= 0.70
     Davidson diagonalization with overlap
     ethr =  1.30E-09,  avg # of iterations =  2.0

     add environment contribution to local potential

     total cpu time spent up to now is       39.2 secs

     total energy              =    -575.48068608 Ry
     Harris-Foulkes estimate   =    -580.87893973 Ry
     estimated scf accuracy    <       0.00000002 Ry
     electrostatic embedding   =      -0.00000000 Ry
     correction to one-el term =       5.39825365 Ry

     iteration #  5     ecut=    35.00 Ry     beta= 0.70
     Davidson diagonalization with overlap
     ethr =  6.06E-11,  avg # of iterations =  2.0

     total cpu time spent up to now is       39.6 secs

     End of self-consistent calculation

          k = 0.0000 0.0000 0.0000 (  7059 PWs)   bands (ev):

   -93.7122 -93.7020 -57.1411 -57.0707 -56.9990 -56.9990 -56.9688 -56.9688
    -7.8543  -7.3686  -7.2270  -6.4587  -5.7819  -5.7519  -5.7519  -4.9795
    -4.7939  -4.7939  -4.5999  -4.2236  -1.5320   0.1737   0.2362

     the Fermi energy is    -4.4653 ev

!    total energy              =    -575.48068608 Ry
     Harris-Foulkes estimate   =    -580.87887681 Ry
     estimated scf accuracy    <          1.8E-10 Ry

     The total energy is the sum of the following terms:

     one-electron contribution =   -5346.44407999 Ry
     hartree contribution      =    2664.91984261 Ry
     xc contribution           =     -54.31778201 Ry
     ewald contribution        =    2154.95128476 Ry
     smearing contrib. (-TS)   =       0.01185783 Ry
     electrostatic embedding   =      -0.00000000 Ry
     correction to one-el term =       5.39819072 Ry

     the Fermi energy shift due to the parabolic pbc-correction is    -0.4060 ev

     convergence has been achieved in   5 iterations


***************************************************

     Finished Charge convergence step :   8

     DFT Fermi level calculated as    -4.46526644

     Charge trapped in surface states:     0.00000000 e

     Charge Accuracy <     0.00000000

     Difference between bulk and DFT fermi:     0.32819106

     Now using DFT charge of:      0.00000000

***************************************************
     charge density from previous step

     add environment contribution to local potential

     Forces acting on atoms (cartesian axes, Ry/au):

     atom    1 type  1   force =     0.00000000    0.00000000    0.02328512
     atom    2 type  1   force =     0.00000000    0.00000000   -0.02328512

     Total force =     0.032930     Total SCF correction =     0.000069

     total cpu time spent up to now is       40.4 secs

     Self-consistent Calculation

     iteration #  1     ecut=    35.00 Ry     beta= 0.70
     Davidson diagonalization with overlap
     ethr =  1.00E-06,  avg # of iterations =  1.0

     Threshold (ethr) on eigenvalues was too large:
     Diagonalizing with lowered threshold

     Davidson diagonalization with overlap
     ethr =  4.06E-11,  avg # of iterations =  1.0

     add environment contribution to local potential

     total cpu time spent up to now is       41.2 secs

     total energy              =    -575.48068607 Ry
     Harris-Foulkes estimate   =    -580.87882286 Ry
     estimated scf accuracy    <       0.00000002 Ry
     electrostatic embedding   =      -0.00000000 Ry
     correction to one-el term =       5.39813677 Ry

     iteration #  2     ecut=    35.00 Ry     beta= 0.70
     Davidson diagonalization with overlap
     ethr =  4.24E-11,  avg # of iterations =  3.0

     add environment contribution to local potential

     total cpu time spent up to now is       41.8 secs

     total energy              =    -575.48068589 Ry
     Harris-Foulkes estimate   =    -580.87910431 Ry
     estimated scf accuracy    <       0.00000812 Ry
     electrostatic embedding   =      -0.00000000 Ry
     correction to one-el term =       5.39841801 Ry

     iteration #  3     ecut=    35.00 Ry     beta= 0.70
     Davidson diagonalization with overlap
     ethr =  4.24E-11,  avg # of iterations =  2.0

     add environment contribution to local potential

     total cpu time spent up to now is       42.4 secs

     total energy              =    -575.48068607 Ry
     Harris-Foulkes estimate   =    -580.87906683 Ry
     estimated scf accuracy    <       0.00000012 Ry
     electrostatic embedding   =      -0.00000000 Ry
     correction to one-el term =       5.39838074 Ry

     iteration #  4     ecut=    35.00 Ry     beta= 0.70
     Davidson diagonalization with overlap
     ethr =  4.24E-11,  avg # of iterations =  2.0

     total cpu time spent up to now is       42.8 secs

     End of self-consistent calculation

          k = 0.0000 0.0000 0.0000 (  7059 PWs)   bands (ev):

   -93.7122 -93.7019 -57.1410 -57.0706 -56.9990 -56.9990 -56.9688 -56.9688
    -7.8543  -7.3686  -7.2270  -6.4586  -5.7818  -5.7519  -5.7519  -4.9794
    -4.7939  -4.7939  -4.5999  -4.2236  -1.5320   0.1736   0.2362

     the Fermi energy is    -4.4652 ev

!    total energy              =    -575.48068608 Ry
     Harris-Foulkes estimate   =    -580.87886836 Ry
     estimated scf accuracy    <          2.0E-10 Ry

     The total energy is the sum of the following terms:

     one-electron contribution =   -5346.44340018 Ry
     hartree contribution      =    2664.91914564 Ry
     xc contribution           =     -54.31775592 Ry
     ewald contribution        =    2154.95128476 Ry
     smearing contrib. (-TS)   =       0.01185735 Ry
     electrostatic embedding   =      -0.00000000 Ry
     correction to one-el term =       5.39818228 Ry

     the Fermi energy shift due to the parabolic pbc-correction is    -0.4060 ev

     convergence has been achieved in   4 iterations


***************************************************

     Finished Charge convergence step :   9

     DFT Fermi level calculated as    -4.46523349

     Charge trapped in surface states:     0.00000000 e

     Charge Accuracy <     0.00000000

     Difference between bulk and DFT fermi:     0.32818864

     Now using DFT charge of:      0.00000000

***************************************************
     charge density from previous step

     add environment contribution to local potential

     Forces acting on atoms (cartesian axes, Ry/au):

     atom    1 type  1   force =     0.00000000    0.00000000    0.02328638
     atom    2 type  1   force =     0.00000000    0.00000000   -0.02328638

     Total force =     0.032932     Total SCF correction =     0.000165

     total cpu time spent up to now is       43.6 secs

     Self-consistent Calculation

     iteration #  1     ecut=    35.00 Ry     beta= 0.70
     Davidson diagonalization with overlap
     ethr =  1.00E-06,  avg # of iterations =  1.0

     Threshold (ethr) on eigenvalues was too large:
     Diagonalizing with lowered threshold

     Davidson diagonalization with overlap
     ethr =  2.56E-10,  avg # of iterations =  1.0

     add environment contribution to local potential

     total cpu time spent up to now is       44.4 secs

     total energy              =    -575.48068600 Ry
     Harris-Foulkes estimate   =    -580.87890341 Ry
     estimated scf accuracy    <       0.00000010 Ry
     electrostatic embedding   =      -0.00000000 Ry
     correction to one-el term =       5.39821732 Ry

     iteration #  2     ecut=    35.00 Ry     beta= 0.70
     Davidson diagonalization with overlap
     ethr =  2.67E-10,  avg # of iterations =  3.0

     add environment contribution to local potential

     total cpu time spent up to now is       45.0 secs

     total energy              =    -575.48068453 Ry
     Harris-Foulkes estimate   =    -580.87878874 Ry
     estimated scf accuracy    <       0.00007486 Ry
     electrostatic embedding   =       0.00000000 Ry
     correction to one-el term =       5.39810070 Ry

     iteration #  3     ecut=    35.00 Ry     beta= 0.70
     Davidson diagonalization with overlap
     ethr =  2.67E-10,  avg # of iterations =  2.0

     add environment contribution to local potential

     total cpu time spent up to now is       45.6 secs

     total energy              =    -575.48068608 Ry
     Harris-Foulkes estimate   =    -580.87877156 Ry
     estimated scf accuracy    <       0.00000003 Ry
     electrostatic embedding   =      -0.00000000 Ry
     correction to one-el term =       5.39808547 Ry

     iteration #  4     ecut=    35.00 Ry     beta= 0.70
     Davidson diagonalization with overlap
     ethr =  6.87E-11,  avg # of iterations =  2.0

     total cpu time spent up to now is       46.1 secs

     End of self-consistent calculation

          k = 0.0000 0.0000 0.0000 (  7059 PWs)   bands (ev):

   -93.7123 -93.7020 -57.1411 -57.0707 -56.9991 -56.9991 -56.9689 -56.9689
    -7.8544  -7.3687  -7.2271  -6.4587  -5.7819  -5.7519  -5.7519  -4.9795
    -4.7939  -4.7939  -4.5999  -4.2236  -1.5321   0.1736   0.2361

     the Fermi energy is    -4.4653 ev

!    total energy              =    -575.48068608 Ry
     Harris-Foulkes estimate   =    -580.87889609 Ry
     estimated scf accuracy    <          1.9E-09 Ry

     The total energy is the sum of the following terms:

     one-electron contribution =   -5346.44500126 Ry
     hartree contribution      =    2664.92077982 Ry
     xc contribution           =     -54.31781792 Ry
     ewald contribution        =    2154.95128476 Ry
     smearing contrib. (-TS)   =       0.01185853 Ry
     electrostatic embedding   =      -0.00000000 Ry
     correction to one-el term =       5.39821001 Ry

     the Fermi energy shift due to the parabolic pbc-correction is    -0.4060 ev

     convergence has been achieved in   4 iterations


***************************************************

     Finished Charge convergence step :  10

     DFT Fermi level calculated as    -4.46532094

     Charge trapped in surface states:     0.00000000 e

     Charge Accuracy <     0.00000000

     Difference between bulk and DFT fermi:     0.32819506

     Now using DFT charge of:      0.00000000

***************************************************
     charge density from previous step

     add environment contribution to local potential

     Forces acting on atoms (cartesian axes, Ry/au):

     atom    1 type  1   force =     0.00000000    0.00000000    0.02326402
     atom    2 type  1   force =     0.00000000    0.00000000   -0.02326402

     Total force =     0.032900     Total SCF correction =     0.000446

     total cpu time spent up to now is       46.8 secs

     Self-consistent Calculation

     iteration #  1     ecut=    35.00 Ry     beta= 0.70
     Davidson diagonalization with overlap
     ethr =  1.00E-06,  avg # of iterations =  1.0

     Threshold (ethr) on eigenvalues was too large:
     Diagonalizing with lowered threshold

     Davidson diagonalization with overlap
     ethr =  2.46E-09,  avg # of iterations =  1.0

     add environment contribution to local potential

     total cpu time spent up to now is       47.6 secs

     total energy              =    -575.48068526 Ry
     Harris-Foulkes estimate   =    -580.87870353 Ry
     estimated scf accuracy    <       0.00000098 Ry
     electrostatic embedding   =      -0.00000000 Ry
     correction to one-el term =       5.39801742 Ry

     iteration #  2     ecut=    35.00 Ry     beta= 0.70
     Davidson diagonalization with overlap
     ethr =  2.57E-09,  avg # of iterations =  2.0

     add environment contribution to local potential

     total cpu time spent up to now is       48.2 secs

     total energy              =    -575.48067153 Ry
     Harris-Foulkes estimate   =    -580.87977954 Ry
     estimated scf accuracy    <       0.00069373 Ry
     electrostatic embedding   =       0.00000004 Ry
     correction to one-el term =       5.39907520 Ry

     iteration #  3     ecut=    35.00 Ry     beta= 0.70
     Davidson diagonalization with overlap
     ethr =  2.57E-09,  avg # of iterations =  2.0

     add environment contribution to local potential

     total cpu time spent up to now is       48.8 secs

     total energy              =    -575.48068602 Ry
     Harris-Foulkes estimate   =    -580.87950376 Ry
     estimated scf accuracy    <       0.00000070 Ry
     electrostatic embedding   =      -0.00000000 Ry
     correction to one-el term =       5.39881760 Ry

     iteration #  4     ecut=    35.00 Ry     beta= 0.70
     Davidson diagonalization with overlap
     ethr =  1.84E-09,  avg # of iterations =  2.0

     add environment contribution to local potential

     total cpu time spent up to now is       49.4 secs

     total energy              =    -575.48068608 Ry
     Harris-Foulkes estimate   =    -580.87885232 Ry
     estimated scf accuracy    <       0.00000001 Ry
     electrostatic embedding   =      -0.00000000 Ry
     correction to one-el term =       5.39816624 Ry

     iteration #  5     ecut=    35.00 Ry     beta= 0.70
     Davidson diagonalization with overlap
     ethr =  3.02E-11,  avg # of iterations =  2.0

     total cpu time spent up to now is       49.9 secs

     End of self-consistent calculation

          k = 0.0000 0.0000 0.0000 (  7059 PWs)   bands (ev):

   -93.7122 -93.7020 -57.1411 -57.0707 -56.9990 -56.9990 -56.9688 -56.9688
    -7.8543  -7.3686  -7.2270  -6.4587  -5.7818  -5.7519  -5.7519  -4.9795
    -4.7939  -4.7939  -4.5999  -4.2236  -1.5321   0.1736   0.2361

     the Fermi energy is    -4.4653 ev

!    total energy              =    -575.48068608 Ry
     Harris-Foulkes estimate   =    -580.87887886 Ry
     estimated scf accuracy    <          3.7E-11 Ry

     The total energy is the sum of the following terms:

     one-electron contribution =   -5346.44371641 Ry
     hartree contribution      =    2664.91945958 Ry
     xc contribution           =     -54.31776437 Ry
     ewald contribution        =    2154.95128476 Ry
     smearing contrib. (-TS)   =       0.01185758 Ry
     electrostatic embedding   =      -0.00000000 Ry
     correction to one-el term =       5.39819278 Ry

     the Fermi energy shift due to the parabolic pbc-correction is    -0.4060 ev

     convergence has been achieved in   5 iterations


***************************************************

     Finished Charge convergence step :  11

     DFT Fermi level calculated as    -4.46525880

     Charge trapped in surface states:     0.00000000 e

     Charge Accuracy <     0.00000000

     Difference between bulk and DFT fermi:     0.32819050

     Now using DFT charge of:      0.00000000

***************************************************
     charge density from previous step

     add environment contribution to local potential

     Forces acting on atoms (cartesian axes, Ry/au):

     atom    1 type  1   force =     0.00000000    0.00000000    0.02327060
     atom    2 type  1   force =     0.00000000    0.00000000   -0.02327060

     Total force =     0.032910     Total SCF correction =     0.000018

     total cpu time spent up to now is       50.6 secs

     Self-consistent Calculation

     iteration #  1     ecut=    35.00 Ry     beta= 0.70
     Davidson diagonalization with overlap
     ethr =  1.00E-06,  avg # of iterations =  1.0

     Threshold (ethr) on eigenvalues was too large:
     Diagonalizing with lowered threshold

     Davidson diagonalization with overlap
     ethr =  8.88E-13,  avg # of iterations =  1.0

     total cpu time spent up to now is       51.3 secs

     End of self-consistent calculation

          k = 0.0000 0.0000 0.0000 (  7059 PWs)   bands (ev):

   -93.7122 -93.7019 -57.1410 -57.0707 -56.9990 -56.9990 -56.9688 -56.9688
    -7.8543  -7.3686  -7.2270  -6.4586  -5.7818  -5.7519  -5.7519  -4.9794
    -4.7939  -4.7939  -4.5998  -4.2236  -1.5320   0.1736   0.2361

     the Fermi energy is    -4.4652 ev

!    total energy              =    -575.48068608 Ry
     Harris-Foulkes estimate   =    -580.87886488 Ry
     estimated scf accuracy    <          3.7E-10 Ry

     The total energy is the sum of the following terms:

     one-electron contribution =   -5346.44324723 Ry
     hartree contribution      =    2664.91898800 Ry
     xc contribution           =     -54.31774801 Ry
     ewald contribution        =    2154.95128476 Ry
     smearing contrib. (-TS)   =       0.01185760 Ry
     electrostatic embedding   =      -0.00000000 Ry
     correction to one-el term =       5.39817880 Ry

     the Fermi energy shift due to the parabolic pbc-correction is    -0.4060 ev

     convergence has been achieved in   1 iterations


***************************************************

     Finished Charge convergence step :  12

     DFT Fermi level calculated as    -4.46522140

     Charge trapped in surface states:     0.00000000 e

     Charge Accuracy <     0.00000000

     Difference between bulk and DFT fermi:     0.32818775

     Now using DFT charge of:      0.00000000

***************************************************
     charge density from previous step

     add environment contribution to local potential

     Forces acting on atoms (cartesian axes, Ry/au):

     atom    1 type  1   force =     0.00000000    0.00000000    0.02327925
     atom    2 type  1   force =     0.00000000    0.00000000   -0.02327925

     Total force =     0.032922     Total SCF correction =     0.000089

     total cpu time spent up to now is       52.0 secs

     Self-consistent Calculation

     iteration #  1     ecut=    35.00 Ry     beta= 0.70
     Davidson diagonalization with overlap
     ethr =  1.00E-06,  avg # of iterations =  1.0

     Threshold (ethr) on eigenvalues was too large:
     Diagonalizing with lowered threshold

     Davidson diagonalization with overlap
     ethr =  6.75E-10,  avg # of iterations =  1.0

     add environment contribution to local potential

     total cpu time spent up to now is       52.8 secs

     total energy              =    -575.48068585 Ry
     Harris-Foulkes estimate   =    -580.87892205 Ry
     estimated scf accuracy    <       0.00000027 Ry
     electrostatic embedding   =      -0.00000000 Ry
     correction to one-el term =       5.39823596 Ry

     iteration #  2     ecut=    35.00 Ry     beta= 0.70
     Davidson diagonalization with overlap
     ethr =  7.06E-10,  avg # of iterations =  3.0

     add environment contribution to local potential

     total cpu time spent up to now is       53.4 secs

     total energy              =    -575.48068192 Ry
     Harris-Foulkes estimate   =    -580.87871711 Ry
     estimated scf accuracy    <       0.00019469 Ry
     electrostatic embedding   =       0.00000001 Ry
     correction to one-el term =       5.39802597 Ry

     iteration #  3     ecut=    35.00 Ry     beta= 0.70
     Davidson diagonalization with overlap
     ethr =  7.06E-10,  avg # of iterations =  2.0

     add environment contribution to local potential

     total cpu time spent up to now is       54.0 secs

     total energy              =    -575.48068608 Ry
     Harris-Foulkes estimate   =    -580.87869512 Ry
     estimated scf accuracy    <       0.00000006 Ry
     electrostatic embedding   =      -0.00000000 Ry
     correction to one-el term =       5.39800903 Ry

     iteration #  4     ecut=    35.00 Ry     beta= 0.70
     Davidson diagonalization with overlap
     ethr =  1.65E-10,  avg # of iterations =  2.0

     total cpu time spent up to now is       54.4 secs

     End of self-consistent calculation

          k = 0.0000 0.0000 0.0000 (  7059 PWs)   bands (ev):

   -93.7122 -93.7020 -57.1411 -57.0707 -56.9991 -56.9991 -56.9688 -56.9688
    -7.8543  -7.3686  -7.2270  -6.4587  -5.7819  -5.7519  -5.7519  -4.9795
    -4.7939  -4.7939  -4.5999  -4.2236  -1.5321   0.1736   0.2361

     the Fermi energy is    -4.4653 ev

!    total energy              =    -575.48068608 Ry
     Harris-Foulkes estimate   =    -580.87888184 Ry
     estimated scf accuracy    <          4.8E-10 Ry

     The total energy is the sum of the following terms:

     one-electron contribution =   -5346.44410952 Ry
     hartree contribution      =    2664.91986433 Ry
     xc contribution           =     -54.31777959 Ry
     ewald contribution        =    2154.95128476 Ry
     smearing contrib. (-TS)   =       0.01185818 Ry
     electrostatic embedding   =      -0.00000000 Ry
     correction to one-el term =       5.39819576 Ry

     the Fermi energy shift due to the parabolic pbc-correction is    -0.4060 ev

     convergence has been achieved in   4 iterations


***************************************************

     Finished Charge convergence step :  13

     DFT Fermi level calculated as    -4.46527417

     Charge trapped in surface states:     0.00000000 e

     Charge Accuracy <     0.00000000

     Difference between bulk and DFT fermi:     0.32819163

     Now using DFT charge of:      0.00000000

***************************************************
     charge density from previous step

     add environment contribution to local potential

     Forces acting on atoms (cartesian axes, Ry/au):

     atom    1 type  1   force =     0.00000000    0.00000000    0.02325894
     atom    2 type  1   force =     0.00000000    0.00000000   -0.02325894

     Total force =     0.032893     Total SCF correction =     0.000245

     total cpu time spent up to now is       55.2 secs

     Self-consistent Calculation

     iteration #  1     ecut=    35.00 Ry     beta= 0.70
     Davidson diagonalization with overlap
     ethr =  1.00E-06,  avg # of iterations =  1.0

     Threshold (ethr) on eigenvalues was too large:
     Diagonalizing with lowered threshold

     Davidson diagonalization with overlap
     ethr =  1.03E-09,  avg # of iterations =  1.0

     add environment contribution to local potential

     total cpu time spent up to now is       55.9 secs

     total energy              =    -575.48068573 Ry
     Harris-Foulkes estimate   =    -580.87882138 Ry
     estimated scf accuracy    <       0.00000041 Ry
     electrostatic embedding   =      -0.00000000 Ry
     correction to one-el term =       5.39813529 Ry

     iteration #  2     ecut=    35.00 Ry     beta= 0.70
     Davidson diagonalization with overlap
     ethr =  1.08E-09,  avg # of iterations =  2.0

     add environment contribution to local potential

     total cpu time spent up to now is       56.5 secs

     total energy              =    -575.48067977 Ry
     Harris-Foulkes estimate   =    -580.87902005 Ry
     estimated scf accuracy    <       0.00030227 Ry
     electrostatic embedding   =       0.00000002 Ry
     correction to one-el term =       5.39832608 Ry

     iteration #  3     ecut=    35.00 Ry     beta= 0.70
     Davidson diagonalization with overlap
     ethr =  1.08E-09,  avg # of iterations =  3.0

     add environment contribution to local potential

     total cpu time spent up to now is       57.1 secs

     total energy              =    -575.48068607 Ry
     Harris-Foulkes estimate   =    -580.87906901 Ry
     estimated scf accuracy    <       0.00000008 Ry
     electrostatic embedding   =      -0.00000000 Ry
     correction to one-el term =       5.39838292 Ry

     iteration #  4     ecut=    35.00 Ry     beta= 0.70
     Davidson diagonalization with overlap
     ethr =  2.11E-10,  avg # of iterations =  2.0

     total cpu time spent up to now is       57.6 secs

     End of self-consistent calculation

          k = 0.0000 0.0000 0.0000 (  7059 PWs)   bands (ev):

   -93.7121 -93.7019 -57.1410 -57.0706 -56.9989 -56.9989 -56.9687 -56.9687
    -7.8542  -7.3686  -7.2270  -6.4586  -5.7818  -5.7518  -5.7518  -4.9794
    -4.7938  -4.7938  -4.5998  -4.2236  -1.5320   0.1736   0.2361

     the Fermi energy is    -4.4652 ev

!    total energy              =    -575.48068608 Ry
     Harris-Foulkes estimate   =    -580.87885337 Ry
     estimated scf accuracy    <          3.0E-09 Ry

     The total energy is the sum of the following terms:

     one-electron contribution =   -5346.44258358 Ry
     hartree contribution      =    2664.91830990 Ry
     xc contribution           =     -54.31772137 Ry
     ewald contribution        =    2154.95128476 Ry
     smearing contrib. (-TS)   =       0.01185692 Ry
     electrostatic embedding   =      -0.00000000 Ry
     correction to one-el term =       5.39816729 Ry

     the Fermi energy shift due to the parabolic pbc-correction is    -0.4060 ev

     convergence has been achieved in   4 iterations


***************************************************

     Finished Charge convergence step :  14

     DFT Fermi level calculated as    -4.46518629

     Charge trapped in surface states:     0.00000000 e

     Charge Accuracy <     0.00000000

     Difference between bulk and DFT fermi:     0.32818517

     Now using DFT charge of:      0.00000000

***************************************************
     charge density from previous step

     add environment contribution to local potential

     Forces acting on atoms (cartesian axes, Ry/au):

     atom    1 type  1   force =     0.00000000    0.00000000    0.02330947
     atom    2 type  1   force =     0.00000000    0.00000000   -0.02330947

     Total force =     0.032965     Total SCF correction =     0.000616

     total cpu time spent up to now is       58.4 secs

     Self-consistent Calculation

     iteration #  1     ecut=    35.00 Ry     beta= 0.70
     Davidson diagonalization with overlap
     ethr =  1.00E-06,  avg # of iterations =  2.0

     Threshold (ethr) on eigenvalues was too large:
     Diagonalizing with lowered threshold

     Davidson diagonalization with overlap
     ethr =  5.54E-09,  avg # of iterations =  1.0

     add environment contribution to local potential

     total cpu time spent up to now is       59.2 secs

     total energy              =    -575.48068422 Ry
     Harris-Foulkes estimate   =    -580.87901744 Ry
     estimated scf accuracy    <       0.00000220 Ry
     electrostatic embedding   =      -0.00000000 Ry
     correction to one-el term =       5.39833130 Ry

     iteration #  2     ecut=    35.00 Ry     beta= 0.70
     Davidson diagonalization with overlap
     ethr =  5.78E-09,  avg # of iterations =  3.0

     add environment contribution to local potential

     total cpu time spent up to now is       59.8 secs

     total energy              =    -575.48065233 Ry
     Harris-Foulkes estimate   =    -580.87812166 Ry
     estimated scf accuracy    <       0.00161986 Ry
     electrostatic embedding   =       0.00000010 Ry
     correction to one-el term =       5.39739313 Ry

     iteration #  3     ecut=    35.00 Ry     beta= 0.70
     Davidson diagonalization with overlap
     ethr =  5.78E-09,  avg # of iterations =  2.0

     add environment contribution to local potential

     total cpu time spent up to now is       60.4 secs

     total energy              =    -575.48068605 Ry
     Harris-Foulkes estimate   =    -580.87847442 Ry
     estimated scf accuracy    <       0.00000036 Ry
     electrostatic embedding   =      -0.00000000 Ry
     correction to one-el term =       5.39778830 Ry

     iteration #  4     ecut=    35.00 Ry     beta= 0.70
     Davidson diagonalization with overlap
     ethr =  9.43E-10,  avg # of iterations =  2.0

     add environment contribution to local potential

     total cpu time spent up to now is       61.0 secs

     total energy              =    -575.48068608 Ry
     Harris-Foulkes estimate   =    -580.87895671 Ry
     estimated scf accuracy    <       0.00000003 Ry
     electrostatic embedding   =      -0.00000000 Ry
     correction to one-el term =       5.39827062 Ry

     iteration #  5     ecut=    35.00 Ry     beta= 0.70
     Davidson diagonalization with overlap
     ethr =  7.10E-11,  avg # of iterations =  1.0

     total cpu time spent up to now is       61.4 secs

     End of self-consistent calculation

          k = 0.0000 0.0000 0.0000 (  7059 PWs)   bands (ev):

   -93.7122 -93.7020 -57.1411 -57.0707 -56.9990 -56.9990 -56.9688 -56.9688
    -7.8543  -7.3686  -7.2270  -6.4587  -5.7819  -5.7519  -5.7519  -4.9795
    -4.7939  -4.7939  -4.5999  -4.2236  -1.5321   0.1738   0.2363

     the Fermi energy is    -4.4653 ev

!    total energy              =    -575.48068608 Ry
     Harris-Foulkes estimate   =    -580.87887937 Ry
     estimated scf accuracy    <          1.9E-10 Ry

     The total energy is the sum of the following terms:

     one-electron contribution =   -5346.44417553 Ry
     hartree contribution      =    2664.91993757 Ry
     xc contribution           =     -54.31778417 Ry
     ewald contribution        =    2154.95128476 Ry
     smearing contrib. (-TS)   =       0.01185801 Ry
     electrostatic embedding   =      -0.00000000 Ry
     correction to one-el term =       5.39819329 Ry

     the Fermi energy shift due to the parabolic pbc-correction is    -0.4060 ev

     convergence has been achieved in   5 iterations


***************************************************

     Finished Charge convergence step :  15

     DFT Fermi level calculated as    -4.46527054

     Charge trapped in surface states:     0.00000000 e

     Charge Accuracy <     0.00000000

     Difference between bulk and DFT fermi:     0.32819136

     Now using DFT charge of:      0.00000000

***************************************************
     charge density from previous step

     add environment contribution to local potential

     Forces acting on atoms (cartesian axes, Ry/au):

     atom    1 type  1   force =     0.00000000    0.00000000    0.02328557
     atom    2 type  1   force =     0.00000000    0.00000000   -0.02328557

     Total force =     0.032931     Total SCF correction =     0.000117

     total cpu time spent up to now is       62.1 secs

     Self-consistent Calculation

     iteration #  1     ecut=    35.00 Ry     beta= 0.70
     Davidson diagonalization with overlap
     ethr =  1.00E-06,  avg # of iterations =  1.0

     Threshold (ethr) on eigenvalues was too large:
     Diagonalizing with lowered threshold

     Davidson diagonalization with overlap
     ethr =  3.24E-11,  avg # of iterations =  1.0

     add environment contribution to local potential

     total cpu time spent up to now is       62.9 secs

     total energy              =    -575.48068607 Ry
     Harris-Foulkes estimate   =    -580.87881106 Ry
     estimated scf accuracy    <       0.00000001 Ry
     electrostatic embedding   =      -0.00000000 Ry
     correction to one-el term =       5.39812497 Ry

     iteration #  2     ecut=    35.00 Ry     beta= 0.70
     Davidson diagonalization with overlap
     ethr =  3.37E-11,  avg # of iterations =  3.0

     add environment contribution to local potential

     total cpu time spent up to now is       63.5 secs

     total energy              =    -575.48068596 Ry
     Harris-Foulkes estimate   =    -580.87917612 Ry
     estimated scf accuracy    <       0.00000408 Ry
     electrostatic embedding   =      -0.00000000 Ry
     correction to one-el term =       5.39848992 Ry

     iteration #  3     ecut=    35.00 Ry     beta= 0.70
     Davidson diagonalization with overlap
     ethr =  3.37E-11,  avg # of iterations =  2.0

     add environment contribution to local potential

     total cpu time spent up to now is       64.1 secs

     total energy              =    -575.48068607 Ry
     Harris-Foulkes estimate   =    -580.87909140 Ry
     estimated scf accuracy    <       0.00000028 Ry
     electrostatic embedding   =      -0.00000000 Ry
     correction to one-el term =       5.39840531 Ry

     iteration #  4     ecut=    35.00 Ry     beta= 0.70
     Davidson diagonalization with overlap
     ethr =  3.37E-11,  avg # of iterations =  2.0

     total cpu time spent up to now is       64.6 secs

     End of self-consistent calculation

          k = 0.0000 0.0000 0.0000 (  7059 PWs)   bands (ev):

   -93.7122 -93.7019 -57.1410 -57.0707 -56.9990 -56.9990 -56.9688 -56.9688
    -7.8543  -7.3686  -7.2270  -6.4586  -5.7818  -5.7519  -5.7519  -4.9794
    -4.7939  -4.7939  -4.5998  -4.2236  -1.5320   0.1737   0.2362

     the Fermi energy is    -4.4652 ev

[...]
 ionic quadrupole (gauss)   =    -77.7353662   -77.7353662  -145.0580069
 ion   1 type =  1 coordinates =      2.7717630     2.7717630    18.8972600
 ion   2 type =  1 coordinates =      0.0000000     0.0000000    22.7403400

%%%% SYSTEM %%%%%%%%%%%%%%%%%%%%%%%%%%%%%%%%%%%%%%%%%%%%%%%%%%%%%%%%%%%%%%%%%%%%
 system is built from all present ionic types
 system defined dimension   =  2 
 system defined axis        =  3 
 system center              =      0.2500000     0.2500000     3.7555159 
 system width               =      0.3466278 

%%%% ELECTRONS %%%%%%%%%%%%%%%%%%%%%%%%%%%%%%%%%%%%%%%%%%%%%%%%%%%%%%%%%%%%%%%%%
 number of electrons        =         38
 total electronic charge    =     38.0000000
 number of spin components  =  1
 carrier density:    1.2499999999999999E-007
 xstern:    10.213699999999999     
 carrier density:    1.2499999999999999E-007
 charge:    5.1543868721285248E-011
 electric field:   -2.1077286491666534E-011
 Prefactor:    318309.88618379069     
 depletion length:   -1.3418217328451047E-005
 vms:    1.4140980541960352E-016
 vbound:   -1.9782671623318947E-004

%%%% ELECTRONS %%%%%%%%%%%%%%%%%%%%%%%%%%%%%%%%%%%%%%%%%%%%%%%%%%%%%%%%%%%%%%%%%
 number of electrons        =         38
 total electronic charge    =     38.0000000
 number of spin components  =  1
 carrier density:    1.2499999999999999E-007
 xstern:    10.213699999999999     
 carrier density:    1.2499999999999999E-007
 charge:   -2.5073690300075727E-011
 electric field:    1.0253117722220493E-011
 Prefactor:    318309.88618379069     
 depletion length:    6.5273374703780248E-006
 vms:    3.3462779748223404E-017
 vbound:   -1.9735417597595631E-004

%%%% ELECTRONS %%%%%%%%%%%%%%%%%%%%%%%%%%%%%%%%%%%%%%%%%%%%%%%%%%%%%%%%%%%%%%%%%
 number of electrons        =         38
 total electronic charge    =     38.0000000
 number of spin components  =  1
 carrier density:    1.2499999999999999E-007
 xstern:    10.213699999999999     
 carrier density:    1.2499999999999999E-007
 charge:   -2.5999545613354721E-011
 electric field:    1.0631717896633759E-011
 Prefactor:    318309.88618379069     
 depletion length:    6.7683618272313247E-006
 vms:    3.5979656784734019E-017
 vbound:   -1.9787115958085078E-004

%%%% ELECTRONS %%%%%%%%%%%%%%%%%%%%%%%%%%%%%%%%%%%%%%%%%%%%%%%%%%%%%%%%%%%%%%%%%
 number of electrons        =         38
 total electronic charge    =     38.0000000
 number of spin components  =  1
 carrier density:    1.2499999999999999E-007
 xstern:    10.213699999999999     
 carrier density:    1.2499999999999999E-007
 charge:   -2.2618665466446589E-011
 electric field:    9.2492105059740553E-012
 Prefactor:    318309.88618379069     
 depletion length:    5.8882302868930452E-006
 vms:    2.7230740715562893E-017
 vbound:   -1.9778842669324994E-004

%%%% ELECTRONS %%%%%%%%%%%%%%%%%%%%%%%%%%%%%%%%%%%%%%%%%%%%%%%%%%%%%%%%%%%%%%%%%
 number of electrons        =         38
 total electronic charge    =     38.0000000
 number of spin components  =  1
 cur_chg:    0.0000000000000000     
 prev_chg:    0.0000000000000000     
 cur_dchg:   0.32818977417328365     
 prev_dchg:   0.32818621695997435     
 Using gamma of    0.0000000000000000     
 DFT_min    0.0000000000000000     
 DFT_max    0.0000000000000000     
 Convergeable?  F

%%%% IONS %%%%%%%%%%%%%%%%%%%%%%%%%%%%%%%%%%%%%%%%%%%%%%%%%%%%%%%%%%%%%%%%%%%%%%
 number of ions             =          2
 ionic center of charge     =      0.2500000     0.2500000     3.7555159
 total ionic charge         =    -38.0000000
 ionic dipole               =      0.0000000     0.0000000     0.0000000
 ionic quadrupole (pc)      =    -72.9853662   -72.9853662  -140.3080069
 ionic quadrupole (gauss)   =    -77.7353662   -77.7353662  -145.0580069
 ion   1 type =  1 coordinates =      2.7717630     2.7717630    18.8972600
 ion   2 type =  1 coordinates =      0.0000000     0.0000000    22.7403400

%%%% SYSTEM %%%%%%%%%%%%%%%%%%%%%%%%%%%%%%%%%%%%%%%%%%%%%%%%%%%%%%%%%%%%%%%%%%%%
 system is built from all present ionic types
 system defined dimension   =  2 
 system defined axis        =  3 
 system center              =      0.2500000     0.2500000     3.7555159 
 system width               =      0.3466278 

%%%% ELECTRONS %%%%%%%%%%%%%%%%%%%%%%%%%%%%%%%%%%%%%%%%%%%%%%%%%%%%%%%%%%%%%%%%%
 number of electrons        =         38
 total electronic charge    =     38.0000000
 number of spin components  =  1
 carrier density:    1.2499999999999999E-007
 xstern:    10.213699999999999     
 carrier density:    1.2499999999999999E-007
 charge:   -6.8818492834913753E-011
 electric field:    2.8141214957098962E-011
 Prefactor:    318309.88618379069     
 depletion length:    1.7915253860135516E-005
 vms:    2.5207850494453526E-016
 vbound:   -1.9789493695043653E-004

%%%% ELECTRONS %%%%%%%%%%%%%%%%%%%%%%%%%%%%%%%%%%%%%%%%%%%%%%%%%%%%%%%%%%%%%%%%%
 number of electrons        =         38
 total electronic charge    =     38.0000000
 number of spin components  =  1
 carrier density:    1.2499999999999999E-007
 xstern:    10.213699999999999     
 carrier density:    1.2499999999999999E-007
 charge:    1.9550197348369274E-011
 electric field:   -7.9944544463352368E-012
 Prefactor:    318309.88618379069     
 depletion length:   -5.0894277698289371E-006
 vms:    2.0343599231905488E-017
 vbound:   -1.9605286422579732E-004

%%%% ELECTRONS %%%%%%%%%%%%%%%%%%%%%%%%%%%%%%%%%%%%%%%%%%%%%%%%%%%%%%%%%%%%%%%%%
 number of electrons        =         38
 total electronic charge    =     38.0000000
 number of spin components  =  1
 carrier density:    1.2499999999999999E-007
 xstern:    10.213699999999999     
 carrier density:    1.2499999999999999E-007
 charge:    2.0021482450153888E-011
 electric field:   -8.1871720547724659E-012
 Prefactor:    318309.88618379069     
 depletion length:   -5.2121156098434710E-006
 vms:    2.1336243633576907E-017
 vbound:   -1.9771535596789573E-004

%%%% ELECTRONS %%%%%%%%%%%%%%%%%%%%%%%%%%%%%%%%%%%%%%%%%%%%%%%%%%%%%%%%%%%%%%%%%
 number of electrons        =         38
 total electronic charge    =     38.0000000
 number of spin components  =  1
 carrier density:    1.2499999999999999E-007
 xstern:    10.213699999999999     
 carrier density:    1.2499999999999999E-007
 charge:    3.6285696051637359E-011
 electric field:   -1.4837924086867481E-011
 Prefactor:    318309.88618379069     
 depletion length:   -9.4461158545890286E-006
 vms:    7.0080374983073674E-017
 vbound:   -1.9779617532837454E-004

%%%% ELECTRONS %%%%%%%%%%%%%%%%%%%%%%%%%%%%%%%%%%%%%%%%%%%%%%%%%%%%%%%%%%%%%%%%%
 number of electrons        =         38
 total electronic charge    =     38.0000000
 number of spin components  =  1
 cur_chg:    0.0000000000000000     
 prev_chg:    0.0000000000000000     
 cur_dchg:   0.32818606396723926     
 prev_dchg:   0.32818977417328365     
 Using gamma of   -0.0000000000000000     
 DFT_min    0.0000000000000000     
 DFT_max    0.0000000000000000     
 Convergeable?  F

%%%% IONS %%%%%%%%%%%%%%%%%%%%%%%%%%%%%%%%%%%%%%%%%%%%%%%%%%%%%%%%%%%%%%%%%%%%%%
 number of ions             =          2
 ionic center of charge     =      0.2500000     0.2500000     3.7555159
 total ionic charge         =    -38.0000000
 ionic dipole               =      0.0000000     0.0000000     0.0000000
 ionic quadrupole (pc)      =    -72.9853662   -72.9853662  -140.3080069
 ionic quadrupole (gauss)   =    -77.7353662   -77.7353662  -145.0580069
 ion   1 type =  1 coordinates =      2.7717630     2.7717630    18.8972600
 ion   2 type =  1 coordinates =      0.0000000     0.0000000    22.7403400

%%%% SYSTEM %%%%%%%%%%%%%%%%%%%%%%%%%%%%%%%%%%%%%%%%%%%%%%%%%%%%%%%%%%%%%%%%%%%%
 system is built from all present ionic types
 system defined dimension   =  2 
 system defined axis        =  3 
 system center              =      0.2500000     0.2500000     3.7555159 
 system width               =      0.3466278 

%%%% ELECTRONS %%%%%%%%%%%%%%%%%%%%%%%%%%%%%%%%%%%%%%%%%%%%%%%%%%%%%%%%%%%%%%%%%
 number of electrons        =         38
 total electronic charge    =     38.0000000
 number of spin components  =  1
 carrier density:    1.2499999999999999E-007
 xstern:    10.213699999999999     
 carrier density:    1.2499999999999999E-007
 charge:    5.1118524775359144E-011
 electric field:   -2.0903355111888707E-011
 Prefactor:    318309.88618379069     
 depletion length:   -1.3307489173049306E-005
 vms:    1.3908558591593192E-016
 vbound:   -1.9782532285074459E-004

%%%% ELECTRONS %%%%%%%%%%%%%%%%%%%%%%%%%%%%%%%%%%%%%%%%%%%%%%%%%%%%%%%%%%%%%%%%%
 number of electrons        =         38
 total electronic charge    =     38.0000000
 number of spin components  =  1
 carrier density:    1.2499999999999999E-007
 xstern:    10.213699999999999     
 carrier density:    1.2499999999999999E-007
 charge:    5.1132128754320188E-011
 electric field:   -2.0908918042438971E-011
 Prefactor:    318309.88618379069     
 depletion length:   -1.3311030644629912E-005
 vms:    1.3915962440448022E-016
 vbound:   -1.9754852192064261E-004

%%%% ELECTRONS %%%%%%%%%%%%%%%%%%%%%%%%%%%%%%%%%%%%%%%%%%%%%%%%%%%%%%%%%%%%%%%%%
 number of electrons        =         38
 total electronic charge    =     38.0000000
 number of spin components  =  1
 carrier density:    1.2499999999999999E-007
 xstern:    10.213699999999999     
 carrier density:    1.2499999999999999E-007
 charge:    4.8417211466840315E-011
 electric field:   -1.9798735766855127E-011
 Prefactor:    318309.88618379069     
 depletion length:   -1.2604266657061203E-005
 vms:    1.2477427253906858E-016
 vbound:   -1.9793965654868302E-004

%%%% ELECTRONS %%%%%%%%%%%%%%%%%%%%%%%%%%%%%%%%%%%%%%%%%%%%%%%%%%%%%%%%%%%%%%%%%
 number of electrons        =         38
 total electronic charge    =     38.0000000
 number of spin components  =  1
 carrier density:    1.2499999999999999E-007
 xstern:    10.213699999999999     
 carrier density:    1.2499999999999999E-007
 charge:    4.3214117006973072E-011
 electric field:   -1.7671089641438515E-011
 Prefactor:    318309.88618379069     
 depletion length:   -1.1249765065019712E-005
 vms:    9.9397803454543364E-017
 vbound:   -1.9778077356807228E-004

%%%% ELECTRONS %%%%%%%%%%%%%%%%%%%%%%%%%%%%%%%%%%%%%%%%%%%%%%%%%%%%%%%%%%%%%%%%%
 number of electrons        =         38
 total electronic charge    =     38.0000000
 number of spin components  =  1
 cur_chg:    0.0000000000000000     
 prev_chg:    0.0000000000000000     
 cur_dchg:   0.32819011548308152     
 prev_dchg:   0.32818606396723926     
 Using gamma of    0.0000000000000000     
 DFT_min    0.0000000000000000     
 DFT_max    0.0000000000000000     
 Convergeable?  F

%%%% IONS %%%%%%%%%%%%%%%%%%%%%%%%%%%%%%%%%%%%%%%%%%%%%%%%%%%%%%%%%%%%%%%%%%%%%%
 number of ions             =          2
 ionic center of charge     =      0.2500000     0.2500000     3.7555159
 total ionic charge         =    -38.0000000
 ionic dipole               =      0.0000000     0.0000000     0.0000000
 ionic quadrupole (pc)      =    -72.9853662   -72.9853662  -140.3080069
 ionic quadrupole (gauss)   =    -77.7353662   -77.7353662  -145.0580069
 ion   1 type =  1 coordinates =      2.7717630     2.7717630    18.8972600
 ion   2 type =  1 coordinates =      0.0000000     0.0000000    22.7403400

%%%% SYSTEM %%%%%%%%%%%%%%%%%%%%%%%%%%%%%%%%%%%%%%%%%%%%%%%%%%%%%%%%%%%%%%%%%%%%
 system is built from all present ionic types
 system defined dimension   =  2 
 system defined axis        =  3 
 system center              =      0.2500000     0.2500000     3.7555159 
 system width               =      0.3466278 

%%%% ELECTRONS %%%%%%%%%%%%%%%%%%%%%%%%%%%%%%%%%%%%%%%%%%%%%%%%%%%%%%%%%%%%%%%%%
 number of electrons        =         38
 total electronic charge    =     38.0000000
 number of spin components  =  1
 carrier density:    1.2499999999999999E-007
 xstern:    10.213699999999999     
 carrier density:    1.2499999999999999E-007
 charge:   -4.9776746810546344E-011
 electric field:    2.0354676107495582E-011
 Prefactor:    318309.88618379069     
 depletion length:    1.2958189270169685E-005
 vms:    1.3187987276696425E-016
 vbound:   -1.9796034340373596E-004

%%%% ELECTRONS %%%%%%%%%%%%%%%%%%%%%%%%%%%%%%%%%%%%%%%%%%%%%%%%%%%%%%%%%%%%%%%%%
 number of electrons        =         38
 total electronic charge    =     38.0000000
 number of spin components  =  1
 carrier density:    1.2499999999999999E-007
 xstern:    10.213699999999999     
 carrier density:    1.2499999999999999E-007
 charge:   -6.7660770663256729E-012
 electric field:    2.7667799932283550E-012
 Prefactor:    318309.88618379069     
 depletion length:    1.7613868494802137E-006
 vms:    2.4366849477386899E-018
 vbound:   -1.9496445575459145E-004

%%%% ELECTRONS %%%%%%%%%%%%%%%%%%%%%%%%%%%%%%%%%%%%%%%%%%%%%%%%%%%%%%%%%%%%%%%%%
 number of electrons        =         38
 total electronic charge    =     38.0000000
 number of spin components  =  1
 carrier density:    1.2499999999999999E-007
 xstern:    10.213699999999999     
 carrier density:    1.2499999999999999E-007
 charge:   -6.2220299917105213E-012
 electric field:    2.5443086044658493E-012
 Prefactor:    318309.88618379069     
 depletion length:    1.6197571646079276E-006
 vms:    2.0605810455285787E-018
 vbound:   -1.9765007213796152E-004

%%%% ELECTRONS %%%%%%%%%%%%%%%%%%%%%%%%%%%%%%%%%%%%%%%%%%%%%%%%%%%%%%%%%%%%%%%%%
 number of electrons        =         38
 total electronic charge    =     38.0000000
 number of spin components  =  1
 carrier density:    1.2499999999999999E-007
 xstern:    10.213699999999999     
 carrier density:    1.2499999999999999E-007
 charge:   -1.5389936622681812E-012
 electric field:    6.2932432378887809E-013
 Prefactor:    318309.88618379069     
 depletion length:    4.0064030775585765E-007
 vms:    1.2606634538051156E-019
 vbound:   -1.9777742036172929E-004

%%%% ELECTRONS %%%%%%%%%%%%%%%%%%%%%%%%%%%%%%%%%%%%%%%%%%%%%%%%%%%%%%%%%%%%%%%%%
 number of electrons        =         38
 total electronic charge    =     38.0000000
 number of spin components  =  1
 cur_chg:    0.0000000000000000     
 prev_chg:    0.0000000000000000     
 cur_dchg:   0.32818062338698523     
 prev_dchg:   0.32819011548308152     
 Using gamma of   -0.0000000000000000     
 DFT_min    0.0000000000000000     
 DFT_max    0.0000000000000000     
 Convergeable?  F

%%%% IONS %%%%%%%%%%%%%%%%%%%%%%%%%%%%%%%%%%%%%%%%%%%%%%%%%%%%%%%%%%%%%%%%%%%%%%
 number of ions             =          2
 ionic center of charge     =      0.2500000     0.2500000     3.7555159
 total ionic charge         =    -38.0000000
 ionic dipole               =      0.0000000     0.0000000     0.0000000
 ionic quadrupole (pc)      =    -72.9853662   -72.9853662  -140.3080069
 ionic quadrupole (gauss)   =    -77.7353662   -77.7353662  -145.0580069
 ion   1 type =  1 coordinates =      2.7717630     2.7717630    18.8972600
 ion   2 type =  1 coordinates =      0.0000000     0.0000000    22.7403400

%%%% SYSTEM %%%%%%%%%%%%%%%%%%%%%%%%%%%%%%%%%%%%%%%%%%%%%%%%%%%%%%%%%%%%%%%%%%%%
 system is built from all present ionic types
 system defined dimension   =  2 
 system defined axis        =  3 
 system center              =      0.2500000     0.2500000     3.7555159 
 system width               =      0.3466278 

%%%% ELECTRONS %%%%%%%%%%%%%%%%%%%%%%%%%%%%%%%%%%%%%%%%%%%%%%%%%%%%%%%%%%%%%%%%%
 number of electrons        =         38
 total electronic charge    =     38.0000000
 number of spin components  =  1
 carrier density:    1.2499999999999999E-007
 xstern:    10.213699999999999     
 carrier density:    1.2499999999999999E-007
 charge:   -6.2547636524609123E-011
 electric field:    2.5576940325036190E-011
 Prefactor:    318309.88618379069     
 depletion length:    1.6282785927583753E-005
 vms:    2.0823192199757432E-016
 vbound:   -1.9798250125674746E-004

%%%% ELECTRONS %%%%%%%%%%%%%%%%%%%%%%%%%%%%%%%%%%%%%%%%%%%%%%%%%%%%%%%%%%%%%%%%%
 number of electrons        =         38
 total electronic charge    =     38.0000000
 number of spin components  =  1
 carrier density:    1.2499999999999999E-007
 xstern:    10.213699999999999     
 carrier density:    1.2499999999999999E-007
 charge:    3.9259439432104393E-012
 electric field:   -1.6053945366172762E-012
 Prefactor:    318309.88618379069     
 depletion length:   -1.0220259044614492E-006
 vms:    8.2037740165187046E-019
 vbound:   -1.9480673025246709E-004

%%%% ELECTRONS %%%%%%%%%%%%%%%%%%%%%%%%%%%%%%%%%%%%%%%%%%%%%%%%%%%%%%%%%%%%%%%%%
 number of electrons        =         38
 total electronic charge    =     38.0000000
 number of spin components  =  1
 carrier density:    1.2499999999999999E-007
 xstern:    10.213699999999999     
 carrier density:    1.2499999999999999E-007
 charge:    3.1822086782675602E-012
 electric field:   -1.3012667782233249E-012
 Prefactor:    318309.88618379069     
 depletion length:   -8.2841216014202905E-007
 vms:    5.3899261133452154E-019
 vbound:   -1.9770853450113484E-004

%%%% ELECTRONS %%%%%%%%%%%%%%%%%%%%%%%%%%%%%%%%%%%%%%%%%%%%%%%%%%%%%%%%%%%%%%%%%
 number of electrons        =         38
 total electronic charge    =     38.0000000
 number of spin components  =  1
 carrier density:    1.2499999999999999E-007
 xstern:    10.213699999999999     
 carrier density:    1.2499999999999999E-007
 charge:   -5.8766900879293763E-012
 electric field:    2.4030924274582836E-012
 Prefactor:    318309.88618379069     
 depletion length:    1.5298561541467511E-006
 vms:    1.8381928695652551E-018
 vbound:   -1.9771863117596283E-004

%%%% ELECTRONS %%%%%%%%%%%%%%%%%%%%%%%%%%%%%%%%%%%%%%%%%%%%%%%%%%%%%%%%%%%%%%%%%
 number of electrons        =         38
 total electronic charge    =     38.0000000
 number of spin components  =  1
 carrier density:    1.2499999999999999E-007
 xstern:    10.213699999999999     
 carrier density:    1.2499999999999999E-007
 charge:   -5.4992777455293621E-012
 electric field:    2.2487612089525399E-012
 Prefactor:    318309.88618379069     
 depletion length:    1.4316058489524130E-006
 vms:    1.6096698498168779E-018
 vbound:   -1.9779633065449931E-004

%%%% ELECTRONS %%%%%%%%%%%%%%%%%%%%%%%%%%%%%%%%%%%%%%%%%%%%%%%%%%%%%%%%%%%%%%%%%
 number of electrons        =         38
 total electronic charge    =     38.0000000
 number of spin components  =  1
 cur_chg:    0.0000000000000000     
 prev_chg:    0.0000000000000000     
 cur_dchg:   0.32819030033898589     
 prev_dchg:   0.32818062338698523     
 Using gamma of    0.0000000000000000     
 DFT_min    0.0000000000000000     
 DFT_max    0.0000000000000000     
 Convergeable?  F

%%%% IONS %%%%%%%%%%%%%%%%%%%%%%%%%%%%%%%%%%%%%%%%%%%%%%%%%%%%%%%%%%%%%%%%%%%%%%
 number of ions             =          2
 ionic center of charge     =      0.2500000     0.2500000     3.7555159
 total ionic charge         =    -38.0000000
 ionic dipole               =      0.0000000     0.0000000     0.0000000
 ionic quadrupole (pc)      =    -72.9853662   -72.9853662  -140.3080069
 ionic quadrupole (gauss)   =    -77.7353662   -77.7353662  -145.0580069
 ion   1 type =  1 coordinates =      2.7717630     2.7717630    18.8972600
 ion   2 type =  1 coordinates =      0.0000000     0.0000000    22.7403400

%%%% SYSTEM %%%%%%%%%%%%%%%%%%%%%%%%%%%%%%%%%%%%%%%%%%%%%%%%%%%%%%%%%%%%%%%%%%%%
 system is built from all present ionic types
 system defined dimension   =  2 
 system defined axis        =  3 
 system center              =      0.2500000     0.2500000     3.7555159 
 system width               =      0.3466278 

%%%% ELECTRONS %%%%%%%%%%%%%%%%%%%%%%%%%%%%%%%%%%%%%%%%%%%%%%%%%%%%%%%%%%%%%%%%%
 number of electrons        =         38
 total electronic charge    =     38.0000000
 number of spin components  =  1
 carrier density:    1.2499999999999999E-007
 xstern:    10.213699999999999     
 carrier density:    1.2499999999999999E-007
 charge:    7.5896297953536528E-011
 electric field:   -3.1035466590092726E-011
 Prefactor:    318309.88618379069     
 depletion length:   -1.9757791675906509E-005
 vms:    3.0659614172580426E-016
 vbound:   -1.9779141971874636E-004
