
     Program PWSCF v.6.5 starts on  6Jul2020 at 13:55: 7 

     This program is part of the open-source Quantum ESPRESSO suite
     for quantum simulation of materials; please cite
         "P. Giannozzi et al., J. Phys.:Condens. Matter 21 395502 (2009);
         "P. Giannozzi et al., J. Phys.:Condens. Matter 29 465901 (2017);
          URL http://www.quantum-espresso.org", 
     in publications or presentations arising from this work. More details at
     http://www.quantum-espresso.org/quote

     Parallel version (MPI), running on     1 processors

     MPI processes distributed on     1 nodes
     Reading input from pw.in
Warning: card  &IONS ignored
Warning: card     ION_DYNAMICS = 'BFGS', ignored
Warning: card  / ignored

     Current dimensions of program PWSCF are:
     Max number of different atomic species (ntypx) = 10
     Max number of k-points (npk) =  40000
     Max angular momentum in pseudopotentials (lmaxx) =  3

     Subspace diagonalization in iterative solution of the eigenvalue problem:
     a serial algorithm will be used

     Message from routine setup:
     no reason to have ecutrho>4*ecutwfc
     Message from routine setup:
     using ibrav=0 with symmetry is DISCOURAGED, use correct ibrav instead

     G-vector sticks info
     --------------------
     sticks:   dense  smooth     PW     G-vecs:    dense   smooth      PW
     Sum         861     341     89               221431    56001    7059



     bravais-lattice index     =            0
     lattice parameter (alat)  =       5.5435  a.u.
     unit-cell volume          =    2000.1211 (a.u.)^3
     number of atoms/cell      =            2
     number of atomic types    =            1
     number of electrons       =        38.00
     number of Kohn-Sham states=           23
     kinetic-energy cutoff     =      35.0000  Ry
     charge density cutoff     =     350.0000  Ry
     convergence threshold     =      5.0E-09
     mixing beta               =       0.7000
     number of iterations used =            8  plain     mixing
     Exchange-correlation= PBE
                           (   1   4   3   4   0   0   0)


     Environ Module
     ==============

     Plese cite
         O. Andreussi, I. Dabo and N. Marzari, J. Chem. Phys. 136, 064102 (2012)         
     in publications or presentations arising from this work.

     compensation onset threshold      =               0.1000E+00 

     Electrostatic Setup
     -------------------
     electrostatic problem to solve    = poisson                  
     numerical solver adopted          = direct                   
     type of auxiliary density adopted = none                     
     type of core tool for poisson     = fft                      
     type of core tool for s(r) deriv  = analytic                 



     celldm(1)=   5.543526  celldm(2)=   0.000000  celldm(3)=   0.000000
     celldm(4)=   0.000000  celldm(5)=   0.000000  celldm(6)=   0.000000

     crystal axes: (cart. coord. in units of alat)
               a(1) = (   1.000000   0.000000   0.000000 )  
               a(2) = (   0.000000   1.000000   0.000000 )  
               a(3) = (   0.000000   0.000000  11.740809 )  

     reciprocal axes: (cart. coord. in units 2 pi/alat)
               b(1) = (  1.000000  0.000000  0.000000 )  
               b(2) = (  0.000000  1.000000  0.000000 )  
               b(3) = (  0.000000  0.000000  0.085173 )  


     PseudoPot. # 1 for Ag read from file:
     /Users/qcampbe/espresso/pseudo/Ag_ONCV_PBE-1.0.upf
     MD5 check sum: 94f47bd0669c641108e45594df92fabc
     Pseudo is Norm-conserving, Zval = 19.0
     Generated using ONCVPSP code by D. R. Hamann
     Using radial grid of 1398 points,  6 beta functions with: 
                l(1) =   0
                l(2) =   0
                l(3) =   1
                l(4) =   1
                l(5) =   2
                l(6) =   2

     atomic species   valence    mass     pseudopotential
        Ag            19.00   107.86800     Ag( 1.00)

      8 Sym. Ops. (no inversion) found



   Cartesian axes

     site n.     atom                  positions (alat units)
         1           Ag  tau(   1) = (   0.5000000   0.5000000   3.4088881  )
         2           Ag  tau(   2) = (   0.0000000   0.0000000   4.1021437  )

     number of k points=     1  Marzari-Vanderbilt smearing, width (Ry)=  0.0200
                       cart. coord. in units 2pi/alat
        k(    1) = (   0.0000000   0.0000000   0.0000000), wk =   2.0000000

     Dense  grid:   221431 G-vectors     FFT dimensions: (  36,  36, 400)

     Smooth grid:    56001 G-vectors     FFT dimensions: (  24,  24, 250)

     Estimated max dynamical RAM per process >     154.06 MB

     Initial potential from superposition of free atoms

     starting charge   37.99942, renormalised to   37.99700

     negative rho (up, down):  8.833E-07 0.000E+00
     Starting wfcs are   20 randomized atomic wfcs +    3 random wfcs

     total cpu time spent up to now is        2.1 secs

     Self-consistent Calculation

     iteration #  1     ecut=    35.00 Ry     beta= 0.70
     Davidson diagonalization with overlap
     ethr =  1.00E-02,  avg # of iterations =  8.0

     total cpu time spent up to now is        3.0 secs

     total energy              =    -574.69257510 Ry
     Harris-Foulkes estimate   =    -575.01373550 Ry
     estimated scf accuracy    <       0.43323904 Ry
     electrostatic embedding   =       0.00008953 Ry
     correction to one-el term =       0.00000000 Ry

     iteration #  2     ecut=    35.00 Ry     beta= 0.70
     Davidson diagonalization with overlap
     ethr =  1.14E-03,  avg # of iterations =  5.0

     negative rho (up, down):  5.537E-05 0.000E+00

     total cpu time spent up to now is        3.9 secs

     total energy              =    -574.32308355 Ry
     Harris-Foulkes estimate   =    -575.30536159 Ry
     estimated scf accuracy    <       3.52202786 Ry
     electrostatic embedding   =       0.00008953 Ry
     correction to one-el term =       0.00000000 Ry

     iteration #  3     ecut=    35.00 Ry     beta= 0.70
     Davidson diagonalization with overlap
     ethr =  1.14E-03,  avg # of iterations =  3.0

     negative rho (up, down):  5.902E-06 0.000E+00

     total cpu time spent up to now is        4.8 secs

     total energy              =    -574.88085230 Ry
     Harris-Foulkes estimate   =    -574.91493806 Ry
     estimated scf accuracy    <       0.14973217 Ry
     electrostatic embedding   =       0.00008953 Ry
     correction to one-el term =       0.00000000 Ry

     iteration #  4     ecut=    35.00 Ry     beta= 0.70
     Davidson diagonalization with overlap
     ethr =  3.94E-04,  avg # of iterations =  1.0

     negative rho (up, down):  1.198E-08 0.000E+00

     add environment contribution to local potential

     total cpu time spent up to now is        7.6 secs

     total energy              =    -574.87247602 Ry
     Harris-Foulkes estimate   =    -574.88596061 Ry
     estimated scf accuracy    <       0.05962086 Ry
     electrostatic embedding   =       0.00008953 Ry
     correction to one-el term =       0.00000000 Ry

     iteration #  5     ecut=    35.00 Ry     beta= 0.70
     Davidson diagonalization with overlap
     ethr =  1.57E-04,  avg # of iterations =  5.0

     negative rho (up, down):  1.709E-08 0.000E+00

     add environment contribution to local potential

     total cpu time spent up to now is       10.2 secs

     total energy              =    -574.87025745 Ry
     Harris-Foulkes estimate   =    -598.98905742 Ry
     estimated scf accuracy    <       0.05448223 Ry
     electrostatic embedding   =       0.00128146 Ry
     correction to one-el term =      24.11318250 Ry

     iteration #  6     ecut=    35.00 Ry     beta= 0.70
     Davidson diagonalization with overlap
     ethr =  1.43E-04,  avg # of iterations =  1.0

     add environment contribution to local potential

     total cpu time spent up to now is       13.0 secs

     total energy              =    -574.86322312 Ry
     Harris-Foulkes estimate   =    -598.94438940 Ry
     estimated scf accuracy    <       0.02705992 Ry
     electrostatic embedding   =       0.00127399 Ry
     correction to one-el term =      24.07094141 Ry

     iteration #  7     ecut=    35.00 Ry     beta= 0.70
     Davidson diagonalization with overlap
     ethr =  7.12E-05,  avg # of iterations =  6.0

     add environment contribution to local potential

     total cpu time spent up to now is       16.0 secs

     total energy              =    -574.86589498 Ry
     Harris-Foulkes estimate   =    -598.46127273 Ry
     estimated scf accuracy    <       0.00136043 Ry
     electrostatic embedding   =       0.00123552 Ry
     correction to one-el term =      23.59393716 Ry

     iteration #  8     ecut=    35.00 Ry     beta= 0.70
     Davidson diagonalization with overlap
     ethr =  3.58E-06,  avg # of iterations =  8.0

     add environment contribution to local potential

     total cpu time spent up to now is       18.9 secs

     total energy              =    -574.86592439 Ry
     Harris-Foulkes estimate   =    -598.41536453 Ry
     estimated scf accuracy    <       0.00034481 Ry
     electrostatic embedding   =       0.00123191 Ry
     correction to one-el term =      23.54814729 Ry

     iteration #  9     ecut=    35.00 Ry     beta= 0.70
     Davidson diagonalization with overlap
     ethr =  9.07E-07,  avg # of iterations =  4.0

     add environment contribution to local potential

     total cpu time spent up to now is       21.8 secs

     total energy              =    -574.86592887 Ry
     Harris-Foulkes estimate   =    -598.41795820 Ry
     estimated scf accuracy    <       0.00005256 Ry
     electrostatic embedding   =       0.00123213 Ry
     correction to one-el term =      23.55077946 Ry

     iteration # 10     ecut=    35.00 Ry     beta= 0.70
     Davidson diagonalization with overlap
     ethr =  1.38E-07,  avg # of iterations =  2.0

     add environment contribution to local potential

     total cpu time spent up to now is       24.9 secs

     total energy              =    -574.86593620 Ry
     Harris-Foulkes estimate   =    -598.41931007 Ry
     estimated scf accuracy    <       0.00000658 Ry
     electrostatic embedding   =       0.00123219 Ry
     correction to one-el term =      23.55213888 Ry

     iteration # 11     ecut=    35.00 Ry     beta= 0.70
     Davidson diagonalization with overlap
     ethr =  1.73E-08,  avg # of iterations =  2.0

     add environment contribution to local potential

     total cpu time spent up to now is       27.8 secs

     total energy              =    -574.86593749 Ry
     Harris-Foulkes estimate   =    -598.41863625 Ry
     estimated scf accuracy    <       0.00001655 Ry
     electrostatic embedding   =       0.00123214 Ry
     correction to one-el term =      23.55146483 Ry

     iteration # 12     ecut=    35.00 Ry     beta= 0.70
     Davidson diagonalization with overlap
     ethr =  1.73E-08,  avg # of iterations =  1.0

     add environment contribution to local potential

     total cpu time spent up to now is       30.6 secs

     total energy              =    -574.86593768 Ry
     Harris-Foulkes estimate   =    -598.41688420 Ry
     estimated scf accuracy    <       0.00000310 Ry
     electrostatic embedding   =       0.00123200 Ry
     correction to one-el term =      23.54971398 Ry

     iteration # 13     ecut=    35.00 Ry     beta= 0.70
     Davidson diagonalization with overlap
     ethr =  8.15E-09,  avg # of iterations =  2.0

     add environment contribution to local potential

     total cpu time spent up to now is       33.6 secs

     total energy              =    -574.86593796 Ry
     Harris-Foulkes estimate   =    -598.41913890 Ry
     estimated scf accuracy    <       0.00000066 Ry
     electrostatic embedding   =       0.00123218 Ry
     correction to one-el term =      23.55196864 Ry

     iteration # 14     ecut=    35.00 Ry     beta= 0.70
     Davidson diagonalization with overlap
     ethr =  1.75E-09,  avg # of iterations =  2.0

     add environment contribution to local potential

     total cpu time spent up to now is       36.5 secs

     total energy              =    -574.86593802 Ry
     Harris-Foulkes estimate   =    -598.41815890 Ry
     estimated scf accuracy    <       0.00000002 Ry
     electrostatic embedding   =       0.00123210 Ry
     correction to one-el term =      23.55098878 Ry

     iteration # 15     ecut=    35.00 Ry     beta= 0.70
     Davidson diagonalization with overlap
     ethr =  5.82E-11,  avg # of iterations =  1.0

     total cpu time spent up to now is       37.3 secs

     End of self-consistent calculation

          k = 0.0000 0.0000 0.0000 (  7059 PWs)   bands (ev):

  -100.2660-100.2558 -63.7062 -63.6357 -63.5636 -63.5636 -63.5334 -63.5334
   -14.4404 -13.9576 -13.8143 -13.0490 -12.3720 -12.3438 -12.3438 -11.5693
   -11.3836 -11.3836 -11.1883 -10.8070  -8.1040  -6.2927  -6.0974

     the Fermi energy is   -11.0536 ev

!    total energy              =    -574.86593802 Ry
     Harris-Foulkes estimate   =    -598.41828258 Ry
     estimated scf accuracy    <          5.0E-10 Ry

     The total energy is the sum of the following terms:

     one-electron contribution =   -5363.19934651 Ry
     hartree contribution      =    2664.07092530 Ry
     xc contribution           =     -54.25312396 Ry
     ewald contribution        =    2154.95128476 Ry
     smearing contrib. (-TS)   =       0.01197785 Ry
     electrostatic embedding   =       0.00123211 Ry
     correction to one-el term =      23.55111245 Ry

     the Fermi energy shift due to the parabolic pbc-correction is    -0.4060 ev

     convergence has been achieved in  15 iterations

     Forces acting on atoms (cartesian axes, Ry/au):

     atom    1 type  1   force =     0.00000000    0.00000000    0.02293064
     atom    2 type  1   force =     0.00000000    0.00000000   -0.02293064

     Total force =     0.032429     Total SCF correction =     0.000116

     Writing output data file ./pwscf.save/

     init_run     :      1.88s CPU      1.98s WALL (       1 calls)
     electrons    :     33.94s CPU     35.22s WALL (       1 calls)
     forces       :      0.30s CPU      0.30s WALL (       1 calls)

     Called by init_run:
     wfcinit      :      0.08s CPU      0.09s WALL (       1 calls)
     potinit      :      0.77s CPU      0.82s WALL (       1 calls)
     hinit0       :      0.97s CPU      1.00s WALL (       1 calls)

     Called by electrons:
     c_bands      :      3.34s CPU      2.98s WALL (      15 calls)
     sum_band     :      0.93s CPU      0.97s WALL (      15 calls)
     v_of_rho     :      2.83s CPU      3.30s WALL (      16 calls)
     mix_rho      :      0.44s CPU      0.54s WALL (      15 calls)

     Called by c_bands:
     init_us_2    :      0.05s CPU      0.06s WALL (      31 calls)
     cegterg      :      3.19s CPU      2.82s WALL (      15 calls)

     Called by sum_band:

     Called by *egterg:
     h_psi        :      2.62s CPU      2.49s WALL (      67 calls)
     g_psi        :      0.01s CPU      0.01s WALL (      51 calls)
     cdiaghg      :      0.05s CPU      0.05s WALL (      66 calls)

     Called by h_psi:
     h_psi:calbec :      0.15s CPU      0.08s WALL (      67 calls)
     vloc_psi     :      2.31s CPU      2.34s WALL (      67 calls)
     add_vuspsi   :      0.16s CPU      0.05s WALL (      67 calls)

     General routines
     calbec       :      0.16s CPU      0.09s WALL (      71 calls)
     fft          :      2.28s CPU      2.32s WALL (     236 calls)
     ffts         :      0.09s CPU      0.10s WALL (      31 calls)
     fftw         :      2.48s CPU      2.52s WALL (    1975 calls)
     interpolate  :      0.23s CPU      0.26s WALL (      16 calls)

     Parallel routines

     Environ routines
     calc_eelect  :      0.02s CPU      0.02s WALL (      30 calls)
     calc_velect  :      0.84s CPU      0.91s WALL (      22 calls)
     calc_felect  :      0.04s CPU      0.05s WALL (       1 calls)
     calc_vms     :      0.27s CPU      0.27s WALL (      11 calls)

     PWSCF        :     36.22s CPU     37.63s WALL


   This run was terminated on:  13:55:45   6Jul2020            

=------------------------------------------------------------------------------=
   JOB DONE.
=------------------------------------------------------------------------------=
