
     Program PWSCF v.6.5 starts on  6Jul2020 at 13:58:46 

     This program is part of the open-source Quantum ESPRESSO suite
     for quantum simulation of materials; please cite
         "P. Giannozzi et al., J. Phys.:Condens. Matter 21 395502 (2009);
         "P. Giannozzi et al., J. Phys.:Condens. Matter 29 465901 (2017);
          URL http://www.quantum-espresso.org", 
     in publications or presentations arising from this work. More details at
     http://www.quantum-espresso.org/quote

     Parallel version (MPI), running on     1 processors

     MPI processes distributed on     1 nodes
     Reading input from pw.in
Warning: card  &IONS ignored
Warning: card     ION_DYNAMICS = 'BFGS', ignored
Warning: card  / ignored

     Current dimensions of program PWSCF are:
     Max number of different atomic species (ntypx) = 10
     Max number of k-points (npk) =  40000
     Max angular momentum in pseudopotentials (lmaxx) =  3

     Subspace diagonalization in iterative solution of the eigenvalue problem:
     a serial algorithm will be used

     Message from routine setup:
     no reason to have ecutrho>4*ecutwfc
     Message from routine setup:
     using ibrav=0 with symmetry is DISCOURAGED, use correct ibrav instead

     G-vector sticks info
     --------------------
     sticks:   dense  smooth     PW     G-vecs:    dense   smooth      PW
     Sum         861     341     89               221431    56001    7059



     bravais-lattice index     =            0
     lattice parameter (alat)  =       5.5435  a.u.
     unit-cell volume          =    2000.1211 (a.u.)^3
     number of atoms/cell      =            2
     number of atomic types    =            1
     number of electrons       =        38.00
     number of Kohn-Sham states=           23
     kinetic-energy cutoff     =      35.0000  Ry
     charge density cutoff     =     350.0000  Ry
     convergence threshold     =      5.0E-09
     mixing beta               =       0.7000
     number of iterations used =            8  plain     mixing
     Exchange-correlation= PBE
                           (   1   4   3   4   0   0   0)


     Environ Module
     ==============

     Plese cite
         O. Andreussi, I. Dabo and N. Marzari, J. Chem. Phys. 136, 064102 (2012)         
     in publications or presentations arising from this work.

     compensation onset threshold      =               0.1000E+00 
     static permittivity               =                    11.00 
     epsilon calculation mode          =               electronic 

     Electrostatic Setup
     -------------------
     electrostatic problem to solve    = generalized              
     numerical solver adopted          = iterative                
     type of auxiliary density adopted = full                     
     type of core tool for poisson     = fft                      
     type of core tool for s(r) deriv  = analytic                 



     celldm(1)=   5.543526  celldm(2)=   0.000000  celldm(3)=   0.000000
     celldm(4)=   0.000000  celldm(5)=   0.000000  celldm(6)=   0.000000

     crystal axes: (cart. coord. in units of alat)
               a(1) = (   1.000000   0.000000   0.000000 )  
               a(2) = (   0.000000   1.000000   0.000000 )  
               a(3) = (   0.000000   0.000000  11.740809 )  

     reciprocal axes: (cart. coord. in units 2 pi/alat)
               b(1) = (  1.000000  0.000000  0.000000 )  
               b(2) = (  0.000000  1.000000  0.000000 )  
               b(3) = (  0.000000  0.000000  0.085173 )  


     PseudoPot. # 1 for Ag read from file:
     /Users/qcampbe/espresso/pseudo/Ag_ONCV_PBE-1.0.upf
     MD5 check sum: 94f47bd0669c641108e45594df92fabc
     Pseudo is Norm-conserving, Zval = 19.0
     Generated using ONCVPSP code by D. R. Hamann
     Using radial grid of 1398 points,  6 beta functions with: 
                l(1) =   0
                l(2) =   0
                l(3) =   1
                l(4) =   1
                l(5) =   2
                l(6) =   2

     atomic species   valence    mass     pseudopotential
        Ag            19.00   107.86800     Ag( 1.00)

      8 Sym. Ops. (no inversion) found



   Cartesian axes

     site n.     atom                  positions (alat units)
         1           Ag  tau(   1) = (   0.5000000   0.5000000   3.4088881  )
         2           Ag  tau(   2) = (   0.0000000   0.0000000   4.1021437  )

     number of k points=     1  Marzari-Vanderbilt smearing, width (Ry)=  0.0200
                       cart. coord. in units 2pi/alat
        k(    1) = (   0.0000000   0.0000000   0.0000000), wk =   2.0000000

     Dense  grid:   221431 G-vectors     FFT dimensions: (  36,  36, 400)

     Smooth grid:    56001 G-vectors     FFT dimensions: (  24,  24, 250)

     Estimated max dynamical RAM per process >     154.06 MB

     Initial potential from superposition of free atoms

     starting charge   37.99942, renormalised to   37.99700

     negative rho (up, down):  8.833E-07 0.000E+00
     Starting wfcs are   20 randomized atomic wfcs +    3 random wfcs

     total cpu time spent up to now is        1.1 secs

     Self-consistent Calculation

     iteration #  1     ecut=    35.00 Ry     beta= 0.70
     Davidson diagonalization with overlap
     ethr =  1.00E-02,  avg # of iterations =  8.0

     total cpu time spent up to now is        1.7 secs

     total energy              =    -574.69257510 Ry
     Harris-Foulkes estimate   =    -575.01373550 Ry
     estimated scf accuracy    <       0.43323904 Ry
     electrostatic embedding   =       0.00008953 Ry
     correction to one-el term =       0.00000000 Ry

     iteration #  2     ecut=    35.00 Ry     beta= 0.70
     Davidson diagonalization with overlap
     ethr =  1.14E-03,  avg # of iterations =  5.0

     negative rho (up, down):  5.537E-05 0.000E+00

     total cpu time spent up to now is        2.4 secs

     total energy              =    -574.32308355 Ry
     Harris-Foulkes estimate   =    -575.30536159 Ry
     estimated scf accuracy    <       3.52202786 Ry
     electrostatic embedding   =       0.00008953 Ry
     correction to one-el term =       0.00000000 Ry

     iteration #  3     ecut=    35.00 Ry     beta= 0.70
     Davidson diagonalization with overlap
     ethr =  1.14E-03,  avg # of iterations =  3.0

     negative rho (up, down):  5.902E-06 0.000E+00

     total cpu time spent up to now is        3.0 secs

     total energy              =    -574.88085230 Ry
     Harris-Foulkes estimate   =    -574.91493806 Ry
     estimated scf accuracy    <       0.14973217 Ry
     electrostatic embedding   =       0.00008953 Ry
     correction to one-el term =       0.00000000 Ry

     iteration #  4     ecut=    35.00 Ry     beta= 0.70
     Davidson diagonalization with overlap
     ethr =  3.94E-04,  avg # of iterations =  1.0

     negative rho (up, down):  1.198E-08 0.000E+00

     add environment contribution to local potential
     polarization accuracy = 7.2E-12, # of iterations =  17

     total cpu time spent up to now is        5.1 secs

     total energy              =    -574.87247602 Ry
     Harris-Foulkes estimate   =    -574.88596061 Ry
     estimated scf accuracy    <       0.05962086 Ry
     electrostatic embedding   =       0.00008953 Ry
     correction to one-el term =       0.00000000 Ry

     iteration #  5     ecut=    35.00 Ry     beta= 0.70
     Davidson diagonalization with overlap
     ethr =  1.57E-04,  avg # of iterations =  8.0

     negative rho (up, down):  1.672E-08 0.000E+00

     add environment contribution to local potential
     polarization accuracy = 9.4E-12, # of iterations =  17

     total cpu time spent up to now is        7.2 secs

     total energy              =    -574.87157552 Ry
     Harris-Foulkes estimate   =    -580.90123820 Ry
     estimated scf accuracy    <       0.05456409 Ry
     electrostatic embedding   =      -0.00042216 Ry
     correction to one-el term =       6.02571339 Ry

     iteration #  6     ecut=    35.00 Ry     beta= 0.70
     Davidson diagonalization with overlap
     ethr =  1.44E-04,  avg # of iterations =  4.0

     add environment contribution to local potential
     polarization accuracy = 6.0E-12, # of iterations =  18

     total cpu time spent up to now is        9.4 secs

     total energy              =    -574.86448510 Ry
     Harris-Foulkes estimate   =    -580.87735226 Ry
     estimated scf accuracy    <       0.02754186 Ry
     electrostatic embedding   =      -0.00041294 Ry
     correction to one-el term =       6.00422812 Ry

     iteration #  7     ecut=    35.00 Ry     beta= 0.70
     Davidson diagonalization with overlap
     ethr =  7.25E-05,  avg # of iterations =  4.0

     add environment contribution to local potential
     polarization accuracy = 9.9E-12, # of iterations =  13

     total cpu time spent up to now is       11.2 secs

     total energy              =    -574.86731977 Ry
     Harris-Foulkes estimate   =    -580.81299175 Ry
     estimated scf accuracy    <       0.00127574 Ry
     electrostatic embedding   =      -0.00025988 Ry
     correction to one-el term =       5.94573325 Ry

     iteration #  8     ecut=    35.00 Ry     beta= 0.70
     Davidson diagonalization with overlap
     ethr =  3.36E-06,  avg # of iterations =  7.0

     add environment contribution to local potential
     polarization accuracy = 9.3E-12, # of iterations =  17

     total cpu time spent up to now is       13.4 secs

     total energy              =    -574.86736368 Ry
     Harris-Foulkes estimate   =    -580.84642532 Ry
     estimated scf accuracy    <       0.00026768 Ry
     electrostatic embedding   =      -0.00023469 Ry
     correction to one-el term =       5.97925014 Ry

     iteration #  9     ecut=    35.00 Ry     beta= 0.70
     Davidson diagonalization with overlap
     ethr =  7.04E-07,  avg # of iterations =  4.0

     add environment contribution to local potential
     polarization accuracy = 5.2E-12, # of iterations =  17

     total cpu time spent up to now is       15.5 secs

     total energy              =    -574.86736100 Ry
     Harris-Foulkes estimate   =    -580.85860237 Ry
     estimated scf accuracy    <       0.00006446 Ry
     electrostatic embedding   =      -0.00022796 Ry
     correction to one-el term =       5.99145095 Ry

     iteration # 10     ecut=    35.00 Ry     beta= 0.70
     Davidson diagonalization with overlap
     ethr =  1.70E-07,  avg # of iterations =  2.0

     add environment contribution to local potential
     polarization accuracy = 7.6E-12, # of iterations =   9

     total cpu time spent up to now is       17.0 secs

     total energy              =    -574.86736860 Ry
     Harris-Foulkes estimate   =    -580.86935632 Ry
     estimated scf accuracy    <       0.00000212 Ry
     electrostatic embedding   =      -0.00022235 Ry
     correction to one-el term =       6.00220933 Ry

     iteration # 11     ecut=    35.00 Ry     beta= 0.70
     Davidson diagonalization with overlap
     ethr =  5.59E-09,  avg # of iterations =  2.0

     add environment contribution to local potential
     polarization accuracy = 7.2E-12, # of iterations =  11

     total cpu time spent up to now is       18.6 secs

     total energy              =    -574.86736867 Ry
     Harris-Foulkes estimate   =    -580.86993849 Ry
     estimated scf accuracy    <       0.00000951 Ry
     electrostatic embedding   =      -0.00022220 Ry
     correction to one-el term =       6.00279123 Ry

     iteration # 12     ecut=    35.00 Ry     beta= 0.70
     Davidson diagonalization with overlap
     ethr =  5.59E-09,  avg # of iterations =  1.0

     add environment contribution to local potential
     polarization accuracy = 4.4E-12, # of iterations =   9

     total cpu time spent up to now is       20.1 secs

     total energy              =    -574.86736878 Ry
     Harris-Foulkes estimate   =    -580.87216969 Ry
     estimated scf accuracy    <       0.00000300 Ry
     electrostatic embedding   =      -0.00022055 Ry
     correction to one-el term =       6.00502105 Ry

     iteration # 13     ecut=    35.00 Ry     beta= 0.70
     Davidson diagonalization with overlap
     ethr =  5.59E-09,  avg # of iterations =  2.0

     add environment contribution to local potential
     polarization accuracy = 8.6E-12, # of iterations =   7

     total cpu time spent up to now is       21.4 secs

     total energy              =    -574.86736893 Ry
     Harris-Foulkes estimate   =    -580.87345921 Ry
     estimated scf accuracy    <       0.00000028 Ry
     electrostatic embedding   =      -0.00022026 Ry
     correction to one-el term =       6.00631045 Ry

     iteration # 14     ecut=    35.00 Ry     beta= 0.70
     Davidson diagonalization with overlap
     ethr =  7.26E-10,  avg # of iterations =  2.0

     add environment contribution to local potential
     polarization accuracy = 6.1E-12, # of iterations =   5

     total cpu time spent up to now is       22.5 secs

     total energy              =    -574.86736907 Ry
     Harris-Foulkes estimate   =    -580.87158847 Ry
     estimated scf accuracy    <       0.00000007 Ry
     electrostatic embedding   =      -0.00022027 Ry
     correction to one-el term =       6.00443967 Ry

     iteration # 15     ecut=    35.00 Ry     beta= 0.70
     Davidson diagonalization with overlap
     ethr =  1.88E-10,  avg # of iterations =  1.0

     add environment contribution to local potential
     polarization accuracy = 4.1E-12, # of iterations =   4

     total cpu time spent up to now is       23.6 secs

     total energy              =    -574.86736907 Ry
     Harris-Foulkes estimate   =    -580.87149295 Ry
     estimated scf accuracy    <       0.00000001 Ry
     electrostatic embedding   =      -0.00022025 Ry
     correction to one-el term =       6.00434412 Ry

     iteration # 16     ecut=    35.00 Ry     beta= 0.70
     Davidson diagonalization with overlap
     ethr =  3.04E-11,  avg # of iterations =  2.0

     total cpu time spent up to now is       24.1 secs

     End of self-consistent calculation

          k = 0.0000 0.0000 0.0000 (  7059 PWs)   bands (ev):

   -93.9764 -93.9661 -57.4169 -57.3464 -57.2739 -57.2739 -57.2437 -57.2437
    -8.1530  -7.6696  -7.5252  -6.7600  -6.0785  -6.0542  -6.0542  -5.2800
    -5.0941  -5.0941  -4.8990  -4.5166  -1.8695  -0.3410  -0.2732

     the Fermi energy is    -4.7641 ev

!    total energy              =    -574.86736907 Ry
     Harris-Foulkes estimate   =    -580.87156296 Ry
     estimated scf accuracy    <          2.9E-10 Ry

     The total energy is the sum of the following terms:

     one-electron contribution =   -5345.66998498 Ry
     hartree contribution      =    2664.08837671 Ry
     xc contribution           =     -54.25323907 Ry
     ewald contribution        =    2154.95128476 Ry
     smearing contrib. (-TS)   =       0.01199963 Ry
     electrostatic embedding   =      -0.00022024 Ry
     correction to one-el term =       6.00441412 Ry

     the Fermi energy shift due to the parabolic pbc-correction is    -0.4060 ev

     convergence has been achieved in  16 iterations

     Forces acting on atoms (cartesian axes, Ry/au):

     atom    1 type  1   force =     0.00000000    0.00000000    0.02268634
     atom    2 type  1   force =     0.00000000    0.00000000   -0.02268634

     Total force =     0.032083     Total SCF correction =     0.000145

     Writing output data file ./pwscf.save/

     init_run     :      0.91s CPU      0.98s WALL (       1 calls)
     electrons    :     22.43s CPU     23.06s WALL (       1 calls)
     forces       :      0.28s CPU      0.27s WALL (       1 calls)

     Called by init_run:
     wfcinit      :      0.08s CPU      0.08s WALL (       1 calls)
     potinit      :      0.46s CPU      0.49s WALL (       1 calls)
     hinit0       :      0.28s CPU      0.29s WALL (       1 calls)

     Called by electrons:
     c_bands      :      3.18s CPU      2.80s WALL (      16 calls)
     sum_band     :      0.90s CPU      0.92s WALL (      16 calls)
     v_of_rho     :      2.82s CPU      3.24s WALL (      17 calls)
     mix_rho      :      0.44s CPU      0.53s WALL (      16 calls)

     Called by c_bands:
     init_us_2    :      0.05s CPU      0.06s WALL (      33 calls)
     cegterg      :      3.03s CPU      2.64s WALL (      16 calls)

     Called by sum_band:

     Called by *egterg:
     h_psi        :      2.49s CPU      2.33s WALL (      73 calls)
     g_psi        :      0.01s CPU      0.01s WALL (      56 calls)
     cdiaghg      :      0.05s CPU      0.05s WALL (      72 calls)

     Called by h_psi:
     h_psi:calbec :      0.15s CPU      0.08s WALL (      73 calls)
     vloc_psi     :      2.18s CPU      2.19s WALL (      73 calls)
     add_vuspsi   :      0.15s CPU      0.05s WALL (      73 calls)

     General routines
     calbec       :      0.16s CPU      0.09s WALL (      77 calls)
     fft          :      8.98s CPU      9.00s WALL (     992 calls)
     ffts         :      0.09s CPU      0.10s WALL (      33 calls)
     fftw         :      2.35s CPU      2.35s WALL (    2092 calls)
     interpolate  :      0.24s CPU      0.26s WALL (      17 calls)

     Parallel routines

     Environ routines
     calc_eelect  :      0.02s CPU      0.02s WALL (      32 calls)
     calc_velect  :     12.02s CPU     12.41s WALL (      24 calls)
     dielectric   :      0.12s CPU      0.13s WALL (      18 calls)
     calc_felect  :      0.04s CPU      0.04s WALL (       1 calls)
     calc_vms     :      0.28s CPU      0.29s WALL (      12 calls)

     PWSCF        :     23.70s CPU     24.43s WALL


   This run was terminated on:  13:59:11   6Jul2020            

=------------------------------------------------------------------------------=
   JOB DONE.
=------------------------------------------------------------------------------=
