
     Program PWSCF v.6.7MaX starts on 25Sep2021 at 15:18: 6 

     This program is part of the open-source Quantum ESPRESSO suite
     for quantum simulation of materials; please cite
         "P. Giannozzi et al., J. Phys.:Condens. Matter 21 395502 (2009);
         "P. Giannozzi et al., J. Phys.:Condens. Matter 29 465901 (2017);
          URL http://www.quantum-espresso.org", 
     in publications or presentations arising from this work. More details at
     http://www.quantum-espresso.org/quote

     Parallel version (MPI), running on     1 processors

     MPI processes distributed on     1 nodes
     Waiting for input...
     Reading input from standard input

     Current dimensions of program PWSCF are:
     Max number of different atomic species (ntypx) = 10
     Max number of k-points (npk) =  40000
     Max angular momentum in pseudopotentials (lmaxx) =  3

     Reading input from environ.in

     ================================================================================

     Reading ENVIRON namelist

     Skipping BOUNDARY namelist

     Checking boundary derivatives
     derivatives               = chain          ! SCCS default

     Reading ELECTROSTATIC namelist

     Setting up electrostatic problem
     problem                   = poisson        
     solver                    = direct         

     Checking PBC correction

     ================================================================================
 
     file N.pbe-rrkjus.UPF: wavefunction(s)  2S renormalized
     file C.pbe-rrkjus.UPF: wavefunction(s)  2S 2P renormalized
     file H.pbe-rrkjus.UPF: wavefunction(s)  1S renormalized

     gamma-point specific algorithms are used

     Subspace diagonalization in iterative solution of the eigenvalue problem:
     a serial algorithm will be used

 
     G-vector sticks info
     --------------------
     sticks:   dense  smooth     PW     G-vecs:    dense   smooth      PW
     Sum       21465    8585   2145              2368925   599161   74773
 


     bravais-lattice index     =            1
     lattice parameter (alat)  =      30.0000  a.u.
     unit-cell volume          =   27000.0000 (a.u.)^3
     number of atoms/cell      =           12
     number of atomic types    =            3
     number of electrons       =        30.00
     number of Kohn-Sham states=           15
     kinetic-energy cutoff     =      30.0000  Ry
     charge density cutoff     =     300.0000  Ry
     scf convergence threshold =      5.0E-09
     mixing beta               =       0.4000
     number of iterations used =            8  plain     mixing
     Exchange-correlation= SLA  PW   PBE  PBE
                           (   1   4   3   4   0   0   0)
 

     Environ Module
     ==============

     Please cite
         O. Andreussi, I. Dabo and N. Marzari, J. Chem. Phys. 136, 064102 (2012)         
     in publications or presentations arising from this work.

     compensation onset threshold      =               0.1000E+00

     Electrostatic Setup
     -------------------
     electrostatic problem to solve    = poisson                 
     numerical solver adopted          = direct                  
     type of auxiliary density adopted = none                    
     type of core tool for poisson     = fft                     
     type of core tool for correction  = 1d-analytic             



     celldm(1)=  30.000000  celldm(2)=   0.000000  celldm(3)=   0.000000
     celldm(4)=   0.000000  celldm(5)=   0.000000  celldm(6)=   0.000000

     crystal axes: (cart. coord. in units of alat)
               a(1) = (   1.000000   0.000000   0.000000 )  
               a(2) = (   0.000000   1.000000   0.000000 )  
               a(3) = (   0.000000   0.000000   1.000000 )  

     reciprocal axes: (cart. coord. in units 2 pi/alat)
               b(1) = (  1.000000  0.000000  0.000000 )  
               b(2) = (  0.000000  1.000000  0.000000 )  
               b(3) = (  0.000000  0.000000  1.000000 )  


     PseudoPot. # 1 for N  read from file:
     /home/simplogic86/Work/QE1/pseudo/N.pbe-rrkjus.UPF
     MD5 check sum: 28c76d763763edb36c62a6ca2be9aebd
     Pseudo is Ultrasoft, Zval =  5.0
     Generated by new atomic code, or converted to UPF format
     Using radial grid of 1257 points,  4 beta functions with: 
                l(1) =   0
                l(2) =   0
                l(3) =   1
                l(4) =   1
     Q(r) pseudized with 0 coefficients 


     PseudoPot. # 2 for C  read from file:
     /home/simplogic86/Work/QE1/pseudo/C.pbe-rrkjus.UPF
     MD5 check sum: c9ac5a99bc85b198593446162950cd17
     Pseudo is Ultrasoft, Zval =  4.0
     Generated by new atomic code, or converted to UPF format
     Using radial grid of  627 points,  4 beta functions with: 
                l(1) =   0
                l(2) =   0
                l(3) =   1
                l(4) =   1
     Q(r) pseudized with 0 coefficients 


     PseudoPot. # 3 for H  read from file:
     /home/simplogic86/Work/QE1/pseudo/H.pbe-rrkjus.UPF
     MD5 check sum: 2d52a7f45632fd764c17cc6affed14c8
     Pseudo is Ultrasoft, Zval =  1.0
     Generated by new atomic code, or converted to UPF format
     Using radial grid of 1061 points,  2 beta functions with: 
                l(1) =   0
                l(2) =   0
     Q(r) pseudized with 0 coefficients 


     atomic species   valence    mass     pseudopotential
        N              5.00    14.00000     N ( 1.00)
        C              4.00    12.00000     C ( 1.00)
        H              1.00     1.00000     H ( 1.00)

     No symmetry found


                                    s                        frac. trans.

      isym =  1     identity                                     

 cryst.   s( 1) = (     1          0          0      )
                  (     0          1          0      )
                  (     0          0          1      )

 cart.    s( 1) = (  1.0000000  0.0000000  0.0000000 )
                  (  0.0000000  1.0000000  0.0000000 )
                  (  0.0000000  0.0000000  1.0000000 )


     point group C_1 (1)    
     there are  1 classes
     the character table:

       E    
A      1.00

     the symmetry operations in each class and the name of the first element:

     E        1
          identity                                               

   Cartesian axes

     site n.     atom                  positions (alat units)
         1           H   tau(   1) = (  -0.1523532   0.0000000   0.0001258  )
         2           N   tau(   2) = (  -0.0815136   0.0000000   0.0001009  )
         3           C   tau(   3) = (  -0.0411048   0.0749119   0.0000692  )
         4           C   tau(   4) = (   0.0459374   0.0761731   0.0000488  )
         5           C   tau(   5) = (   0.0897978   0.0000000   0.0000440  )
         6           C   tau(   6) = (   0.0459374  -0.0761731   0.0000884  )
         7           C   tau(   7) = (  -0.0411048  -0.0749119   0.0001182  )
         8           H   tau(   8) = (  -0.0804244   0.1312714   0.0000570  )
         9           H   tau(   9) = (   0.0786365   0.1366241   0.0000268  )
        10           H   tau(  10) = (   0.1586195  -0.0000000   0.0000007  )
        11           H   tau(  11) = (   0.0786366  -0.1366241   0.0001069  )
        12           H   tau(  12) = (  -0.0804243  -0.1312713   0.0001627  )

   Crystallographic axes

     site n.     atom                  positions (cryst. coord.)
         1           H   tau(   1) = ( -0.1523532  0.0000000  0.0001258  )
         2           N   tau(   2) = ( -0.0815136  0.0000000  0.0001009  )
         3           C   tau(   3) = ( -0.0411048  0.0749119  0.0000692  )
         4           C   tau(   4) = (  0.0459374  0.0761731  0.0000488  )
         5           C   tau(   5) = (  0.0897978  0.0000000  0.0000440  )
         6           C   tau(   6) = (  0.0459374 -0.0761731  0.0000884  )
         7           C   tau(   7) = ( -0.0411048 -0.0749119  0.0001182  )
         8           H   tau(   8) = ( -0.0804244  0.1312714  0.0000570  )
         9           H   tau(   9) = (  0.0786365  0.1366241  0.0000268  )
        10           H   tau(  10) = (  0.1586195 -0.0000000  0.0000007  )
        11           H   tau(  11) = (  0.0786366 -0.1366241  0.0001069  )
        12           H   tau(  12) = ( -0.0804243 -0.1312713  0.0001627  )

     number of k points=     1
                       cart. coord. in units 2pi/alat
        k(    1) = (   0.0000000   0.0000000   0.0000000), wk =   2.0000000

                       cryst. coord.
        k(    1) = (   0.0000000   0.0000000   0.0000000), wk =   2.0000000

     Dense  grid:  1184463 G-vectors     FFT dimensions: ( 180, 180, 180)

     Smooth grid:   299581 G-vectors     FFT dimensions: ( 108, 108, 108)

     Dynamical RAM for                 wfc:       8.57 MB

     Dynamical RAM for     wfc (w. buffer):       8.57 MB

     Dynamical RAM for           str. fact:      54.22 MB

     Dynamical RAM for           local pot:       0.00 MB

     Dynamical RAM for          nlocal pot:      34.30 MB

     Dynamical RAM for                qrad:       1.19 MB

     Dynamical RAM for          rho,v,vnew:     187.70 MB

     Dynamical RAM for               rhoin:      62.57 MB

     Dynamical RAM for            rho*nmix:     289.18 MB

     Dynamical RAM for           G-vectors:      70.06 MB

     Dynamical RAM for          h,s,v(r/c):       0.02 MB

     Dynamical RAM for          <psi|beta>:       0.01 MB

     Dynamical RAM for                 psi:      17.15 MB

     Dynamical RAM for                hpsi:      17.15 MB

     Dynamical RAM for                spsi:      17.15 MB

     Dynamical RAM for      wfcinit/wfcrot:      34.32 MB

     Dynamical RAM for           addusdens:     885.60 MB

     Dynamical RAM for          addusforce:    1075.38 MB

     Estimated static dynamical RAM per process >    1002.56 MB

     Estimated max dynamical RAM per process >       2.03 GB

     Initial potential from superposition of free atoms

     starting charge   30.42250, renormalised to   30.00000

     negative rho (up, down):  2.291E-03 0.000E+00
     Starting wfcs are   30 randomized atomic wfcs

     total cpu time spent up to now is       16.8 secs

     Self-consistent Calculation

     iteration #  1     ecut=    30.00 Ry     beta= 0.40
     Davidson diagonalization with overlap
     ethr =  1.00E-02,  avg # of iterations =  2.0

     negative rho (up, down):  1.380E-03 0.000E+00

     total cpu time spent up to now is       23.4 secs

     total energy              =     -83.59026482 Ry
     estimated scf accuracy    <       2.62358692 Ry
     electrostatic embedding   =       0.00180351 Ry
     correction to one-el term =       0.00000000 Ry

     iteration #  2     ecut=    30.00 Ry     beta= 0.40
     Davidson diagonalization with overlap
     ethr =  8.75E-03,  avg # of iterations =  1.0

     negative rho (up, down):  2.076E-03 0.000E+00

     total cpu time spent up to now is       29.7 secs

     total energy              =     -83.41130651 Ry
     estimated scf accuracy    <       0.52518196 Ry
     electrostatic embedding   =       0.00180351 Ry
     correction to one-el term =       0.00000000 Ry

     iteration #  3     ecut=    30.00 Ry     beta= 0.40
     Davidson diagonalization with overlap
     ethr =  1.75E-03,  avg # of iterations =  2.0

     negative rho (up, down):  1.620E-03 0.000E+00

     add environment contribution to local potential

     total cpu time spent up to now is       37.8 secs

     total energy              =     -83.45653216 Ry
     estimated scf accuracy    <       0.06606427 Ry
     electrostatic embedding   =       0.00180351 Ry
     correction to one-el term =       0.00000000 Ry

     iteration #  4     ecut=    30.00 Ry     beta= 0.40
     Davidson diagonalization with overlap
     ethr =  2.20E-04,  avg # of iterations =  2.0

     negative rho (up, down):  1.194E-03 0.000E+00

     add environment contribution to local potential

     total cpu time spent up to now is       45.8 secs

     total energy              =     -83.36546088 Ry
     estimated scf accuracy    <       0.00886703 Ry
     electrostatic embedding   =       0.10422432 Ry
     correction to one-el term =       5.85106446 Ry

     iteration #  5     ecut=    30.00 Ry     beta= 0.40
     Davidson diagonalization with overlap
     ethr =  2.96E-05,  avg # of iterations =  2.0

     negative rho (up, down):  8.924E-04 0.000E+00

     add environment contribution to local potential

     total cpu time spent up to now is       53.8 secs

     total energy              =     -83.36466347 Ry
     estimated scf accuracy    <       0.00222447 Ry
     electrostatic embedding   =       0.10334254 Ry
     correction to one-el term =       5.82540690 Ry

     iteration #  6     ecut=    30.00 Ry     beta= 0.40
     Davidson diagonalization with overlap
     ethr =  7.41E-06,  avg # of iterations =  5.0

     negative rho (up, down):  6.686E-04 0.000E+00

     add environment contribution to local potential

     total cpu time spent up to now is       61.9 secs

     total energy              =     -83.36583206 Ry
     estimated scf accuracy    <       0.00315579 Ry
     electrostatic embedding   =       0.10301336 Ry
     correction to one-el term =       5.81560082 Ry

     iteration #  7     ecut=    30.00 Ry     beta= 0.40
     Davidson diagonalization with overlap
     ethr =  7.41E-06,  avg # of iterations =  2.0

     negative rho (up, down):  6.078E-04 0.000E+00

     add environment contribution to local potential

     total cpu time spent up to now is       69.5 secs

     total energy              =     -83.36531410 Ry
     estimated scf accuracy    <       0.00110601 Ry
     electrostatic embedding   =       0.10295813 Ry
     correction to one-el term =       5.81428378 Ry

     iteration #  8     ecut=    30.00 Ry     beta= 0.40
     Davidson diagonalization with overlap
     ethr =  3.69E-06,  avg # of iterations =  4.0

     negative rho (up, down):  5.125E-04 0.000E+00

     add environment contribution to local potential

     total cpu time spent up to now is       77.8 secs

     total energy              =     -83.36580026 Ry
     estimated scf accuracy    <       0.00037162 Ry
     electrostatic embedding   =       0.10293931 Ry
     correction to one-el term =       5.81404995 Ry

     iteration #  9     ecut=    30.00 Ry     beta= 0.40
     Davidson diagonalization with overlap
     ethr =  1.24E-06,  avg # of iterations =  1.0

     negative rho (up, down):  5.990E-04 0.000E+00

     add environment contribution to local potential

     total cpu time spent up to now is       85.6 secs

     total energy              =     -83.36575594 Ry
     estimated scf accuracy    <       0.00017360 Ry
     electrostatic embedding   =       0.10293431 Ry
     correction to one-el term =       5.81379630 Ry

     iteration # 10     ecut=    30.00 Ry     beta= 0.40
     Davidson diagonalization with overlap
     ethr =  5.79E-07,  avg # of iterations =  4.0

     negative rho (up, down):  5.876E-04 0.000E+00

     add environment contribution to local potential

     total cpu time spent up to now is       93.9 secs

     total energy              =     -83.36578012 Ry
     estimated scf accuracy    <       0.00001847 Ry
     electrostatic embedding   =       0.10291583 Ry
     correction to one-el term =       5.81311677 Ry

     iteration # 11     ecut=    30.00 Ry     beta= 0.40
     Davidson diagonalization with overlap
     ethr =  6.16E-08,  avg # of iterations =  4.0

     negative rho (up, down):  5.854E-04 0.000E+00

     add environment contribution to local potential

     total cpu time spent up to now is      101.8 secs

     total energy              =     -83.36578144 Ry
     estimated scf accuracy    <       0.00000307 Ry
     electrostatic embedding   =       0.10290910 Ry
     correction to one-el term =       5.81294771 Ry

     iteration # 12     ecut=    30.00 Ry     beta= 0.40
     Davidson diagonalization with overlap
     ethr =  1.02E-08,  avg # of iterations =  4.0

     negative rho (up, down):  6.064E-04 0.000E+00

     add environment contribution to local potential

     total cpu time spent up to now is      110.1 secs

     total energy              =     -83.36578187 Ry
     estimated scf accuracy    <       0.00000115 Ry
     electrostatic embedding   =       0.10290473 Ry
     correction to one-el term =       5.81283671 Ry

     iteration # 13     ecut=    30.00 Ry     beta= 0.40
     Davidson diagonalization with overlap
     ethr =  3.85E-09,  avg # of iterations =  5.0

     negative rho (up, down):  6.082E-04 0.000E+00

     add environment contribution to local potential

     total cpu time spent up to now is      118.0 secs

     total energy              =     -83.36578236 Ry
     estimated scf accuracy    <       0.00000040 Ry
     electrostatic embedding   =       0.10290392 Ry
     correction to one-el term =       5.81279004 Ry

     iteration # 14     ecut=    30.00 Ry     beta= 0.40
     Davidson diagonalization with overlap
     ethr =  1.35E-09,  avg # of iterations =  1.0

     negative rho (up, down):  6.126E-04 0.000E+00

     add environment contribution to local potential

     total cpu time spent up to now is      125.8 secs

     total energy              =     -83.36578219 Ry
     estimated scf accuracy    <       0.00000040 Ry
     electrostatic embedding   =       0.10290388 Ry
     correction to one-el term =       5.81279135 Ry

     iteration # 15     ecut=    30.00 Ry     beta= 0.40
     Davidson diagonalization with overlap
     ethr =  1.32E-09,  avg # of iterations =  3.0

     negative rho (up, down):  6.112E-04 0.000E+00

     add environment contribution to local potential

     total cpu time spent up to now is      133.5 secs

     total energy              =     -83.36578224 Ry
     estimated scf accuracy    <       0.00000002 Ry
     electrostatic embedding   =       0.10290356 Ry
     correction to one-el term =       5.81279168 Ry

     iteration # 16     ecut=    30.00 Ry     beta= 0.40
     Davidson diagonalization with overlap
     ethr =  8.18E-11,  avg # of iterations =  5.0

     negative rho (up, down):  6.123E-04 0.000E+00

     add environment contribution to local potential

     total cpu time spent up to now is      141.7 secs

     total energy              =     -83.36578225 Ry
     estimated scf accuracy    <          5.7E-09 Ry
     electrostatic embedding   =       0.10290351 Ry
     correction to one-el term =       5.81279156 Ry

     iteration # 17     ecut=    30.00 Ry     beta= 0.40
     Davidson diagonalization with overlap
     ethr =  1.89E-11,  avg # of iterations =  5.0

     negative rho (up, down):  6.116E-04 0.000E+00

     the potential shift due to the Gaussian-smeared nuclei is    -0.0245 ev

     total cpu time spent up to now is      148.0 secs

     End of self-consistent calculation

          k = 0.0000 0.0000 0.0000 ( 37387 PWs)   bands (ev):

   -30.5593 -25.7907 -25.0187 -21.6693 -21.5298 -19.7280 -17.8138 -17.3345
   -16.6696 -16.3008 -16.2757 -14.4257 -14.2816 -13.0953 -12.3865

     occupation numbers 
     1.0000   1.0000   1.0000   1.0000   1.0000   1.0000   1.0000   1.0000
     1.0000   1.0000   1.0000   1.0000   1.0000   1.0000   1.0000

     highest occupied level (ev):   -12.3865

!    total energy              =     -83.36578225 Ry
     estimated scf accuracy    <          9.0E-10 Ry

     The total energy is the sum of the following terms:
     one-electron contribution =    -384.59479914 Ry
     hartree contribution      =     188.47914945 Ry
     xc contribution           =     -26.14606436 Ry
     ewald contribution        =     132.98023899 Ry
     electrostatic embedding   =       0.10290348 Ry
     correction to one-el term =       5.81278933 Ry

     WARNING: you are using the parabolic pbc correction;
              the potential shift above must be added to 
              band and Fermi energies.

     convergence has been achieved in  17 iterations
     The global environment contribution to forces
     atom    1 type  3   force =    -0.00118218    0.00000000    0.00000035
     atom    2 type  1   force =    -0.00261388    0.00000000    0.00000059
     atom    3 type  2   force =    -0.00058653    0.00278925   -0.00000071
     atom    4 type  2   force =     0.00265437    0.00283621   -0.00000147
     atom    5 type  2   force =     0.00428745    0.00000000   -0.00000165
     atom    6 type  2   force =     0.00265437   -0.00283620    0.00000000
     atom    7 type  2   force =    -0.00058653   -0.00278925    0.00000111
     atom    8 type  3   force =    -0.00051264    0.00122193   -0.00000029
     atom    9 type  3   force =     0.00096797    0.00127175   -0.00000057
     atom   10 type  3   force =     0.00171248    0.00000000   -0.00000082
     atom   11 type  3   force =     0.00096797   -0.00127175    0.00000017
     atom   12 type  3   force =    -0.00051264   -0.00122193    0.00000069
 

     Forces acting on atoms (cartesian axes, Ry/au):

     atom    1 type  3   force =     0.12183664   -0.00000009   -0.00005202
     atom    2 type  1   force =    -0.11578240    0.00000068    0.00006780
     atom    3 type  2   force =    -0.00691281    0.00271038    0.00000527
     atom    4 type  2   force =     0.00118833    0.00364096   -0.00003855
     atom    5 type  2   force =     0.00621050   -0.00000020   -0.00000517
     atom    6 type  2   force =     0.00118824   -0.00364080    0.00000591
     atom    7 type  2   force =    -0.00691248   -0.00271099    0.00002653
     atom    8 type  3   force =     0.00323718   -0.00346223    0.00000945
     atom    9 type  3   force =    -0.00164881   -0.00403703   -0.00000838
     atom   10 type  3   force =    -0.00399275   -0.00000001    0.00002816
     atom   11 type  3   force =    -0.00164891    0.00403700   -0.00002081
     atom   12 type  3   force =     0.00323728    0.00346235   -0.00001820
     The non-local contrib.  to forces
     atom    1 type  3   force =     0.14166334   -0.00000003   -0.00005032
     atom    2 type  1   force =    -0.01324226    0.00000021    0.00020325
     atom    3 type  2   force =    -0.10268752   -0.31295339    0.00008313
     atom    4 type  2   force =    -0.11798194   -0.10267297    0.00001544
     atom    5 type  2   force =    -0.12331151   -0.00000015    0.00006118
     atom    6 type  2   force =    -0.11798208    0.10267301    0.00001980
     atom    7 type  2   force =    -0.10268764    0.31295307   -0.00010386
     atom    8 type  3   force =     0.08645577   -0.12986372    0.00003048
     atom    9 type  3   force =    -0.07361623   -0.13464465    0.00004757
     atom   10 type  3   force =    -0.15366662    0.00000003    0.00010092
     atom   11 type  3   force =    -0.07361624    0.13464463   -0.00004352
     atom   12 type  3   force =     0.08645569    0.12986367   -0.00010271
     The ionic contribution  to forces
     atom    1 type  3   force =    -3.67662239    0.00000030    0.00120661
     atom    2 type  1   force =    -9.04849811    0.00000171    0.00169003
     atom    3 type  2   force =    -2.83977692    7.52144304   -0.00133586
     atom    4 type  2   force =     4.02437581    6.36088998   -0.00184150
     atom    5 type  2   force =     7.36794959   -0.00000117   -0.00322235
     atom    6 type  2   force =     4.02437706   -6.36089010    0.00065933
     atom    7 type  2   force =    -2.83977445   -7.52144390    0.00358714
     atom    8 type  3   force =    -1.82448734    2.93050813   -0.00062241
     atom    9 type  3   force =     1.64556721    2.93750990   -0.00103497
     atom   10 type  3   force =     3.34580841   -0.00000047   -0.00200043
     atom   11 type  3   force =     1.64556751   -2.93750965    0.00079776
     atom   12 type  3   force =    -1.82448639   -2.93050779    0.00211666
     The local contribution  to forces
     atom    1 type  3   force =     3.65800075   -0.00000039   -0.00120709
     atom    2 type  1   force =     8.94858729   -0.00000205   -0.00182469
     atom    3 type  2   force =     2.93614094   -7.20857480    0.00126006
     atom    4 type  2   force =    -3.90786567   -6.25739670    0.00179050
     atom    5 type  2   force =    -7.24270449    0.00000086    0.00315909
     atom    6 type  2   force =    -3.90786763    6.25739644   -0.00067171
     atom    7 type  2   force =     2.93613924    7.20857481   -0.00345625
     atom    8 type  3   force =     1.74180208   -2.80533030    0.00060318
     atom    9 type  3   force =    -1.57454822   -2.80817254    0.00098110
     atom   10 type  3   force =    -3.19782365    0.00000044    0.00193002
     atom   11 type  3   force =    -1.57454869    2.80817237   -0.00077369
     atom   12 type  3   force =     1.74180138    2.80533020   -0.00203130
     The core correction contribution to forces
     atom    1 type  3   force =     0.00000000    0.00000000    0.00000000
     atom    2 type  1   force =     0.00000000    0.00000000    0.00000000
     atom    3 type  2   force =     0.00000000    0.00000000    0.00000000
     atom    4 type  2   force =     0.00000000    0.00000000    0.00000000
     atom    5 type  2   force =     0.00000000    0.00000000    0.00000000
     atom    6 type  2   force =     0.00000000    0.00000000    0.00000000
     atom    7 type  2   force =     0.00000000    0.00000000    0.00000000
     atom    8 type  3   force =     0.00000000    0.00000000    0.00000000
     atom    9 type  3   force =     0.00000000    0.00000000    0.00000000
     atom   10 type  3   force =     0.00000000    0.00000000    0.00000000
     atom   11 type  3   force =     0.00000000    0.00000000    0.00000000
     atom   12 type  3   force =     0.00000000    0.00000000    0.00000000
     The Hubbard contrib.    to forces
     atom    1 type  3   force =     0.00000000    0.00000000    0.00000000
     atom    2 type  1   force =     0.00000000    0.00000000    0.00000000
     atom    3 type  2   force =     0.00000000    0.00000000    0.00000000
     atom    4 type  2   force =     0.00000000    0.00000000    0.00000000
     atom    5 type  2   force =     0.00000000    0.00000000    0.00000000
     atom    6 type  2   force =     0.00000000    0.00000000    0.00000000
     atom    7 type  2   force =     0.00000000    0.00000000    0.00000000
     atom    8 type  3   force =     0.00000000    0.00000000    0.00000000
     atom    9 type  3   force =     0.00000000    0.00000000    0.00000000
     atom   10 type  3   force =     0.00000000    0.00000000    0.00000000
     atom   11 type  3   force =     0.00000000    0.00000000    0.00000000
     atom   12 type  3   force =     0.00000000    0.00000000    0.00000000
     The SCF correction term to forces
     atom    1 type  3   force =    -0.00000197    0.00000005   -0.00000004
     atom    2 type  1   force =     0.00000547    0.00000083    0.00000015
     atom    3 type  2   force =     0.00001814    0.00000630    0.00000018
     atom    4 type  2   force =     0.00002668   -0.00001553    0.00000000
     atom    5 type  2   force =     0.00001036    0.00000030    0.00000008
     atom    6 type  2   force =     0.00002743    0.00001607    0.00000000
     atom    7 type  2   force =     0.00001783   -0.00000570   -0.00000009
     atom    8 type  3   force =     0.00000022    0.00000176    0.00000001
     atom    9 type  3   force =     0.00000137   -0.00000146    0.00000001
     atom   10 type  3   force =    -0.00000247    0.00000002   -0.00000001
     atom   11 type  3   force =     0.00000145    0.00000143   -0.00000001
     atom   12 type  3   force =     0.00000015   -0.00000178   -0.00000002

     Total force =     0.168899     Total SCF correction =     0.000053

     Writing output data file /home/simplogic86/Work/QE1/tempdir/pyridine_vacuum_pcc.save/
 
     init_run     :     15.73s CPU     16.70s WALL (       1 calls)
     electrons    :    115.33s CPU    131.30s WALL (       1 calls)
     forces       :      4.00s CPU      4.63s WALL (       1 calls)

     Called by init_run:
     wfcinit      :      0.65s CPU      0.67s WALL (       1 calls)
     wfcinit:atom :      0.01s CPU      0.01s WALL (       1 calls)
     wfcinit:wfcr :      0.59s CPU      0.61s WALL (       1 calls)
     potinit      :      1.60s CPU      1.85s WALL (       1 calls)
     hinit0       :     11.08s CPU     11.26s WALL (       1 calls)

     Called by electrons:
     c_bands      :     19.58s CPU     19.83s WALL (      17 calls)
     sum_band     :     26.97s CPU     32.06s WALL (      17 calls)
     v_of_rho     :     25.65s CPU     29.35s WALL (      18 calls)
     v_h          :      2.36s CPU      2.97s WALL (      18 calls)
     v_xc         :     23.29s CPU     26.38s WALL (      18 calls)
     newd         :     15.74s CPU     21.40s WALL (      18 calls)
     mix_rho      :      5.23s CPU      5.31s WALL (      17 calls)

     Called by c_bands:
     init_us_2    :      0.48s CPU      0.55s WALL (      35 calls)
     regterg      :     18.21s CPU     18.26s WALL (      17 calls)

     Called by sum_band:
     sum_band:wei :      0.00s CPU      0.00s WALL (      17 calls)
     sum_band:loo :      3.93s CPU      3.95s WALL (      17 calls)
     sum_band:buf :      0.00s CPU      0.00s WALL (      17 calls)
     sum_band:ini :      0.24s CPU      0.25s WALL (      17 calls)
     sum_band:cal :      0.12s CPU      0.12s WALL (      17 calls)
     sum_band:bec :      0.00s CPU      0.00s WALL (      17 calls)
     addusdens    :     19.76s CPU     24.63s WALL (      17 calls)
     addusd:skk   :      0.94s CPU      1.16s WALL (      51 calls)
     addusd:dgemm :      3.10s CPU      7.05s WALL (      51 calls)
     addusd:qvan2 :     13.57s CPU     13.59s WALL (      51 calls)

     Called by *egterg:
     rdiaghg      :      0.02s CPU      0.02s WALL (      69 calls)
     regterg:over :      0.26s CPU      0.26s WALL (      52 calls)
     regterg:upda :      0.21s CPU      0.21s WALL (      52 calls)
     regterg:last :      0.33s CPU      0.33s WALL (      33 calls)
     h_psi        :     17.12s CPU     17.15s WALL (      70 calls)
     s_psi        :      0.44s CPU      0.45s WALL (      70 calls)
     g_psi        :      0.05s CPU      0.05s WALL (      52 calls)

     Called by h_psi:
     h_psi:calbec :      0.40s CPU      0.40s WALL (      70 calls)
     vloc_psi     :     16.20s CPU     16.24s WALL (      70 calls)
     add_vuspsi   :      0.45s CPU      0.45s WALL (      70 calls)

     General routines
     calbec       :      0.56s CPU      0.56s WALL (      91 calls)
     fft          :     16.13s CPU     16.90s WALL (     198 calls)
     ffts         :      0.56s CPU      0.56s WALL (      35 calls)
     fftw         :     14.53s CPU     14.56s WALL (     874 calls)
     interpolate  :      2.12s CPU      2.24s WALL (      18 calls)
 
     Parallel routines
 
     Environ routines
 
     PWSCF        :   2m15.17s CPU   2m32.78s WALL

 
   This run was terminated on:  15:20:39  25Sep2021            

=------------------------------------------------------------------------------=
   JOB DONE.
=------------------------------------------------------------------------------=
