
     Program PWSCF v.7.0 starts on  2May2022 at 20:27:20 

     This program is part of the open-source Quantum ESPRESSO suite
     for quantum simulation of materials; please cite
         "P. Giannozzi et al., J. Phys.:Condens. Matter 21 395502 (2009);
         "P. Giannozzi et al., J. Phys.:Condens. Matter 29 465901 (2017);
         "P. Giannozzi et al., J. Chem. Phys. 152 154105 (2020);
          URL http://www.quantum-espresso.org", 
     in publications or presentations arising from this work. More details at
     http://www.quantum-espresso.org/quote

     Parallel version (MPI), running on     1 processors

     MPI processes distributed on     1 nodes
     19432 MiB available memory on the printing compute node when the environment starts

     Waiting for input...
     Reading input from standard input

     Current dimensions of program PWSCF are:
     Max number of different atomic species (ntypx) = 10
     Max number of k-points (npk) =  40000
     Max angular momentum in pseudopotentials (lmaxx) =  4

     Reading input from environ.in:
     * using electronic solvent mode
     * setting boundary derivatives method to SCCS default
     
     file N.pbe-rrkjus.UPF: wavefunction(s)  2S renormalized
     file C.pbe-rrkjus.UPF: wavefunction(s)  2S 2P renormalized
     file H.pbe-rrkjus.UPF: wavefunction(s)  1S renormalized

     gamma-point specific algorithms are used

     Subspace diagonalization in iterative solution of the eigenvalue problem:
     a serial algorithm will be used


     G-vector sticks info
     --------------------
     sticks:   dense  smooth     PW     G-vecs:    dense   smooth      PW
     Sum       21465    8585   2145              2368925   599161   74773

     Using Slab Decomposition



     bravais-lattice index     =            1
     lattice parameter (alat)  =      30.0000  a.u.
     unit-cell volume          =   27000.0000 (a.u.)^3
     number of atoms/cell      =           12
     number of atomic types    =            3
     number of electrons       =        30.00
     number of Kohn-Sham states=           15
     kinetic-energy cutoff     =      30.0000  Ry
     charge density cutoff     =     300.0000  Ry
     scf convergence threshold =      5.0E-09
     mixing beta               =       0.4000
     number of iterations used =            8  plain     mixing
     Exchange-correlation= SLA  PW   PBE  PBE
                           (   1   4   3   4   0   0   0)

     ================================================================================

                                  Environ Setup Summary

     ================================================================================

     Please cite

          O. Andreussi, I. Dabo and N. Marzari, J. Chem. Phys. 136, 064102 (2012)

     in publications or presentations arising from this work.

     ================================================================================

     Parameters
     ==========

     compensation onset threshold      =               0.1000E+00

     Electrostatic Setup
     ===================

     electrostatic problem to solve    =                  poisson
     numerical solver adopted          =                   direct
     type of auxiliary density adopted =                     none
     numerical core for poisson        =                      fft

     ================================================================================


     celldm(1)=  30.000000  celldm(2)=   0.000000  celldm(3)=   0.000000
     celldm(4)=   0.000000  celldm(5)=   0.000000  celldm(6)=   0.000000

     crystal axes: (cart. coord. in units of alat)
               a(1) = (   1.000000   0.000000   0.000000 )  
               a(2) = (   0.000000   1.000000   0.000000 )  
               a(3) = (   0.000000   0.000000   1.000000 )  

     reciprocal axes: (cart. coord. in units 2 pi/alat)
               b(1) = (  1.000000  0.000000  0.000000 )  
               b(2) = (  0.000000  1.000000  0.000000 )  
               b(3) = (  0.000000  0.000000  1.000000 )  


     PseudoPot. # 1 for N  read from file:
     MD5 check sum: 28c76d763763edb36c62a6ca2be9aebd
     Pseudo is Ultrasoft, Zval =  5.0
     Generated by new atomic code, or converted to UPF format
     Using radial grid of 1257 points,  4 beta functions with: 
                l(1) =   0
                l(2) =   0
                l(3) =   1
                l(4) =   1
     Q(r) pseudized with 0 coefficients 


     PseudoPot. # 2 for C  read from file:
     MD5 check sum: c9ac5a99bc85b198593446162950cd17
     Pseudo is Ultrasoft, Zval =  4.0
     Generated by new atomic code, or converted to UPF format
     Using radial grid of  627 points,  4 beta functions with: 
                l(1) =   0
                l(2) =   0
                l(3) =   1
                l(4) =   1
     Q(r) pseudized with 0 coefficients 


     PseudoPot. # 3 for H  read from file:
     MD5 check sum: 2d52a7f45632fd764c17cc6affed14c8
     Pseudo is Ultrasoft, Zval =  1.0
     Generated by new atomic code, or converted to UPF format
     Using radial grid of 1061 points,  2 beta functions with: 
                l(1) =   0
                l(2) =   0
     Q(r) pseudized with 0 coefficients 


     atomic species   valence    mass     pseudopotential
        N              5.00    14.00000     N ( 1.00)
        C              4.00    12.00000     C ( 1.00)
        H              1.00     1.00000     H ( 1.00)

     No symmetry found


                                    s                        frac. trans.

      isym =  1     identity                                     

 cryst.   s( 1) = (     1          0          0      )
                  (     0          1          0      )
                  (     0          0          1      )

 cart.    s( 1) = (  1.0000000  0.0000000  0.0000000 )
                  (  0.0000000  1.0000000  0.0000000 )
                  (  0.0000000  0.0000000  1.0000000 )


     point group C_1 (1)    
     there are  1 classes
     the character table:

       E    
A      1.00

     the symmetry operations in each class and the name of the first element:

     E        1
          identity                                               

   Cartesian axes

     site n.     atom                  positions (alat units)
         1           H   tau(   1) = (  -0.1523532   0.0000000   0.0001258  )
         2           N   tau(   2) = (  -0.0815136   0.0000000   0.0001009  )
         3           C   tau(   3) = (  -0.0411048   0.0749119   0.0000692  )
         4           C   tau(   4) = (   0.0459374   0.0761731   0.0000488  )
         5           C   tau(   5) = (   0.0897978   0.0000000   0.0000440  )
         6           C   tau(   6) = (   0.0459374  -0.0761731   0.0000884  )
         7           C   tau(   7) = (  -0.0411048  -0.0749119   0.0001182  )
         8           H   tau(   8) = (  -0.0804244   0.1312714   0.0000570  )
         9           H   tau(   9) = (   0.0786365   0.1366241   0.0000268  )
        10           H   tau(  10) = (   0.1586195  -0.0000000   0.0000007  )
        11           H   tau(  11) = (   0.0786366  -0.1366241   0.0001069  )
        12           H   tau(  12) = (  -0.0804243  -0.1312713   0.0001627  )

   Crystallographic axes

     site n.     atom                  positions (cryst. coord.)
         1           H   tau(   1) = ( -0.1523532  0.0000000  0.0001258  )
         2           N   tau(   2) = ( -0.0815136  0.0000000  0.0001009  )
         3           C   tau(   3) = ( -0.0411048  0.0749119  0.0000692  )
         4           C   tau(   4) = (  0.0459374  0.0761731  0.0000488  )
         5           C   tau(   5) = (  0.0897978  0.0000000  0.0000440  )
         6           C   tau(   6) = (  0.0459374 -0.0761731  0.0000884  )
         7           C   tau(   7) = ( -0.0411048 -0.0749119  0.0001182  )
         8           H   tau(   8) = ( -0.0804244  0.1312714  0.0000570  )
         9           H   tau(   9) = (  0.0786365  0.1366241  0.0000268  )
        10           H   tau(  10) = (  0.1586195 -0.0000000  0.0000007  )
        11           H   tau(  11) = (  0.0786366 -0.1366241  0.0001069  )
        12           H   tau(  12) = ( -0.0804243 -0.1312713  0.0001627  )

     number of k points=     1
                       cart. coord. in units 2pi/alat
        k(    1) = (   0.0000000   0.0000000   0.0000000), wk =   2.0000000

                       cryst. coord.
        k(    1) = (   0.0000000   0.0000000   0.0000000), wk =   2.0000000

     Dense  grid:  1184463 G-vectors     FFT dimensions: ( 180, 180, 180)

     Smooth grid:   299581 G-vectors     FFT dimensions: ( 108, 108, 108)

     Dynamical RAM for                 wfc:       8.57 MB

     Dynamical RAM for     wfc (w. buffer):       8.57 MB

     Dynamical RAM for           str. fact:      54.22 MB

     Dynamical RAM for           local pot:       0.00 MB

     Dynamical RAM for          nlocal pot:      34.30 MB

     Dynamical RAM for                qrad:       1.19 MB

     Dynamical RAM for          rho,v,vnew:     187.70 MB

     Dynamical RAM for               rhoin:      62.57 MB

     Dynamical RAM for            rho*nmix:     289.18 MB

     Dynamical RAM for           G-vectors:      70.06 MB

     Dynamical RAM for          h,s,v(r/c):       0.02 MB

     Dynamical RAM for          <psi|beta>:       0.01 MB

     Dynamical RAM for                 psi:      17.15 MB

     Dynamical RAM for                hpsi:      17.15 MB

     Dynamical RAM for                spsi:      17.15 MB

     Dynamical RAM for      wfcinit/wfcrot:      34.32 MB

     Dynamical RAM for           addusdens:     885.60 MB

     Dynamical RAM for          addusforce:    1075.38 MB

     Estimated static dynamical RAM per process >     713.38 MB

     Estimated max dynamical RAM per process >       2.03 GB

     Initial potential from superposition of free atoms

     starting charge      30.4225, renormalised to      30.0000

     negative rho (up, down):  2.291E-03 0.000E+00
     Starting wfcs are   30 randomized atomic wfcs

     total cpu time spent up to now is       13.5 secs

     Self-consistent Calculation

     iteration #  1     ecut=    30.00 Ry     beta= 0.40
     Davidson diagonalization with overlap

---- Real-time Memory Report at c_bands before calling an iterative solver
          2113 MiB given to the printing process from OS
             0 MiB allocation reported by mallinfo(arena+hblkhd)
         18148 MiB available memory on the node where the printing process lives
------------------
     ethr =  1.00E-02,  avg # of iterations =  2.0

     negative rho (up, down):  1.380E-03 0.000E+00

     total cpu time spent up to now is       19.8 secs

     total energy              =     -83.59206833 Ry
     estimated scf accuracy    <       2.62358692 Ry
     electrostatic embedding   =       0.00000000 Ry
     correction to one-el term =      -0.00000000 Ry

     iteration #  2     ecut=    30.00 Ry     beta= 0.40
     Davidson diagonalization with overlap

---- Real-time Memory Report at c_bands before calling an iterative solver
          2297 MiB given to the printing process from OS
             0 MiB allocation reported by mallinfo(arena+hblkhd)
         18043 MiB available memory on the node where the printing process lives
------------------
     ethr =  8.75E-03,  avg # of iterations =  1.0

     negative rho (up, down):  2.076E-03 0.000E+00

     total cpu time spent up to now is       26.3 secs

     total energy              =     -83.41311002 Ry
     estimated scf accuracy    <       0.52518196 Ry
     electrostatic embedding   =       0.00000000 Ry
     correction to one-el term =      -0.00000000 Ry

     iteration #  3     ecut=    30.00 Ry     beta= 0.40
     Davidson diagonalization with overlap

---- Real-time Memory Report at c_bands before calling an iterative solver
          2307 MiB given to the printing process from OS
             0 MiB allocation reported by mallinfo(arena+hblkhd)
         17218 MiB available memory on the node where the printing process lives
------------------
     ethr =  1.75E-03,  avg # of iterations =  2.0

     negative rho (up, down):  1.620E-03 0.000E+00

     add environment contribution to local potential

     total cpu time spent up to now is       33.7 secs

     total energy              =     -83.45833567 Ry
     estimated scf accuracy    <       0.06606427 Ry
     electrostatic embedding   =       0.00000000 Ry
     correction to one-el term =      -0.00000000 Ry

     iteration #  4     ecut=    30.00 Ry     beta= 0.40
     Davidson diagonalization with overlap

---- Real-time Memory Report at c_bands before calling an iterative solver
          2325 MiB given to the printing process from OS
             0 MiB allocation reported by mallinfo(arena+hblkhd)
         18015 MiB available memory on the node where the printing process lives
------------------
     ethr =  2.20E-04,  avg # of iterations =  2.0

     negative rho (up, down):  1.193E-03 0.000E+00

     add environment contribution to local potential

     total cpu time spent up to now is       41.3 secs

     total energy              =     -83.46838261 Ry
     estimated scf accuracy    <       0.00855405 Ry
     electrostatic embedding   =       0.00000000 Ry
     correction to one-el term =      -0.00000000 Ry

     iteration #  5     ecut=    30.00 Ry     beta= 0.40
     Davidson diagonalization with overlap

---- Real-time Memory Report at c_bands before calling an iterative solver
          2334 MiB given to the printing process from OS
             0 MiB allocation reported by mallinfo(arena+hblkhd)
         18007 MiB available memory on the node where the printing process lives
------------------
     ethr =  2.85E-05,  avg # of iterations =  2.0

     negative rho (up, down):  8.866E-04 0.000E+00

     add environment contribution to local potential

     total cpu time spent up to now is       48.7 secs

     total energy              =     -83.46762943 Ry
     estimated scf accuracy    <       0.00216825 Ry
     electrostatic embedding   =       0.00000000 Ry
     correction to one-el term =      -0.00000000 Ry

     iteration #  6     ecut=    30.00 Ry     beta= 0.40
     Davidson diagonalization with overlap

---- Real-time Memory Report at c_bands before calling an iterative solver
          2344 MiB given to the printing process from OS
             0 MiB allocation reported by mallinfo(arena+hblkhd)
         17999 MiB available memory on the node where the printing process lives
------------------
     ethr =  7.23E-06,  avg # of iterations =  5.0

     negative rho (up, down):  6.566E-04 0.000E+00

     add environment contribution to local potential

     total cpu time spent up to now is       56.5 secs

     total energy              =     -83.46873373 Ry
     estimated scf accuracy    <       0.00306014 Ry
     electrostatic embedding   =       0.00000000 Ry
     correction to one-el term =      -0.00000000 Ry

     iteration #  7     ecut=    30.00 Ry     beta= 0.40
     Davidson diagonalization with overlap

---- Real-time Memory Report at c_bands before calling an iterative solver
          2353 MiB given to the printing process from OS
             0 MiB allocation reported by mallinfo(arena+hblkhd)
         17990 MiB available memory on the node where the printing process lives
------------------
     ethr =  7.23E-06,  avg # of iterations =  2.0

     negative rho (up, down):  6.016E-04 0.000E+00

     add environment contribution to local potential

     total cpu time spent up to now is       64.2 secs

     total energy              =     -83.46827308 Ry
     estimated scf accuracy    <       0.00102602 Ry
     electrostatic embedding   =       0.00000000 Ry
     correction to one-el term =      -0.00000000 Ry

     iteration #  8     ecut=    30.00 Ry     beta= 0.40
     Davidson diagonalization with overlap

---- Real-time Memory Report at c_bands before calling an iterative solver
          2362 MiB given to the printing process from OS
             0 MiB allocation reported by mallinfo(arena+hblkhd)
         17982 MiB available memory on the node where the printing process lives
------------------
     ethr =  3.42E-06,  avg # of iterations =  4.0

     negative rho (up, down):  5.070E-04 0.000E+00

     add environment contribution to local potential

     total cpu time spent up to now is       71.9 secs

     total energy              =     -83.46871118 Ry
     estimated scf accuracy    <       0.00032806 Ry
     electrostatic embedding   =       0.00000000 Ry
     correction to one-el term =      -0.00000000 Ry

     iteration #  9     ecut=    30.00 Ry     beta= 0.40
     Davidson diagonalization with overlap

---- Real-time Memory Report at c_bands before calling an iterative solver
          2371 MiB given to the printing process from OS
             0 MiB allocation reported by mallinfo(arena+hblkhd)
         17972 MiB available memory on the node where the printing process lives
------------------
     ethr =  1.09E-06,  avg # of iterations =  1.0

     negative rho (up, down):  6.114E-04 0.000E+00

     add environment contribution to local potential

     total cpu time spent up to now is       78.4 secs

     total energy              =     -83.46866641 Ry
     estimated scf accuracy    <       0.00014827 Ry
     electrostatic embedding   =       0.00000000 Ry
     correction to one-el term =      -0.00000000 Ry

     iteration # 10     ecut=    30.00 Ry     beta= 0.40
     Davidson diagonalization with overlap

---- Real-time Memory Report at c_bands before calling an iterative solver
          2380 MiB given to the printing process from OS
             0 MiB allocation reported by mallinfo(arena+hblkhd)
         17963 MiB available memory on the node where the printing process lives
------------------
     ethr =  4.94E-07,  avg # of iterations =  4.0

     negative rho (up, down):  5.901E-04 0.000E+00

     add environment contribution to local potential

     total cpu time spent up to now is       86.1 secs

     total energy              =     -83.46869815 Ry
     estimated scf accuracy    <       0.00000991 Ry
     electrostatic embedding   =       0.00000000 Ry
     correction to one-el term =      -0.00000000 Ry

     iteration # 11     ecut=    30.00 Ry     beta= 0.40
     Davidson diagonalization with overlap

---- Real-time Memory Report at c_bands before calling an iterative solver
          2380 MiB given to the printing process from OS
             0 MiB allocation reported by mallinfo(arena+hblkhd)
         17962 MiB available memory on the node where the printing process lives
------------------
     ethr =  3.30E-08,  avg # of iterations =  4.0

     negative rho (up, down):  5.855E-04 0.000E+00

     add environment contribution to local potential

     total cpu time spent up to now is       93.9 secs

     total energy              =     -83.46869864 Ry
     estimated scf accuracy    <       0.00000221 Ry
     electrostatic embedding   =       0.00000000 Ry
     correction to one-el term =      -0.00000000 Ry

     iteration # 12     ecut=    30.00 Ry     beta= 0.40
     Davidson diagonalization with overlap

---- Real-time Memory Report at c_bands before calling an iterative solver
          2380 MiB given to the printing process from OS
             0 MiB allocation reported by mallinfo(arena+hblkhd)
         17962 MiB available memory on the node where the printing process lives
------------------
     ethr =  7.38E-09,  avg # of iterations =  2.0

     negative rho (up, down):  6.025E-04 0.000E+00

     add environment contribution to local potential

     total cpu time spent up to now is      101.9 secs

     total energy              =     -83.46869896 Ry
     estimated scf accuracy    <       0.00000041 Ry
     electrostatic embedding   =       0.00000000 Ry
     correction to one-el term =      -0.00000000 Ry

     iteration # 13     ecut=    30.00 Ry     beta= 0.40
     Davidson diagonalization with overlap

---- Real-time Memory Report at c_bands before calling an iterative solver
          2380 MiB given to the printing process from OS
             0 MiB allocation reported by mallinfo(arena+hblkhd)
         17144 MiB available memory on the node where the printing process lives
------------------
     ethr =  1.37E-09,  avg # of iterations =  5.0

     negative rho (up, down):  6.074E-04 0.000E+00

     add environment contribution to local potential

     total cpu time spent up to now is      110.1 secs

     total energy              =     -83.46869913 Ry
     estimated scf accuracy    <       0.00000037 Ry
     electrostatic embedding   =       0.00000000 Ry
     correction to one-el term =      -0.00000000 Ry

     iteration # 14     ecut=    30.00 Ry     beta= 0.40
     Davidson diagonalization with overlap

---- Real-time Memory Report at c_bands before calling an iterative solver
          2380 MiB given to the printing process from OS
             0 MiB allocation reported by mallinfo(arena+hblkhd)
         17147 MiB available memory on the node where the printing process lives
------------------
     ethr =  1.23E-09,  avg # of iterations =  2.0

     negative rho (up, down):  6.106E-04 0.000E+00

     add environment contribution to local potential

     total cpu time spent up to now is      117.9 secs

     total energy              =     -83.46869908 Ry
     estimated scf accuracy    <       0.00000013 Ry
     electrostatic embedding   =       0.00000000 Ry
     correction to one-el term =      -0.00000000 Ry

     iteration # 15     ecut=    30.00 Ry     beta= 0.40
     Davidson diagonalization with overlap

---- Real-time Memory Report at c_bands before calling an iterative solver
          2380 MiB given to the printing process from OS
             0 MiB allocation reported by mallinfo(arena+hblkhd)
         17962 MiB available memory on the node where the printing process lives
------------------
     ethr =  4.37E-10,  avg # of iterations =  5.0

     negative rho (up, down):  6.101E-04 0.000E+00

     add environment contribution to local potential

     total cpu time spent up to now is      125.5 secs

     total energy              =     -83.46869912 Ry
     estimated scf accuracy    <          7.0E-09 Ry
     electrostatic embedding   =       0.00000000 Ry
     correction to one-el term =      -0.00000000 Ry

     iteration # 16     ecut=    30.00 Ry     beta= 0.40
     Davidson diagonalization with overlap

---- Real-time Memory Report at c_bands before calling an iterative solver
          2380 MiB given to the printing process from OS
             0 MiB allocation reported by mallinfo(arena+hblkhd)
         17962 MiB available memory on the node where the printing process lives
------------------
     ethr =  2.34E-11,  avg # of iterations =  3.0

     negative rho (up, down):  6.100E-04 0.000E+00

     the potential shift due to the Gaussian-smeared nuclei is    -0.0245 ev

     total cpu time spent up to now is      131.9 secs

     End of self-consistent calculation

          k = 0.0000 0.0000 0.0000 ( 37387 PWs)   bands (ev):

   -27.9379 -23.1736 -22.4002 -19.0529 -18.9144 -17.1116 -15.1978 -14.7224
   -14.0590 -13.6870 -13.6547 -11.8147 -11.6713 -10.4786  -9.7686

     occupation numbers 
     1.0000   1.0000   1.0000   1.0000   1.0000   1.0000   1.0000   1.0000
     1.0000   1.0000   1.0000   1.0000   1.0000   1.0000   1.0000

     highest occupied level (ev):    -9.7686

!    total energy              =     -83.46869912 Ry
     estimated scf accuracy    <          1.5E-09 Ry

     The total energy is the sum of the following terms:
     one-electron contribution =    -378.73957710 Ry
     hartree contribution      =     188.43240236 Ry
     xc contribution           =     -26.14176337 Ry
     ewald contribution        =     132.98023899 Ry
     electrostatic embedding   =       0.00000000 Ry
     correction to one-el term =      -0.00000000 Ry

     convergence has been achieved in  16 iterations
     The dielectric solvent contribution to forces
     atom    1 type  3   force =    -0.00000000   -0.00000000   -0.00000000
     atom    2 type  1   force =    -0.00000000   -0.00000000   -0.00000000
     atom    3 type  2   force =    -0.00000000   -0.00000000   -0.00000000
     atom    4 type  2   force =    -0.00000000   -0.00000000   -0.00000000
     atom    5 type  2   force =    -0.00000000   -0.00000000   -0.00000000
     atom    6 type  2   force =    -0.00000000   -0.00000000   -0.00000000
     atom    7 type  2   force =    -0.00000000   -0.00000000   -0.00000000
     atom    8 type  3   force =    -0.00000000   -0.00000000   -0.00000000
     atom    9 type  3   force =    -0.00000000   -0.00000000   -0.00000000
     atom   10 type  3   force =    -0.00000000   -0.00000000   -0.00000000
     atom   11 type  3   force =    -0.00000000   -0.00000000   -0.00000000
     atom   12 type  3   force =    -0.00000000   -0.00000000   -0.00000000


     Forces acting on atoms (cartesian axes, Ry/au):

     atom    1 type  3   force =     0.12202814    0.00000000   -0.00005202
     atom    2 type  1   force =    -0.11570796    0.00000011    0.00006764
     atom    3 type  2   force =    -0.00697436    0.00257912    0.00000551
     atom    4 type  2   force =     0.00126792    0.00356541   -0.00003838
     atom    5 type  2   force =     0.00607119   -0.00000023   -0.00000541
     atom    6 type  2   force =     0.00126745   -0.00356522    0.00000563
     atom    7 type  2   force =    -0.00697397   -0.00257968    0.00002660
     atom    8 type  3   force =     0.00322907   -0.00350930    0.00000948
     atom    9 type  3   force =    -0.00169614   -0.00407159   -0.00000827
     atom   10 type  3   force =    -0.00404447    0.00000008    0.00002813
     atom   11 type  3   force =    -0.00169612    0.00407167   -0.00002075
     atom   12 type  3   force =     0.00322924    0.00350962   -0.00001814
     The non-local contrib.  to forces
     atom    1 type  3   force =     0.14159434   -0.00000002   -0.00005030
     atom    2 type  1   force =    -0.01410619    0.00000021    0.00020439
     atom    3 type  2   force =    -0.10292376   -0.31216630    0.00008256
     atom    4 type  2   force =    -0.11695651   -0.10150594    0.00001536
     atom    5 type  2   force =    -0.12151847    0.00000006    0.00006057
     atom    6 type  2   force =    -0.11695668    0.10150588    0.00001890
     atom    7 type  2   force =    -0.10292395    0.31216637   -0.00010277
     atom    8 type  3   force =     0.08641039   -0.12975729    0.00003045
     atom    9 type  3   force =    -0.07352060   -0.13450891    0.00004752
     atom   10 type  3   force =    -0.15347590    0.00000003    0.00010083
     atom   11 type  3   force =    -0.07352064    0.13450893   -0.00004351
     atom   12 type  3   force =     0.08641033    0.12975726   -0.00010263
     The ionic contribution  to forces
     atom    1 type  3   force =    -3.67662239    0.00000030    0.00120661
     atom    2 type  1   force =    -9.04849811    0.00000171    0.00169003
     atom    3 type  2   force =    -2.83977692    7.52144304   -0.00133586
     atom    4 type  2   force =     4.02437581    6.36088998   -0.00184150
     atom    5 type  2   force =     7.36794959   -0.00000117   -0.00322235
     atom    6 type  2   force =     4.02437706   -6.36089010    0.00065933
     atom    7 type  2   force =    -2.83977445   -7.52144390    0.00358714
     atom    8 type  3   force =    -1.82448734    2.93050813   -0.00062241
     atom    9 type  3   force =     1.64556721    2.93750990   -0.00103497
     atom   10 type  3   force =     3.34580841   -0.00000047   -0.00200043
     atom   11 type  3   force =     1.64556751   -2.93750965    0.00079776
     atom   12 type  3   force =    -1.82448639   -2.93050779    0.00211666
     The local contribution  to forces
     atom    1 type  3   force =     3.65707503   -0.00000030   -0.00120674
     atom    2 type  1   force =     8.94693290   -0.00000100   -0.00182461
     atom    3 type  2   force =     2.93577527   -7.20669354    0.00126071
     atom    4 type  2   force =    -3.90609698   -6.25583988    0.00178934
     atom    5 type  2   force =    -7.24033722    0.00000175    0.00315807
     atom    6 type  2   force =    -3.90609817    6.25584027   -0.00067073
     atom    7 type  2   force =     2.93577271    7.20669386   -0.00345637
     atom    8 type  3   force =     1.74132713   -2.80425788    0.00060299
     atom    9 type  3   force =    -1.57372097   -2.80707568    0.00098067
     atom   10 type  3   force =    -3.19636005    0.00000051    0.00192926
     atom   11 type  3   force =    -1.57372116    2.80707527   -0.00077350
     atom   12 type  3   force =     1.74132633    2.80425766   -0.00203066
     The core correction contribution to forces
     atom    1 type  3   force =     0.00000000    0.00000000    0.00000000
     atom    2 type  1   force =     0.00000000    0.00000000    0.00000000
     atom    3 type  2   force =     0.00000000    0.00000000    0.00000000
     atom    4 type  2   force =     0.00000000    0.00000000    0.00000000
     atom    5 type  2   force =     0.00000000    0.00000000    0.00000000
     atom    6 type  2   force =     0.00000000    0.00000000    0.00000000
     atom    7 type  2   force =     0.00000000    0.00000000    0.00000000
     atom    8 type  3   force =     0.00000000    0.00000000    0.00000000
     atom    9 type  3   force =     0.00000000    0.00000000    0.00000000
     atom   10 type  3   force =     0.00000000    0.00000000    0.00000000
     atom   11 type  3   force =     0.00000000    0.00000000    0.00000000
     atom   12 type  3   force =     0.00000000    0.00000000    0.00000000
     The Hubbard contrib.    to forces
     atom    1 type  3   force =     0.00000000    0.00000000    0.00000000
     atom    2 type  1   force =     0.00000000    0.00000000    0.00000000
     atom    3 type  2   force =     0.00000000    0.00000000    0.00000000
     atom    4 type  2   force =     0.00000000    0.00000000    0.00000000
     atom    5 type  2   force =     0.00000000    0.00000000    0.00000000
     atom    6 type  2   force =     0.00000000    0.00000000    0.00000000
     atom    7 type  2   force =     0.00000000    0.00000000    0.00000000
     atom    8 type  3   force =     0.00000000    0.00000000    0.00000000
     atom    9 type  3   force =     0.00000000    0.00000000    0.00000000
     atom   10 type  3   force =     0.00000000    0.00000000    0.00000000
     atom   11 type  3   force =     0.00000000    0.00000000    0.00000000
     atom   12 type  3   force =     0.00000000    0.00000000    0.00000000
     The SCF correction term to forces
     atom    1 type  3   force =     0.00000195   -0.00000004   -0.00000009
     atom    2 type  1   force =    -0.00001577   -0.00000088   -0.00000065
     atom    3 type  2   force =    -0.00002815   -0.00000416   -0.00000040
     atom    4 type  2   force =    -0.00003360    0.00002119   -0.00000008
     atom    5 type  2   force =    -0.00000192   -0.00000094   -0.00000020
     atom    6 type  2   force =    -0.00003396   -0.00002135   -0.00000037
     atom    7 type  2   force =    -0.00002748    0.00000391    0.00000010
     atom    8 type  3   force =    -0.00000032   -0.00000234   -0.00000004
     atom    9 type  3   force =    -0.00000098    0.00000303    0.00000002
     atom   10 type  3   force =     0.00000387   -0.00000006   -0.00000002
     atom   11 type  3   force =    -0.00000104   -0.00000295    0.00000000
     atom   12 type  3   force =    -0.00000025    0.00000242   -0.00000002

     Total force =     0.168985     Total SCF correction =     0.000071


     init_run     :     12.50s CPU     13.43s WALL (       1 calls)
     electrons    :    101.19s CPU    118.47s WALL (       1 calls)
     forces       :      5.64s CPU      6.18s WALL (       1 calls)

     Called by init_run:
     wfcinit      :      0.88s CPU      0.93s WALL (       1 calls)
     wfcinit:atom :      0.13s CPU      0.15s WALL (       1 calls)
     wfcinit:wfcr :      0.68s CPU      0.69s WALL (       1 calls)
     potinit      :      1.77s CPU      2.18s WALL (       1 calls)
     hinit0       :      7.86s CPU      7.98s WALL (       1 calls)

     Called by electrons:
     c_bands      :     17.49s CPU     17.71s WALL (      16 calls)
     sum_band     :     25.27s CPU     30.79s WALL (      16 calls)
     v_of_rho     :     25.39s CPU     29.94s WALL (      17 calls)
     v_h          :      2.25s CPU      2.91s WALL (      17 calls)
     v_xc         :     23.14s CPU     27.03s WALL (      17 calls)
     newd         :     15.10s CPU     21.07s WALL (      17 calls)
     mix_rho      :      4.80s CPU      4.83s WALL (      16 calls)

     Called by c_bands:
     init_us_2    :      0.49s CPU      0.70s WALL (      33 calls)
     init_us_2:cp :      0.49s CPU      0.70s WALL (      33 calls)
     regterg      :     16.65s CPU     16.67s WALL (      16 calls)

     Called by sum_band:
     sum_band:wei :      0.00s CPU      0.00s WALL (      16 calls)
     sum_band:loo :      3.45s CPU      3.45s WALL (      16 calls)
     sum_band:buf :      0.00s CPU      0.00s WALL (      16 calls)
     sum_band:ini :      0.23s CPU      0.23s WALL (      16 calls)
     sum_band:cal :      0.12s CPU      0.12s WALL (      16 calls)
     sum_band:bec :      0.00s CPU      0.00s WALL (      16 calls)
     addusdens    :     18.92s CPU     24.25s WALL (      16 calls)
     addusd:skk   :      0.95s CPU      1.24s WALL (      48 calls)
     addusd:dgemm :      2.80s CPU      7.36s WALL (      48 calls)
     addusd:qvan2 :     12.37s CPU     12.60s WALL (      48 calls)

     Called by *egterg:
     rdiaghg      :      0.02s CPU      0.02s WALL (      62 calls)
     regterg:over :      0.23s CPU      0.23s WALL (      46 calls)
     regterg:upda :      0.18s CPU      0.18s WALL (      46 calls)
     regterg:last :      0.33s CPU      0.33s WALL (      33 calls)
     h_psi        :     15.84s CPU     15.86s WALL (      63 calls)
     s_psi        :      0.40s CPU      0.40s WALL (      63 calls)
     g_psi        :      0.08s CPU      0.08s WALL (      46 calls)

     Called by h_psi:
     h_psi:calbec :      0.36s CPU      0.36s WALL (      63 calls)
     vloc_psi     :     15.01s CPU     15.02s WALL (      63 calls)
     add_vuspsi   :      0.40s CPU      0.40s WALL (      63 calls)

     General routines
     calbec       :      0.52s CPU      0.52s WALL (      83 calls)
     fft          :     15.48s CPU     16.09s WALL (     187 calls)
     ffts         :      0.53s CPU      0.53s WALL (      33 calls)
     fftw         :     14.12s CPU     14.12s WALL (     826 calls)
     interpolate  :      2.06s CPU      2.40s WALL (      17 calls)

     Parallel routines

     Environ routines

     PWSCF        :   1m59.47s CPU   2m18.27s WALL


   This run was terminated on:  20:29:38   2May2022            

=------------------------------------------------------------------------------=
   JOB DONE.
=------------------------------------------------------------------------------=
