
     Program PWSCF v.7.0 starts on  2May2022 at 20:56:31 

     This program is part of the open-source Quantum ESPRESSO suite
     for quantum simulation of materials; please cite
         "P. Giannozzi et al., J. Phys.:Condens. Matter 21 395502 (2009);
         "P. Giannozzi et al., J. Phys.:Condens. Matter 29 465901 (2017);
         "P. Giannozzi et al., J. Chem. Phys. 152 154105 (2020);
          URL http://www.quantum-espresso.org", 
     in publications or presentations arising from this work. More details at
     http://www.quantum-espresso.org/quote

     Parallel version (MPI), running on     1 processors

     MPI processes distributed on     1 nodes
     19429 MiB available memory on the printing compute node when the environment starts

     Waiting for input...
     Reading input from standard input

     Current dimensions of program PWSCF are:
     Max number of different atomic species (ntypx) = 10
     Max number of k-points (npk) =  40000
     Max angular momentum in pseudopotentials (lmaxx) =  4

     Reading input from environ.in:
     * using electronic solvent mode
     * setting boundary derivatives method to SCCS default
     
     file N.pbe-rrkjus.UPF: wavefunction(s)  2S renormalized
     file C.pbe-rrkjus.UPF: wavefunction(s)  2S 2P renormalized
     file H.pbe-rrkjus.UPF: wavefunction(s)  1S renormalized

     gamma-point specific algorithms are used

     Subspace diagonalization in iterative solution of the eigenvalue problem:
     a serial algorithm will be used


     G-vector sticks info
     --------------------
     sticks:   dense  smooth     PW     G-vecs:    dense   smooth      PW
     Sum       21465    8585   2145              2368925   599161   74773

     Using Slab Decomposition



     bravais-lattice index     =            1
     lattice parameter (alat)  =      30.0000  a.u.
     unit-cell volume          =   27000.0000 (a.u.)^3
     number of atoms/cell      =           12
     number of atomic types    =            3
     number of electrons       =        30.00
     number of Kohn-Sham states=           15
     kinetic-energy cutoff     =      30.0000  Ry
     charge density cutoff     =     300.0000  Ry
     scf convergence threshold =      5.0E-09
     mixing beta               =       0.4000
     number of iterations used =            8  plain     mixing
     Exchange-correlation= SLA  PW   PBE  PBE
                           (   1   4   3   4   0   0   0)

     ================================================================================

                                  Environ Setup Summary

     ================================================================================

     Please cite

          O. Andreussi, I. Dabo and N. Marzari, J. Chem. Phys. 136, 064102 (2012)

     in publications or presentations arising from this work.

     ================================================================================

     Parameters
     ==========

     compensation onset threshold      =               0.1000E+00
     static permittivity               =                    80.00

     Solvent Boundary
     ================

     solvent mode                      =               electronic
     derivatives method                =                    chain
     numerical core for derivatives    =                      fft
     switching function adopted        =                     SCCS
     density limit for vacuum region   =               0.5000E-02
     density limit for bulk solvent    =               0.1000E-03

     Electrostatic Setup
     ===================

     electrostatic problem to solve    =              generalized
     numerical solver adopted          =                       cg
     type of auxiliary density adopted =                     none
     numerical core for poisson        =                      fft
     type of pbc corrections           =                parabolic
     numerical core for corrections    =                      1da

     ================================================================================


     celldm(1)=  30.000000  celldm(2)=   0.000000  celldm(3)=   0.000000
     celldm(4)=   0.000000  celldm(5)=   0.000000  celldm(6)=   0.000000

     crystal axes: (cart. coord. in units of alat)
               a(1) = (   1.000000   0.000000   0.000000 )  
               a(2) = (   0.000000   1.000000   0.000000 )  
               a(3) = (   0.000000   0.000000   1.000000 )  

     reciprocal axes: (cart. coord. in units 2 pi/alat)
               b(1) = (  1.000000  0.000000  0.000000 )  
               b(2) = (  0.000000  1.000000  0.000000 )  
               b(3) = (  0.000000  0.000000  1.000000 )  


     PseudoPot. # 1 for N  read from file:
     MD5 check sum: 28c76d763763edb36c62a6ca2be9aebd
     Pseudo is Ultrasoft, Zval =  5.0
     Generated by new atomic code, or converted to UPF format
     Using radial grid of 1257 points,  4 beta functions with: 
                l(1) =   0
                l(2) =   0
                l(3) =   1
                l(4) =   1
     Q(r) pseudized with 0 coefficients 


     PseudoPot. # 2 for C  read from file:
     MD5 check sum: c9ac5a99bc85b198593446162950cd17
     Pseudo is Ultrasoft, Zval =  4.0
     Generated by new atomic code, or converted to UPF format
     Using radial grid of  627 points,  4 beta functions with: 
                l(1) =   0
                l(2) =   0
                l(3) =   1
                l(4) =   1
     Q(r) pseudized with 0 coefficients 


     PseudoPot. # 3 for H  read from file:
     MD5 check sum: 2d52a7f45632fd764c17cc6affed14c8
     Pseudo is Ultrasoft, Zval =  1.0
     Generated by new atomic code, or converted to UPF format
     Using radial grid of 1061 points,  2 beta functions with: 
                l(1) =   0
                l(2) =   0
     Q(r) pseudized with 0 coefficients 


     atomic species   valence    mass     pseudopotential
        N              5.00    14.00000     N ( 1.00)
        C              4.00    12.00000     C ( 1.00)
        H              1.00     1.00000     H ( 1.00)

     No symmetry found


                                    s                        frac. trans.

      isym =  1     identity                                     

 cryst.   s( 1) = (     1          0          0      )
                  (     0          1          0      )
                  (     0          0          1      )

 cart.    s( 1) = (  1.0000000  0.0000000  0.0000000 )
                  (  0.0000000  1.0000000  0.0000000 )
                  (  0.0000000  0.0000000  1.0000000 )


     point group C_1 (1)    
     there are  1 classes
     the character table:

       E    
A      1.00

     the symmetry operations in each class and the name of the first element:

     E        1
          identity                                               

   Cartesian axes

     site n.     atom                  positions (alat units)
         1           H   tau(   1) = (  -0.1523532   0.0000000   0.0001258  )
         2           N   tau(   2) = (  -0.0815136   0.0000000   0.0001009  )
         3           C   tau(   3) = (  -0.0411048   0.0749119   0.0000692  )
         4           C   tau(   4) = (   0.0459374   0.0761731   0.0000488  )
         5           C   tau(   5) = (   0.0897978   0.0000000   0.0000440  )
         6           C   tau(   6) = (   0.0459374  -0.0761731   0.0000884  )
         7           C   tau(   7) = (  -0.0411048  -0.0749119   0.0001182  )
         8           H   tau(   8) = (  -0.0804244   0.1312714   0.0000570  )
         9           H   tau(   9) = (   0.0786365   0.1366241   0.0000268  )
        10           H   tau(  10) = (   0.1586195  -0.0000000   0.0000007  )
        11           H   tau(  11) = (   0.0786366  -0.1366241   0.0001069  )
        12           H   tau(  12) = (  -0.0804243  -0.1312713   0.0001627  )

   Crystallographic axes

     site n.     atom                  positions (cryst. coord.)
         1           H   tau(   1) = ( -0.1523532  0.0000000  0.0001258  )
         2           N   tau(   2) = ( -0.0815136  0.0000000  0.0001009  )
         3           C   tau(   3) = ( -0.0411048  0.0749119  0.0000692  )
         4           C   tau(   4) = (  0.0459374  0.0761731  0.0000488  )
         5           C   tau(   5) = (  0.0897978  0.0000000  0.0000440  )
         6           C   tau(   6) = (  0.0459374 -0.0761731  0.0000884  )
         7           C   tau(   7) = ( -0.0411048 -0.0749119  0.0001182  )
         8           H   tau(   8) = ( -0.0804244  0.1312714  0.0000570  )
         9           H   tau(   9) = (  0.0786365  0.1366241  0.0000268  )
        10           H   tau(  10) = (  0.1586195 -0.0000000  0.0000007  )
        11           H   tau(  11) = (  0.0786366 -0.1366241  0.0001069  )
        12           H   tau(  12) = ( -0.0804243 -0.1312713  0.0001627  )

     number of k points=     1
                       cart. coord. in units 2pi/alat
        k(    1) = (   0.0000000   0.0000000   0.0000000), wk =   2.0000000

                       cryst. coord.
        k(    1) = (   0.0000000   0.0000000   0.0000000), wk =   2.0000000

     Dense  grid:  1184463 G-vectors     FFT dimensions: ( 180, 180, 180)

     Smooth grid:   299581 G-vectors     FFT dimensions: ( 108, 108, 108)

     Dynamical RAM for                 wfc:       8.57 MB

     Dynamical RAM for     wfc (w. buffer):       8.57 MB

     Dynamical RAM for           str. fact:      54.22 MB

     Dynamical RAM for           local pot:       0.00 MB

     Dynamical RAM for          nlocal pot:      34.30 MB

     Dynamical RAM for                qrad:       1.19 MB

     Dynamical RAM for          rho,v,vnew:     187.70 MB

     Dynamical RAM for               rhoin:      62.57 MB

     Dynamical RAM for            rho*nmix:     289.18 MB

     Dynamical RAM for           G-vectors:      70.06 MB

     Dynamical RAM for          h,s,v(r/c):       0.02 MB

     Dynamical RAM for          <psi|beta>:       0.01 MB

     Dynamical RAM for                 psi:      17.15 MB

     Dynamical RAM for                hpsi:      17.15 MB

     Dynamical RAM for                spsi:      17.15 MB

     Dynamical RAM for      wfcinit/wfcrot:      34.32 MB

     Dynamical RAM for           addusdens:     885.60 MB

     Dynamical RAM for          addusforce:    1075.38 MB

     Estimated static dynamical RAM per process >     713.38 MB

     Estimated max dynamical RAM per process >       2.03 GB

     Initial potential from superposition of free atoms

     starting charge      30.4225, renormalised to      30.0000

     negative rho (up, down):  2.291E-03 0.000E+00
     Starting wfcs are   30 randomized atomic wfcs

     total cpu time spent up to now is       16.1 secs

     Self-consistent Calculation

     iteration #  1     ecut=    30.00 Ry     beta= 0.40
     Davidson diagonalization with overlap

---- Real-time Memory Report at c_bands before calling an iterative solver
          3251 MiB given to the printing process from OS
             0 MiB allocation reported by mallinfo(arena+hblkhd)
         17007 MiB available memory on the node where the printing process lives
------------------
     ethr =  1.00E-02,  avg # of iterations =  2.0

     negative rho (up, down):  1.380E-03 0.000E+00

     total cpu time spent up to now is       25.3 secs

     total energy              =     -83.59026482 Ry
     estimated scf accuracy    <       2.62358692 Ry
     electrostatic embedding   =       0.00180351 Ry
     correction to one-el term =      -0.00000000 Ry

     iteration #  2     ecut=    30.00 Ry     beta= 0.40
     Davidson diagonalization with overlap

---- Real-time Memory Report at c_bands before calling an iterative solver
          3433 MiB given to the printing process from OS
             0 MiB allocation reported by mallinfo(arena+hblkhd)
         16090 MiB available memory on the node where the printing process lives
------------------
     ethr =  8.75E-03,  avg # of iterations =  1.0

     negative rho (up, down):  2.076E-03 0.000E+00

     total cpu time spent up to now is       33.7 secs

     total energy              =     -83.41130651 Ry
     estimated scf accuracy    <       0.52518196 Ry
     electrostatic embedding   =       0.00180351 Ry
     correction to one-el term =      -0.00000000 Ry

     iteration #  3     ecut=    30.00 Ry     beta= 0.40
     Davidson diagonalization with overlap

---- Real-time Memory Report at c_bands before calling an iterative solver
          3442 MiB given to the printing process from OS
             0 MiB allocation reported by mallinfo(arena+hblkhd)
         16896 MiB available memory on the node where the printing process lives
------------------
     ethr =  1.75E-03,  avg # of iterations =  2.0

     negative rho (up, down):  1.620E-03 0.000E+00

     add environment contribution to local potential

     total cpu time spent up to now is       66.4 secs

     total energy              =     -83.45653216 Ry
     estimated scf accuracy    <       0.06606427 Ry
     electrostatic embedding   =       0.00180351 Ry
     correction to one-el term =      -0.00000000 Ry

     iteration #  4     ecut=    30.00 Ry     beta= 0.40
     Davidson diagonalization with overlap

---- Real-time Memory Report at c_bands before calling an iterative solver
          3460 MiB given to the printing process from OS
             0 MiB allocation reported by mallinfo(arena+hblkhd)
         16879 MiB available memory on the node where the printing process lives
------------------
     ethr =  2.20E-04,  avg # of iterations =  4.0

     negative rho (up, down):  1.174E-03 0.000E+00

     add environment contribution to local potential

     total cpu time spent up to now is      101.0 secs

     total energy              =     -83.56658593 Ry
     estimated scf accuracy    <       0.02358915 Ry
     electrostatic embedding   =      -0.11050359 Ry
     correction to one-el term =      -5.43775710 Ry

     iteration #  5     ecut=    30.00 Ry     beta= 0.40
     Davidson diagonalization with overlap

---- Real-time Memory Report at c_bands before calling an iterative solver
          3470 MiB given to the printing process from OS
             0 MiB allocation reported by mallinfo(arena+hblkhd)
         16868 MiB available memory on the node where the printing process lives
------------------
     ethr =  7.86E-05,  avg # of iterations =  2.0

     negative rho (up, down):  7.970E-04 0.000E+00

     add environment contribution to local potential

     total cpu time spent up to now is      134.9 secs

     total energy              =     -83.56494661 Ry
     estimated scf accuracy    <       0.00760658 Ry
     electrostatic embedding   =      -0.10480995 Ry
     correction to one-el term =      -5.23908760 Ry

     iteration #  6     ecut=    30.00 Ry     beta= 0.40
     Davidson diagonalization with overlap

---- Real-time Memory Report at c_bands before calling an iterative solver
          3479 MiB given to the printing process from OS
             0 MiB allocation reported by mallinfo(arena+hblkhd)
         16859 MiB available memory on the node where the printing process lives
------------------
     ethr =  2.54E-05,  avg # of iterations =  4.0

     negative rho (up, down):  6.213E-04 0.000E+00

     add environment contribution to local potential

     total cpu time spent up to now is      170.0 secs

     total energy              =     -83.56920821 Ry
     estimated scf accuracy    <       0.00248596 Ry
     electrostatic embedding   =      -0.10978494 Ry
     correction to one-el term =      -5.14862311 Ry

     iteration #  7     ecut=    30.00 Ry     beta= 0.40
     Davidson diagonalization with overlap

---- Real-time Memory Report at c_bands before calling an iterative solver
          3488 MiB given to the printing process from OS
             0 MiB allocation reported by mallinfo(arena+hblkhd)
         16004 MiB available memory on the node where the printing process lives
------------------
     ethr =  8.29E-06,  avg # of iterations =  3.0

     negative rho (up, down):  6.876E-04 0.000E+00

     add environment contribution to local potential

     total cpu time spent up to now is      205.1 secs

     total energy              =     -83.57003071 Ry
     estimated scf accuracy    <       0.00036636 Ry
     electrostatic embedding   =      -0.10710456 Ry
     correction to one-el term =      -5.09514426 Ry

     iteration #  8     ecut=    30.00 Ry     beta= 0.40
     Davidson diagonalization with overlap

---- Real-time Memory Report at c_bands before calling an iterative solver
          3497 MiB given to the printing process from OS
             0 MiB allocation reported by mallinfo(arena+hblkhd)
         16025 MiB available memory on the node where the printing process lives
------------------
     ethr =  1.22E-06,  avg # of iterations =  5.0

     negative rho (up, down):  6.657E-04 0.000E+00

     add environment contribution to local potential

     total cpu time spent up to now is      240.3 secs

     total energy              =     -83.57024322 Ry
     estimated scf accuracy    <       0.00081299 Ry
     electrostatic embedding   =      -0.10854168 Ry
     correction to one-el term =      -5.05897399 Ry

     iteration #  9     ecut=    30.00 Ry     beta= 0.40
     Davidson diagonalization with overlap

---- Real-time Memory Report at c_bands before calling an iterative solver
          3515 MiB given to the printing process from OS
             0 MiB allocation reported by mallinfo(arena+hblkhd)
         16825 MiB available memory on the node where the printing process lives
------------------
     ethr =  1.22E-06,  avg # of iterations =  2.0

     negative rho (up, down):  8.313E-04 0.000E+00

     add environment contribution to local potential

     total cpu time spent up to now is      275.0 secs

     total energy              =     -83.57009036 Ry
     estimated scf accuracy    <       0.00039770 Ry
     electrostatic embedding   =      -0.10927897 Ry
     correction to one-el term =      -5.05610228 Ry

     iteration # 10     ecut=    30.00 Ry     beta= 0.40
     Davidson diagonalization with overlap

---- Real-time Memory Report at c_bands before calling an iterative solver
          3525 MiB given to the printing process from OS
             0 MiB allocation reported by mallinfo(arena+hblkhd)
         16815 MiB available memory on the node where the printing process lives
------------------
     ethr =  1.22E-06,  avg # of iterations =  5.0

     negative rho (up, down):  7.714E-04 0.000E+00

     add environment contribution to local potential

     total cpu time spent up to now is      309.8 secs

     total energy              =     -83.57035823 Ry
     estimated scf accuracy    <       0.00010551 Ry
     electrostatic embedding   =      -0.11172956 Ry
     correction to one-el term =      -5.05241063 Ry

     iteration # 11     ecut=    30.00 Ry     beta= 0.40
     Davidson diagonalization with overlap

---- Real-time Memory Report at c_bands before calling an iterative solver
          3525 MiB given to the printing process from OS
             0 MiB allocation reported by mallinfo(arena+hblkhd)
         15999 MiB available memory on the node where the printing process lives
------------------
     ethr =  3.52E-07,  avg # of iterations =  4.0

     negative rho (up, down):  6.800E-04 0.000E+00

     add environment contribution to local potential

     total cpu time spent up to now is      345.4 secs

     total energy              =     -83.57038341 Ry
     estimated scf accuracy    <       0.00002310 Ry
     electrostatic embedding   =      -0.11221228 Ry
     correction to one-el term =      -5.05260041 Ry

     iteration # 12     ecut=    30.00 Ry     beta= 0.40
     Davidson diagonalization with overlap

---- Real-time Memory Report at c_bands before calling an iterative solver
          3525 MiB given to the printing process from OS
             0 MiB allocation reported by mallinfo(arena+hblkhd)
         16814 MiB available memory on the node where the printing process lives
------------------
     ethr =  7.70E-08,  avg # of iterations =  3.0

     negative rho (up, down):  6.443E-04 0.000E+00

     add environment contribution to local potential

     total cpu time spent up to now is      380.6 secs

     total energy              =     -83.57040301 Ry
     estimated scf accuracy    <       0.00000222 Ry
     electrostatic embedding   =      -0.11253229 Ry
     correction to one-el term =      -5.05476815 Ry

     iteration # 13     ecut=    30.00 Ry     beta= 0.40
     Davidson diagonalization with overlap

---- Real-time Memory Report at c_bands before calling an iterative solver
          3525 MiB given to the printing process from OS
             0 MiB allocation reported by mallinfo(arena+hblkhd)
         16001 MiB available memory on the node where the printing process lives
------------------
     ethr =  7.39E-09,  avg # of iterations =  4.0

     negative rho (up, down):  5.859E-04 0.000E+00

     add environment contribution to local potential

     total cpu time spent up to now is      416.0 secs

     total energy              =     -83.57041704 Ry
     estimated scf accuracy    <       0.00000104 Ry
     electrostatic embedding   =      -0.11294256 Ry
     correction to one-el term =      -5.05644362 Ry

     iteration # 14     ecut=    30.00 Ry     beta= 0.40
     Davidson diagonalization with overlap

---- Real-time Memory Report at c_bands before calling an iterative solver
          3525 MiB given to the printing process from OS
             0 MiB allocation reported by mallinfo(arena+hblkhd)
         16815 MiB available memory on the node where the printing process lives
------------------
     ethr =  3.46E-09,  avg # of iterations =  5.0

     negative rho (up, down):  5.836E-04 0.000E+00

     add environment contribution to local potential

     total cpu time spent up to now is      451.8 secs

     total energy              =     -83.57042800 Ry
     estimated scf accuracy    <       0.00000048 Ry
     electrostatic embedding   =      -0.11333531 Ry
     correction to one-el term =      -5.05866042 Ry

     iteration # 15     ecut=    30.00 Ry     beta= 0.40
     Davidson diagonalization with overlap

---- Real-time Memory Report at c_bands before calling an iterative solver
          3525 MiB given to the printing process from OS
             0 MiB allocation reported by mallinfo(arena+hblkhd)
         16814 MiB available memory on the node where the printing process lives
------------------
     ethr =  1.59E-09,  avg # of iterations =  2.0

     negative rho (up, down):  5.852E-04 0.000E+00

     add environment contribution to local potential

     total cpu time spent up to now is      486.9 secs

     total energy              =     -83.57042671 Ry
     estimated scf accuracy    <       0.00000024 Ry
     electrostatic embedding   =      -0.11324943 Ry
     correction to one-el term =      -5.05863230 Ry

     iteration # 16     ecut=    30.00 Ry     beta= 0.40
     Davidson diagonalization with overlap

---- Real-time Memory Report at c_bands before calling an iterative solver
          3525 MiB given to the printing process from OS
             0 MiB allocation reported by mallinfo(arena+hblkhd)
         16814 MiB available memory on the node where the printing process lives
------------------
     ethr =  8.04E-10,  avg # of iterations =  5.0

     negative rho (up, down):  5.855E-04 0.000E+00

     add environment contribution to local potential

     total cpu time spent up to now is      522.2 secs

     total energy              =     -83.57042844 Ry
     estimated scf accuracy    <       0.00000011 Ry
     electrostatic embedding   =      -0.11331222 Ry
     correction to one-el term =      -5.05878352 Ry

     iteration # 17     ecut=    30.00 Ry     beta= 0.40
     Davidson diagonalization with overlap

---- Real-time Memory Report at c_bands before calling an iterative solver
          3525 MiB given to the printing process from OS
             0 MiB allocation reported by mallinfo(arena+hblkhd)
         16813 MiB available memory on the node where the printing process lives
------------------
     ethr =  3.64E-10,  avg # of iterations =  4.0

     negative rho (up, down):  5.872E-04 0.000E+00

     add environment contribution to local potential

     total cpu time spent up to now is      557.5 secs

     total energy              =     -83.57042810 Ry
     estimated scf accuracy    <          5.4E-09 Ry
     electrostatic embedding   =      -0.11327696 Ry
     correction to one-el term =      -5.05872439 Ry

     iteration # 18     ecut=    30.00 Ry     beta= 0.40
     Davidson diagonalization with overlap

---- Real-time Memory Report at c_bands before calling an iterative solver
          3525 MiB given to the printing process from OS
             0 MiB allocation reported by mallinfo(arena+hblkhd)
         16813 MiB available memory on the node where the printing process lives
------------------
     ethr =  1.81E-11,  avg # of iterations =  5.0

     negative rho (up, down):  5.884E-04 0.000E+00

     add environment contribution to local potential

     total cpu time spent up to now is      593.4 secs

     total energy              =     -83.57042881 Ry
     estimated scf accuracy    <       0.00000001 Ry
     electrostatic embedding   =      -0.11329982 Ry
     correction to one-el term =      -5.05873068 Ry

     iteration # 19     ecut=    30.00 Ry     beta= 0.40
     Davidson diagonalization with overlap

---- Real-time Memory Report at c_bands before calling an iterative solver
          3525 MiB given to the printing process from OS
             0 MiB allocation reported by mallinfo(arena+hblkhd)
         16816 MiB available memory on the node where the printing process lives
------------------
     ethr =  1.81E-11,  avg # of iterations =  2.0

     negative rho (up, down):  5.895E-04 0.000E+00

     add environment contribution to local potential

     total cpu time spent up to now is      628.1 secs

     total energy              =     -83.57042892 Ry
     estimated scf accuracy    <          7.1E-09 Ry
     electrostatic embedding   =      -0.11329991 Ry
     correction to one-el term =      -5.05870312 Ry

     iteration # 20     ecut=    30.00 Ry     beta= 0.40
     Davidson diagonalization with overlap

---- Real-time Memory Report at c_bands before calling an iterative solver
          3525 MiB given to the printing process from OS
             0 MiB allocation reported by mallinfo(arena+hblkhd)
         16815 MiB available memory on the node where the printing process lives
------------------
     ethr =  1.81E-11,  avg # of iterations =  4.0

     negative rho (up, down):  5.895E-04 0.000E+00

     the potential shift due to the Gaussian-smeared nuclei is    -0.0245 ev

     total cpu time spent up to now is      636.8 secs

     End of self-consistent calculation

          k = 0.0000 0.0000 0.0000 ( 37387 PWs)   bands (ev):

   -25.3560 -20.8351 -19.9851 -16.6373 -16.4912 -14.4948 -12.8180 -12.2090
   -11.7043 -11.2766 -11.1776  -9.4883  -9.2957  -8.1907  -7.4666

     occupation numbers 
     1.0000   1.0000   1.0000   1.0000   1.0000   1.0000   1.0000   1.0000
     1.0000   1.0000   1.0000   1.0000   1.0000   1.0000   1.0000

     highest occupied level (ev):    -7.4666

!    total energy              =     -83.57042904 Ry
     estimated scf accuracy    <          2.5E-10 Ry

     The total energy is the sum of the following terms:
     one-electron contribution =    -373.91252973 Ry
     hartree contribution      =     188.69212682 Ry
     xc contribution           =     -26.15828293 Ry
     ewald contribution        =     132.98023899 Ry
     electrostatic embedding   =      -0.11330347 Ry
     correction to one-el term =      -5.05867873 Ry

     WARNING: you are using the parabolic pbc correction;
              the potential shift above must be added to 
              band and Fermi energies.

     convergence has been achieved in  20 iterations
     The dielectric solvent contribution to forces
     atom    1 type  3   force =    -0.05961935   -0.00000003    0.00002704
     atom    2 type  1   force =    -0.15618583   -0.00000007    0.00006069
     atom    3 type  2   force =    -0.08160276   -0.00751466    0.00002465
     atom    4 type  2   force =    -0.03694717    0.00470245    0.00000542
     atom    5 type  2   force =    -0.01796969    0.00000011    0.00000003
     atom    6 type  2   force =    -0.03694727   -0.00470228    0.00001920
     atom    7 type  2   force =    -0.08160303    0.00751455    0.00003336
     atom    8 type  3   force =    -0.02021735   -0.00271696    0.00000536
     atom    9 type  3   force =    -0.00351015    0.00564188   -0.00000103
     atom   10 type  3   force =     0.00412561    0.00000002   -0.00000480
     atom   11 type  3   force =    -0.00351017   -0.00564181    0.00000523
     atom   12 type  3   force =    -0.02021753    0.00271682    0.00000740


     Forces acting on atoms (cartesian axes, Ry/au):

     atom    1 type  3   force =     0.11821298   -0.00000010   -0.00004514
     atom    2 type  1   force =    -0.11226492    0.00000036    0.00005231
     atom    3 type  2   force =    -0.00975347   -0.00485551    0.00000740
     atom    4 type  2   force =     0.00427383    0.00420553   -0.00003925
     atom    5 type  2   force =     0.00641741   -0.00000007   -0.00000223
     atom    6 type  2   force =     0.00427379   -0.00420491    0.00000469
     atom    7 type  2   force =    -0.00975389    0.00485469    0.00002525
     atom    8 type  3   force =     0.00378041   -0.00636912    0.00001222
     atom    9 type  3   force =    -0.00191072   -0.00535077   -0.00000645
     atom   10 type  3   force =    -0.00514487    0.00000004    0.00003110
     atom   11 type  3   force =    -0.00191079    0.00535084   -0.00002027
     atom   12 type  3   force =     0.00378022    0.00636902   -0.00001963
     The non-local contrib.  to forces
     atom    1 type  3   force =     0.14873547   -0.00000002   -0.00005298
     atom    2 type  1   force =     0.21598975    0.00000030    0.00009907
     atom    3 type  2   force =    -0.07479568   -0.31317957    0.00008055
     atom    4 type  2   force =    -0.09873988   -0.09712295    0.00000822
     atom    5 type  2   force =    -0.11022400   -0.00000007    0.00005574
     atom    6 type  2   force =    -0.09873990    0.09712320    0.00001096
     atom    7 type  2   force =    -0.07479588    0.31317924   -0.00011474
     atom    8 type  3   force =     0.08845272   -0.13021773    0.00003024
     atom    9 type  3   force =    -0.07306170   -0.13462478    0.00004739
     atom   10 type  3   force =    -0.15324843    0.00000003    0.00010096
     atom   11 type  3   force =    -0.07306173    0.13462477   -0.00004408
     atom   12 type  3   force =     0.08845263    0.13021769   -0.00010405
     The ionic contribution  to forces
     atom    1 type  3   force =    -3.67662239    0.00000030    0.00120661
     atom    2 type  1   force =    -9.04849811    0.00000171    0.00169003
     atom    3 type  2   force =    -2.83977692    7.52144304   -0.00133586
     atom    4 type  2   force =     4.02437581    6.36088998   -0.00184150
     atom    5 type  2   force =     7.36794959   -0.00000117   -0.00322235
     atom    6 type  2   force =     4.02437706   -6.36089010    0.00065933
     atom    7 type  2   force =    -2.83977445   -7.52144390    0.00358714
     atom    8 type  3   force =    -1.82448734    2.93050813   -0.00062241
     atom    9 type  3   force =     1.64556721    2.93750990   -0.00103497
     atom   10 type  3   force =     3.34580841   -0.00000047   -0.00200043
     atom   11 type  3   force =     1.64556751   -2.93750965    0.00079776
     atom   12 type  3   force =    -1.82448639   -2.93050779    0.00211666
     The local contribution  to forces
     atom    1 type  3   force =     3.70580128   -0.00000034   -0.00122655
     atom    2 type  1   force =     8.87650520   -0.00000164   -0.00179831
     atom    3 type  2   force =     2.98648906   -7.20560910    0.00123719
     atom    4 type  2   force =    -3.88434615   -6.26425919    0.00178777
     atom    5 type  2   force =    -7.23325728    0.00000105    0.00316359
     atom    6 type  2   force =    -3.88434740    6.26425951   -0.00068551
     atom    7 type  2   force =     2.98648668    7.20560957   -0.00348125
     atom    8 type  3   force =     1.76011320   -2.80394381    0.00059825
     atom    9 type  3   force =    -1.57082534   -2.81387663    0.00098139
     atom   10 type  3   force =    -3.20174845    0.00000047    0.00193460
     atom   11 type  3   force =    -1.57082568    2.81387640   -0.00077993
     atom   12 type  3   force =     1.76011231    2.80394358   -0.00204040
     The core correction contribution to forces
     atom    1 type  3   force =     0.00000000    0.00000000    0.00000000
     atom    2 type  1   force =     0.00000000    0.00000000    0.00000000
     atom    3 type  2   force =     0.00000000    0.00000000    0.00000000
     atom    4 type  2   force =     0.00000000    0.00000000    0.00000000
     atom    5 type  2   force =     0.00000000    0.00000000    0.00000000
     atom    6 type  2   force =     0.00000000    0.00000000    0.00000000
     atom    7 type  2   force =     0.00000000    0.00000000    0.00000000
     atom    8 type  3   force =     0.00000000    0.00000000    0.00000000
     atom    9 type  3   force =     0.00000000    0.00000000    0.00000000
     atom   10 type  3   force =     0.00000000    0.00000000    0.00000000
     atom   11 type  3   force =     0.00000000    0.00000000    0.00000000
     atom   12 type  3   force =     0.00000000    0.00000000    0.00000000
     The Hubbard contrib.    to forces
     atom    1 type  3   force =     0.00000000    0.00000000    0.00000000
     atom    2 type  1   force =     0.00000000    0.00000000    0.00000000
     atom    3 type  2   force =     0.00000000    0.00000000    0.00000000
     atom    4 type  2   force =     0.00000000    0.00000000    0.00000000
     atom    5 type  2   force =     0.00000000    0.00000000    0.00000000
     atom    6 type  2   force =     0.00000000    0.00000000    0.00000000
     atom    7 type  2   force =     0.00000000    0.00000000    0.00000000
     atom    8 type  3   force =     0.00000000    0.00000000    0.00000000
     atom    9 type  3   force =     0.00000000    0.00000000    0.00000000
     atom   10 type  3   force =     0.00000000    0.00000000    0.00000000
     atom   11 type  3   force =     0.00000000    0.00000000    0.00000000
     atom   12 type  3   force =     0.00000000    0.00000000    0.00000000
     The SCF correction term to forces
     atom    1 type  3   force =    -0.00000108    0.00000001   -0.00000001
     atom    2 type  1   force =     0.00000502    0.00000008    0.00000007
     atom    3 type  2   force =     0.00001377    0.00000480    0.00000011
     atom    4 type  2   force =     0.00001217   -0.00000475    0.00000008
     atom    5 type  2   force =    -0.00000027    0.00000003   -0.00000000
     atom    6 type  2   force =     0.00001225    0.00000477   -0.00000006
     atom    7 type  2   force =     0.00001373   -0.00000476   -0.00000002
     atom    8 type  3   force =     0.00000014    0.00000127    0.00000003
     atom    9 type  3   force =     0.00000021   -0.00000113   -0.00000000
     atom   10 type  3   force =    -0.00000107    0.00000001    0.00000000
     atom   11 type  3   force =     0.00000022    0.00000114   -0.00000001
     atom   12 type  3   force =     0.00000014   -0.00000126   -0.00000000

     Total force =     0.164709     Total SCF correction =     0.000028


     init_run     :     14.85s CPU     16.03s WALL (       1 calls)
     electrons    :    542.14s CPU    620.87s WALL (       1 calls)
     forces       :      5.63s CPU      6.18s WALL (       1 calls)

     Called by init_run:
     wfcinit      :      0.61s CPU      0.67s WALL (       1 calls)
     wfcinit:atom :      0.01s CPU      0.01s WALL (       1 calls)
     wfcinit:wfcr :      0.55s CPU      0.56s WALL (       1 calls)
     potinit      :      3.17s CPU      3.58s WALL (       1 calls)
     hinit0       :      8.84s CPU      8.98s WALL (       1 calls)

     Called by electrons:
     c_bands      :     23.89s CPU     24.12s WALL (      20 calls)
     sum_band     :     31.60s CPU     38.09s WALL (      20 calls)
     v_of_rho     :     31.74s CPU     37.15s WALL (      21 calls)
     v_h          :      2.89s CPU      3.56s WALL (      21 calls)
     v_xc         :     28.85s CPU     33.59s WALL (      21 calls)
     newd         :     18.52s CPU     25.41s WALL (      21 calls)
     mix_rho      :      6.15s CPU      6.17s WALL (      20 calls)

     Called by c_bands:
     init_us_2    :      0.58s CPU      0.70s WALL (      41 calls)
     init_us_2:cp :      0.58s CPU      0.70s WALL (      41 calls)
     regterg      :     22.86s CPU     22.89s WALL (      20 calls)

     Called by sum_band:
     sum_band:wei :      0.00s CPU      0.00s WALL (      20 calls)
     sum_band:loo :      4.31s CPU      4.31s WALL (      20 calls)
     sum_band:buf :      0.00s CPU      0.00s WALL (      20 calls)
     sum_band:ini :      0.30s CPU      0.30s WALL (      20 calls)
     sum_band:cal :      0.15s CPU      0.15s WALL (      20 calls)
     sum_band:bec :      0.00s CPU      0.00s WALL (      20 calls)
     addusdens    :     23.69s CPU     29.99s WALL (      20 calls)
     addusd:skk   :      1.19s CPU      1.56s WALL (      60 calls)
     addusd:dgemm :      3.74s CPU      9.24s WALL (      60 calls)
     addusd:qvan2 :     15.29s CPU     15.49s WALL (      60 calls)

     Called by *egterg:
     rdiaghg      :      0.03s CPU      0.03s WALL (      88 calls)
     regterg:over :      0.35s CPU      0.35s WALL (      68 calls)
     regterg:upda :      0.26s CPU      0.26s WALL (      68 calls)
     regterg:last :      0.47s CPU      0.47s WALL (      46 calls)
     h_psi        :     21.30s CPU     21.33s WALL (      89 calls)
     s_psi        :      0.57s CPU      0.57s WALL (      89 calls)
     g_psi        :      0.12s CPU      0.12s WALL (      68 calls)

     Called by h_psi:
     h_psi:calbec :      0.50s CPU      0.50s WALL (      89 calls)
     vloc_psi     :     20.12s CPU     20.13s WALL (      89 calls)
     add_vuspsi   :      0.56s CPU      0.56s WALL (      89 calls)

     General routines
     calbec       :      0.67s CPU      0.67s WALL (     113 calls)
     fft          :     19.22s CPU     19.89s WALL (     231 calls)
     ffts         :      0.68s CPU      0.68s WALL (      41 calls)
     fftw         :     18.66s CPU     18.67s WALL (    1104 calls)
     interpolate  :      3.42s CPU      4.22s WALL (      21 calls)

     Parallel routines

     Environ routines

     PWSCF        :   9m22.74s CPU  10m43.27s WALL


   This run was terminated on:  21: 7:14   2May2022            

=------------------------------------------------------------------------------=
   JOB DONE.
=------------------------------------------------------------------------------=
