
     Program PWSCF v.6.7MaX starts on 22Jan2021 at 10:59:56 

     This program is part of the open-source Quantum ESPRESSO suite
     for quantum simulation of materials; please cite
         "P. Giannozzi et al., J. Phys.:Condens. Matter 21 395502 (2009);
         "P. Giannozzi et al., J. Phys.:Condens. Matter 29 465901 (2017);
          URL http://www.quantum-espresso.org", 
     in publications or presentations arising from this work. More details at
     http://www.quantum-espresso.org/quote

     Parallel version (MPI), running on     1 processors

     MPI processes distributed on     1 nodes
     Reading input from slab.in

     Current dimensions of program PWSCF are:
     Max number of different atomic species (ntypx) = 10
     Max number of k-points (npk) =  40000
     Max angular momentum in pseudopotentials (lmaxx) =  3
     file C.pbe-rrkjus.UPF: wavefunction(s)  2S 2P renormalized
     file O.pbe-rrkjus.UPF: wavefunction(s)  2S renormalized

     gamma-point specific algorithms are used

     Subspace diagonalization in iterative solution of the eigenvalue problem:
     a serial algorithm will be used


     G-vector sticks info
     --------------------
     sticks:   dense  smooth     PW     G-vecs:    dense   smooth      PW
     Sum        2357    1099    269               366833   116965   14571



     bravais-lattice index     =            8
     lattice parameter (alat)  =      10.6881  a.u.
     unit-cell volume          =    4181.1215 (a.u.)^3
     number of atoms/cell      =           10
     number of atomic types    =            3
     number of electrons       =        89.00
     number of Kohn-Sham states=           80
     kinetic-energy cutoff     =      35.0000  Ry
     charge density cutoff     =     300.0000  Ry
     scf convergence threshold =      5.0E-06
     mixing beta               =       0.7000
     number of iterations used =            8  plain     mixing
     Exchange-correlation= PBE
                           (   1   4   3   4   0   0   0)


     Environ Module
     ==============

     Plese cite
         O. Andreussi, I. Dabo and N. Marzari, J. Chem. Phys. 136, 064102 (2012)         
     in publications or presentations arising from this work.

     compensation onset threshold      =               0.1000E+03 
     static permittivity               =                   100.00 
     epsilon calculation mode          =                     full 

     Electrostatic Setup
     -------------------
     electrostatic problem to solve    = generalized              
     numerical solver adopted          = cg                       
     type of auxiliary density adopted = none                     
     type of core tool for poisson     = fft                      



     celldm(1)=  10.688100  celldm(2)=   0.866025  celldm(3)=   3.954220
     celldm(4)=   0.000000  celldm(5)=   0.000000  celldm(6)=   0.000000

     crystal axes: (cart. coord. in units of alat)
               a(1) = (   1.000000   0.000000   0.000000 )  
               a(2) = (   0.000000   0.866025   0.000000 )  
               a(3) = (   0.000000   0.000000   3.954220 )  

     reciprocal axes: (cart. coord. in units 2 pi/alat)
               b(1) = (  1.000000  0.000000  0.000000 )  
               b(2) = (  0.000000  1.154701  0.000000 )  
               b(3) = (  0.000000  0.000000  0.252894 )  


     PseudoPot. # 1 for C  read from file:
     /Users/gabrielmedrano/Desktop/q-e/Environ/tests/../..//pseudo/C.pbe-rrkjus.UPF
     MD5 check sum: c9ac5a99bc85b198593446162950cd17
     Pseudo is Ultrasoft, Zval =  4.0
     Generated by new atomic code, or converted to UPF format
     Using radial grid of  627 points,  4 beta functions with: 
                l(1) =   0
                l(2) =   0
                l(3) =   1
                l(4) =   1
     Q(r) pseudized with 0 coefficients 


     PseudoPot. # 2 for O  read from file:
     /Users/gabrielmedrano/Desktop/q-e/Environ/tests/../..//pseudo/O.pbe-rrkjus.UPF
     MD5 check sum: fadcf19ee70a498d3030e2e79cf929a4
     Pseudo is Ultrasoft, Zval =  6.0
     Generated by new atomic code, or converted to UPF format
     Using radial grid of 1269 points,  4 beta functions with: 
                l(1) =   0
                l(2) =   0
                l(3) =   1
                l(4) =   1
     Q(r) pseudized with 0 coefficients 


     PseudoPot. # 3 for Pt read from file:
     /Users/gabrielmedrano/Desktop/q-e/Environ/tests/../..//pseudo/Pt.pbe-n-rrkjus_psl.0.1.UPF
     MD5 check sum: 957548fe13c2a9232dd96292d902c87c
     Pseudo is Ultrasoft + core correction, Zval = 10.0
     Generated using "atomic" code by A. Dal Corso  v.5.0.2 svn rev. 9415
     Using radial grid of 1277 points,  6 beta functions with: 
                l(1) =   0
                l(2) =   0
                l(3) =   1
                l(4) =   1
                l(5) =   2
                l(6) =   2
     Q(r) pseudized with 0 coefficients 


     atomic species   valence    mass     pseudopotential
        C              4.00     1.00000     C ( 1.00)
        O              6.00     1.00000     O ( 1.00)
        Pt            10.00     1.00000     Pt( 1.00)

     No symmetry found



   Cartesian axes

     site n.     atom                  positions (alat units)
         1           C   tau(   1) = (   0.4991611   0.4347567   0.7762281  )
         2           O   tau(   2) = (   0.4991542   0.4322212   0.9800832  )
         3           Pt  tau(   3) = (   0.7542339   0.0091745   0.4105048  )
         4           Pt  tau(   4) = (   0.2441023   0.0091745   0.4105046  )
         5           Pt  tau(   5) = (   0.0000034   0.4416918   0.4083168  )
         6           Pt  tau(   6) = (   0.4991682   0.4417635   0.4468119  )
         7           Pt  tau(   7) = (   0.0000038   0.7300598   0.0000000  )
         8           Pt  tau(   8) = (   0.4991683   0.7202168   0.0139279  )
         9           Pt  tau(   9) = (   0.2524172   0.2949237   0.0078392  )
        10           Pt  tau(  10) = (   0.7459196   0.2949237   0.0078394  )

     number of k points=     1  Marzari-Vanderbilt smearing, width (Ry)=  0.0300
                       cart. coord. in units 2pi/alat
        k(    1) = (   0.0000000   0.0000000   0.0000000), wk =   2.0000000

     Dense  grid:   183417 G-vectors     FFT dimensions: (  60,  54, 240)

     Smooth grid:    58483 G-vectors     FFT dimensions: (  45,  36, 160)

     Estimated max dynamical RAM per process >     754.41 MB

     Initial potential from superposition of free atoms

     starting charge   89.99859, renormalised to   89.00000

     negative rho (up, down):  3.049E-03 0.000E+00
     Starting wfcs are   80 randomized atomic wfcs

     total cpu time spent up to now is        6.7 secs

     Self-consistent Calculation

     iteration #  1     ecut=    35.00 Ry     beta= 0.70
     Davidson diagonalization with overlap
     ethr =  1.00E-02,  avg # of iterations = 10.0

     negative rho (up, down):  2.862E-03 0.000E+00

     add environment contribution to local potential
     polarization accuracy = 4.4E-06, # of iterations =  25

     total cpu time spent up to now is       11.9 secs

     total energy              =    -622.70871708 Ry
     estimated scf accuracy    <       1.83045832 Ry
     electrostatic embedding   =       0.03381190 Ry
     correction to one-el term =      -0.00000000 Ry

     iteration #  2     ecut=    35.00 Ry     beta= 0.70
     Davidson diagonalization with overlap
     ethr =  2.06E-03,  avg # of iterations =  9.0

     negative rho (up, down):  2.038E-02 0.000E+00

     add environment contribution to local potential
     polarization accuracy = 6.2E-06, # of iterations =  51

     total cpu time spent up to now is       18.7 secs

     total energy              =    -618.15695237 Ry
     estimated scf accuracy    <      45.50762556 Ry
     electrostatic embedding   =       0.00272610 Ry
     correction to one-el term =     -19.48582278 Ry

     iteration #  3     ecut=    35.00 Ry     beta= 0.70
     Davidson diagonalization with overlap
     ethr =  2.06E-03,  avg # of iterations =  5.0

     negative rho (up, down):  7.643E-03 0.000E+00

     add environment contribution to local potential
     polarization accuracy = 8.9E-06, # of iterations =  30

     total cpu time spent up to now is       24.2 secs

     total energy              =    -623.84767188 Ry
     estimated scf accuracy    <       0.45726065 Ry
     electrostatic embedding   =       0.26348715 Ry
     correction to one-el term =     -22.26969660 Ry

     iteration #  4     ecut=    35.00 Ry     beta= 0.70
     Davidson diagonalization with overlap
     ethr =  5.14E-04,  avg # of iterations =  5.0

     negative rho (up, down):  8.341E-03 0.000E+00

     add environment contribution to local potential
     polarization accuracy = 7.0E-06, # of iterations =  29

     total cpu time spent up to now is       29.7 secs

     total energy              =    -623.59964533 Ry
     estimated scf accuracy    <       0.89421198 Ry
     electrostatic embedding   =       0.21807347 Ry
     correction to one-el term =     -21.78803486 Ry

     iteration #  5     ecut=    35.00 Ry     beta= 0.70
     Davidson diagonalization with overlap
     ethr =  5.14E-04,  avg # of iterations =  2.0

     negative rho (up, down):  4.506E-03 0.000E+00

     add environment contribution to local potential
     polarization accuracy = 6.4E-06, # of iterations =  30

     total cpu time spent up to now is       35.5 secs

     total energy              =    -623.68544132 Ry
     estimated scf accuracy    <       0.08933805 Ry
     electrostatic embedding   =       0.20994161 Ry
     correction to one-el term =     -21.95104946 Ry

     iteration #  6     ecut=    35.00 Ry     beta= 0.70
     Davidson diagonalization with overlap
     ethr =  1.00E-04,  avg # of iterations = 11.0

     negative rho (up, down):  4.668E-03 0.000E+00

     add environment contribution to local potential
     polarization accuracy = 6.4E-06, # of iterations =  30

     total cpu time spent up to now is       41.4 secs

     total energy              =    -623.68791115 Ry
     estimated scf accuracy    <       0.27348050 Ry
     electrostatic embedding   =       0.19705195 Ry
     correction to one-el term =     -22.51236214 Ry

     iteration #  7     ecut=    35.00 Ry     beta= 0.70
     Davidson diagonalization with overlap
     ethr =  1.00E-04,  avg # of iterations =  1.0

     negative rho (up, down):  4.053E-03 0.000E+00

     add environment contribution to local potential
     polarization accuracy = 7.1E-06, # of iterations =  29

     total cpu time spent up to now is       47.4 secs

     total energy              =    -623.70035685 Ry
     estimated scf accuracy    <       0.04214222 Ry
     electrostatic embedding   =       0.19879327 Ry
     correction to one-el term =     -22.68791279 Ry

     iteration #  8     ecut=    35.00 Ry     beta= 0.70
     Davidson diagonalization with overlap
     ethr =  4.74E-05,  avg # of iterations =  2.0

     negative rho (up, down):  3.821E-03 0.000E+00

     add environment contribution to local potential
     polarization accuracy = 8.4E-06, # of iterations =  29

     total cpu time spent up to now is       54.5 secs

     total energy              =    -623.70479990 Ry
     estimated scf accuracy    <       0.01498893 Ry
     electrostatic embedding   =       0.19430354 Ry
     correction to one-el term =     -22.89094493 Ry

     iteration #  9     ecut=    35.00 Ry     beta= 0.70
     Davidson diagonalization with overlap
     ethr =  1.68E-05,  avg # of iterations =  7.0

     negative rho (up, down):  3.955E-03 0.000E+00

     add environment contribution to local potential
     polarization accuracy = 7.5E-06, # of iterations =  29

     total cpu time spent up to now is       61.2 secs

     total energy              =    -623.70577138 Ry
     estimated scf accuracy    <       0.01628599 Ry
     electrostatic embedding   =       0.19322059 Ry
     correction to one-el term =     -22.91019177 Ry

     iteration # 10     ecut=    35.00 Ry     beta= 0.70
     Davidson diagonalization with overlap
     ethr =  1.68E-05,  avg # of iterations =  1.0

     negative rho (up, down):  3.657E-03 0.000E+00

     add environment contribution to local potential
     polarization accuracy = 7.7E-06, # of iterations =  29

     total cpu time spent up to now is       67.0 secs

     total energy              =    -623.70740355 Ry
     estimated scf accuracy    <       0.00168794 Ry
     electrostatic embedding   =       0.19096449 Ry
     correction to one-el term =     -22.95863743 Ry

     iteration # 11     ecut=    35.00 Ry     beta= 0.70
     Davidson diagonalization with overlap
     ethr =  1.90E-06,  avg # of iterations = 10.0

     negative rho (up, down):  3.603E-03 0.000E+00

     add environment contribution to local potential
     polarization accuracy = 8.5E-06, # of iterations =  29

     total cpu time spent up to now is       73.1 secs

     total energy              =    -623.70686339 Ry
     estimated scf accuracy    <       0.00075637 Ry
     electrostatic embedding   =       0.19075164 Ry
     correction to one-el term =     -23.03217703 Ry

     iteration # 12     ecut=    35.00 Ry     beta= 0.70
     Davidson diagonalization with overlap
     ethr =  8.50E-07,  avg # of iterations =  1.0

     negative rho (up, down):  3.585E-03 0.000E+00

     add environment contribution to local potential
     polarization accuracy = 8.9E-06, # of iterations =  29

     total cpu time spent up to now is       78.9 secs

     total energy              =    -623.70667912 Ry
     estimated scf accuracy    <       0.00089755 Ry
     electrostatic embedding   =       0.19051790 Ry
     correction to one-el term =     -23.04530038 Ry

     iteration # 13     ecut=    35.00 Ry     beta= 0.70
     Davidson diagonalization with overlap
     ethr =  8.50E-07,  avg # of iterations =  1.0

     negative rho (up, down):  3.571E-03 0.000E+00

     add environment contribution to local potential
     polarization accuracy = 5.7E-06, # of iterations =  30

     total cpu time spent up to now is       84.9 secs

     total energy              =    -623.70665929 Ry
     estimated scf accuracy    <       0.00021904 Ry
     electrostatic embedding   =       0.19056636 Ry
     correction to one-el term =     -23.03195105 Ry

     iteration # 14     ecut=    35.00 Ry     beta= 0.70
     Davidson diagonalization with overlap
     ethr =  2.46E-07,  avg # of iterations =  1.0

     negative rho (up, down):  3.571E-03 0.000E+00

     add environment contribution to local potential
     polarization accuracy = 9.0E-06, # of iterations =  29

     total cpu time spent up to now is       90.8 secs

     total energy              =    -623.70659354 Ry
     estimated scf accuracy    <       0.00007290 Ry
     electrostatic embedding   =       0.19083672 Ry
     correction to one-el term =     -23.02730011 Ry

     iteration # 15     ecut=    35.00 Ry     beta= 0.70
     Davidson diagonalization with overlap
     ethr =  8.19E-08,  avg # of iterations =  1.0

     negative rho (up, down):  3.570E-03 0.000E+00

     add environment contribution to local potential
     polarization accuracy = 9.4E-06, # of iterations =  29

     total cpu time spent up to now is       96.7 secs

     total energy              =    -623.70659418 Ry
     estimated scf accuracy    <       0.00016232 Ry
     electrostatic embedding   =       0.19086902 Ry
     correction to one-el term =     -23.02864630 Ry

     iteration # 16     ecut=    35.00 Ry     beta= 0.70
     Davidson diagonalization with overlap
     ethr =  8.19E-08,  avg # of iterations =  1.0

     negative rho (up, down):  3.570E-03 0.000E+00

     add environment contribution to local potential
     polarization accuracy = 5.9E-06, # of iterations =  30

     total cpu time spent up to now is      103.3 secs

     total energy              =    -623.70653205 Ry
     estimated scf accuracy    <       0.00023084 Ry
     electrostatic embedding   =       0.19098374 Ry
     correction to one-el term =     -23.02703418 Ry

     iteration # 17     ecut=    35.00 Ry     beta= 0.70
     Davidson diagonalization with overlap
     ethr =  8.19E-08,  avg # of iterations =  1.0

     negative rho (up, down):  3.569E-03 0.000E+00

     add environment contribution to local potential
     polarization accuracy = 9.4E-06, # of iterations =  29

     total cpu time spent up to now is      108.9 secs

     total energy              =    -623.70653367 Ry
     estimated scf accuracy    <       0.00000615 Ry
     electrostatic embedding   =       0.19097433 Ry
     correction to one-el term =     -23.03357938 Ry

     iteration # 18     ecut=    35.00 Ry     beta= 0.70
     Davidson diagonalization with overlap
     ethr =  6.91E-09,  avg # of iterations =  1.0

     negative rho (up, down):  3.569E-03 0.000E+00

     add environment contribution to local potential
     polarization accuracy = 9.5E-06, # of iterations =  29

     total cpu time spent up to now is      115.2 secs

     total energy              =    -623.70652677 Ry
     estimated scf accuracy    <       0.00001006 Ry
     electrostatic embedding   =       0.19091740 Ry
     correction to one-el term =     -23.03889217 Ry

     iteration # 19     ecut=    35.00 Ry     beta= 0.70
     Davidson diagonalization with overlap
     ethr =  6.91E-09,  avg # of iterations =  1.0

     negative rho (up, down):  3.568E-03 0.000E+00

     add environment contribution to local potential
     polarization accuracy = 9.5E-06, # of iterations =  29

     total cpu time spent up to now is      121.0 secs

     total energy              =    -623.70652129 Ry
     estimated scf accuracy    <       0.00000666 Ry
     electrostatic embedding   =       0.19090647 Ry
     correction to one-el term =     -23.03927912 Ry

     iteration # 20     ecut=    35.00 Ry     beta= 0.70
     Davidson diagonalization with overlap
     ethr =  6.91E-09,  avg # of iterations =  1.0

     negative rho (up, down):  3.568E-03 0.000E+00

     the potential shift due to the Gaussian-smeared nuclei is    -0.4600 ev

     total cpu time spent up to now is      124.2 secs

     End of self-consistent calculation

          k = 0.0000 0.0000 0.0000 (  7286 PWs)   bands (ev):

   -24.8106 -11.3352  -9.6939  -8.4683  -8.2334  -7.6663  -7.6660  -7.5219
    -7.3512  -6.5071  -6.3782  -6.2641  -6.0395  -5.9992  -5.9261  -5.7921
    -5.1094  -5.0657  -5.0133  -4.8133  -4.7657  -4.7208  -4.6813  -4.6388
    -4.6271  -4.4411  -4.4233  -4.3303  -4.2190  -3.9882  -3.8725  -3.1311
    -3.0005  -2.7339  -2.4903  -2.4570  -2.3894  -2.2288  -2.0608  -1.9417
    -1.7566  -1.7547  -1.5486  -1.5156  -1.4710  -1.3058  -1.1594  -0.0765
     0.2382   0.3124   0.9035   1.5936   1.7267   2.7027   3.0164   3.0933
     4.4286   4.6318   4.7090   5.0347   5.5145   5.8768   6.1183   6.1381
     6.9920   7.1892   7.4265   7.5634   7.7144   8.0402   8.9275   9.3223
     9.3256   9.3772   9.6768   9.9824  10.0700  10.1757  10.3143  10.3648

     the Fermi energy is    -1.3835 ev

!    total energy              =    -623.70648728 Ry
     estimated scf accuracy    <       0.00000134 Ry
     smearing contrib. (-TS)   =      -0.00169265 Ry
     internal energy E=F+TS    =    -623.70479463 Ry

     The total energy is F=E-TS. E is the sum of the following terms:
     one-electron contribution =   -3916.52314309 Ry
     hartree contribution      =    2005.23241445 Ry
     xc contribution           =    -262.77000376 Ry
     ewald contribution        =    1573.20467954 Ry
     electrostatic embedding   =       0.19095388 Ry
     correction to one-el term =     -23.03969565 Ry

     convergence has been achieved in  20 iterations

     negative rho (up, down):  3.568E-03 0.000E+00
 forces lc
       1    0.0001    0.0058   -0.0639
       2    0.0001    0.0044   -0.3296
       3   -0.0015   -0.0037    0.1040
       4    0.0016   -0.0037    0.1041
       5   -0.0002    0.0020    0.0789
       6    0.0001    0.0049    0.0645
       7   -0.0005    0.0071   -0.1669
       8    0.0004    0.0088   -0.1598
       9   -0.0090   -0.0069   -0.1816
      10    0.0091   -0.0069   -0.1822

     Forces acting on atoms (cartesian axes, Ry/au):

     atom    1 type  1   force =    -0.00001217   -0.00428280    0.07647104
     atom    2 type  2   force =    -0.00009916    0.00125050   -0.05613917
     atom    3 type  3   force =     0.00158913    0.01298718    0.04593047
     atom    4 type  3   force =    -0.00061553    0.01319416    0.04643071
     atom    5 type  3   force =    -0.00169439    0.01127542    0.01038177
     atom    6 type  3   force =     0.00072652    0.00841596    0.06062085
     atom    7 type  3   force =    -0.00140875   -0.01219442   -0.05254327
     atom    8 type  3   force =     0.00046544   -0.02045787   -0.03462302
     atom    9 type  3   force =     0.01911747   -0.00526258   -0.04844788
     atom   10 type  3   force =    -0.01806857   -0.00492555   -0.04808150

     Total force =     0.165971     Total SCF correction =     0.005672

     Writing output data file /Users/gabrielmedrano/Desktop/q-e/Environ/tests/../..//tempdir/pwscf.save/

     init_run     :      6.28s CPU      6.54s WALL (       1 calls)
     electrons    :    129.31s CPU    117.57s WALL (       1 calls)
     forces       :      4.45s CPU      4.65s WALL (       1 calls)

     Called by init_run:
     wfcinit      :      0.28s CPU      0.24s WALL (       1 calls)
     potinit      :      1.75s CPU      1.80s WALL (       1 calls)
     hinit0       :      3.53s CPU      3.57s WALL (       1 calls)

     Called by electrons:
     c_bands      :     18.70s CPU     12.79s WALL (      20 calls)
     sum_band     :     36.52s CPU     22.74s WALL (      20 calls)
     v_of_rho     :      6.64s CPU      7.61s WALL (      21 calls)
     newd         :     13.00s CPU     16.72s WALL (      21 calls)
     mix_rho      :      0.92s CPU      1.10s WALL (      20 calls)

     Called by c_bands:
     init_us_2    :      0.19s CPU      0.20s WALL (      41 calls)
     regterg      :     17.78s CPU     11.86s WALL (      20 calls)

     Called by *egterg:
     rdiaghg      :      0.49s CPU      0.49s WALL (      92 calls)
     h_psi        :     11.48s CPU      9.86s WALL (      93 calls)
     s_psi        :      1.73s CPU      0.14s WALL (      93 calls)
     g_psi        :      0.06s CPU      0.06s WALL (      72 calls)

     Called by h_psi:
     h_psi:calbec :      0.65s CPU      0.49s WALL (      93 calls)
     vloc_psi     :      8.92s CPU      9.00s WALL (      93 calls)
     add_vuspsi   :      1.85s CPU      0.32s WALL (      93 calls)

     General routines
     calbec       :      0.88s CPU      0.72s WALL (     117 calls)
     fft          :     37.13s CPU     39.25s WALL (    1749 calls)
     ffts         :      0.16s CPU      0.17s WALL (      41 calls)
     fftw         :      8.90s CPU      8.96s WALL (    4592 calls)
     interpolate  :      0.49s CPU      0.54s WALL (      21 calls)

     Parallel routines
     fft_scatt_xy :      3.21s CPU      3.25s WALL (    1508 calls)
     fft_scatt_yz :      4.48s CPU      4.53s WALL (    1508 calls)

     Environ routines
     calc_eelect  :      0.05s CPU      0.05s WALL (      40 calls)
     calc_velect  :     41.50s CPU     43.86s WALL (      38 calls)
     dielectric   :      0.53s CPU      0.60s WALL (      23 calls)
     calc_felect  :      0.16s CPU      0.16s WALL (       1 calls)

     PWSCF        :   2m20.16s CPU   2m 8.97s WALL


   This run was terminated on:  11: 2: 5  22Jan2021            

=------------------------------------------------------------------------------=
   JOB DONE.
=------------------------------------------------------------------------------=
 Calling electrostatic_initbase now
 electrolyte_distance:    0.0000000000000000     
 sc_distance:    0.0000000000000000     
 velectrostatic started
 vreference created

%%%% IONS %%%%%%%%%%%%%%%%%%%%%%%%%%%%%%%%%%%%%%%%%%%%%%%%%%%%%%%%%%%%%%%%%%%%%%
 number of ions             =         10
 ionic center of charge     =      0.3882415     0.3750182     0.2893651
 total ionic charge         =    -90.0000000
 ionic dipole               =      0.0000000     0.0000000     0.0000000
 ionic quadrupole (pc)      =   -730.5101255  -614.6110457  -876.7220256
 ionic quadrupole (gauss)   =   -741.7601255  -625.8610457  -887.9720256
 ion   1 type =  1 coordinates =      5.3350841     4.6467234     8.2964034
 ion   2 type =  2 coordinates =      5.3350096     4.6196233    10.4752278
 ion   3 type =  3 coordinates =      8.0613271     0.0980580     4.3875164
 ion   4 type =  3 coordinates =      2.6089894     0.0980583     4.3875141
 ion   5 type =  3 coordinates =      0.0000366     4.7208463     4.3641304
 ion   6 type =  3 coordinates =      5.3351596     4.7216127     4.7755699
 ion   7 type =  3 coordinates =      0.0000411     7.8029520     0.0000000
 ion   8 type =  3 coordinates =      5.3351612     7.6977491     0.1488629
 ion   9 type =  3 coordinates =      2.6978606     3.1521739     0.0837858
 ion  10 type =  3 coordinates =      7.9724637     3.1521745     0.0837887

%%%% SYSTEM %%%%%%%%%%%%%%%%%%%%%%%%%%%%%%%%%%%%%%%%%%%%%%%%%%%%%%%%%%%%%%%%%%%%
 system is built from all present ionic types
 system defined dimension   =  0 
 system defined axis        =  3 
 system center              =      0.3882415     0.3750182     0.2893651 
 system width               =      0.7019013 

%%%% IONS %%%%%%%%%%%%%%%%%%%%%%%%%%%%%%%%%%%%%%%%%%%%%%%%%%%%%%%%%%%%%%%%%%%%%%
 number of ions             =         10
 ionic center of charge     =      0.3882415     0.3750182     0.2893651
 total ionic charge         =    -90.0000000
 ionic dipole               =      0.0000000     0.0000000     0.0000000
 ionic quadrupole (pc)      =   -730.5101255  -614.6110457  -876.7220256
 ionic quadrupole (gauss)   =   -741.7601255  -625.8610457  -887.9720256
 ion   1 type =  1 coordinates =      5.3350841     4.6467234     8.2964034
 ion   2 type =  2 coordinates =      5.3350096     4.6196233    10.4752278
 ion   3 type =  3 coordinates =      8.0613271     0.0980580     4.3875164
 ion   4 type =  3 coordinates =      2.6089894     0.0980583     4.3875141
 ion   5 type =  3 coordinates =      0.0000366     4.7208463     4.3641304
 ion   6 type =  3 coordinates =      5.3351596     4.7216127     4.7755699
 ion   7 type =  3 coordinates =      0.0000411     7.8029520     0.0000000
 ion   8 type =  3 coordinates =      5.3351612     7.6977491     0.1488629
 ion   9 type =  3 coordinates =      2.6978606     3.1521739     0.0837858
 ion  10 type =  3 coordinates =      7.9724637     3.1521745     0.0837887

%%%% SYSTEM %%%%%%%%%%%%%%%%%%%%%%%%%%%%%%%%%%%%%%%%%%%%%%%%%%%%%%%%%%%%%%%%%%%%
 system is built from all present ionic types
 system defined dimension   =  0 
 system defined axis        =  3 
 system center              =      0.3882415     0.3750182     0.2893651 
 system width               =      0.7019013 

%%%% ELECTRONS %%%%%%%%%%%%%%%%%%%%%%%%%%%%%%%%%%%%%%%%%%%%%%%%%%%%%%%%%%%%%%%%%
 number of electrons        =         89
 total electronic charge    =     89.0000000

%%%% ELECTRONS %%%%%%%%%%%%%%%%%%%%%%%%%%%%%%%%%%%%%%%%%%%%%%%%%%%%%%%%%%%%%%%%%
 number of electrons        =         89
 total electronic charge    =     89.0000000

%%%% BOUNDARY %%%%%%%%%%%%%%%%%%%%%%%%%%%%%%%%%%%%%%%%%%%%%%%%%%%%%%%%%%%%%%%%%%
 boundary label             = solvent              
 boundary mode              = full                 
 boundary is built as a function of a smooth density
 function type              =  2 
 using the modified SCCS function with parameters 
 rhomax                     =      0.0050000 
 rhomin                     =      0.0001000 
 volume of the QM region    =   1610.6630766 
 surface of the QM region   =    255.0494111 

%%%% DIELECTRIC %%%%%%%%%%%%%%%%%%%%%%%%%%%%%%%%%%%%%%%%%%%%%%%%%%%%%%%%%%%%%%%%%
 dielectric build on homogeneous background
 environment bulk permitt.  =    100.0000000 
 dielectric flags
 need gradient              =  F 
 need factor depend. sqrt   =  T 
 total dielectric charge    =      0.0000000

%%%% DENSITY %%%%%%%%%%%%%%%%%%%%%%%%%%%%%%%%%%%%%%%%%%%%%%%%%%%%%%%%%%%%%%%%%%%
 density label              = dvtot                                                                           
 integral of density        =      0.000000000    

%%%% DENSITY %%%%%%%%%%%%%%%%%%%%%%%%%%%%%%%%%%%%%%%%%%%%%%%%%%%%%%%%%%%%%%%%%%%
 density label              = vreference                                                                      
 integral of density        =      0.000000000    

%%%% DENSITY %%%%%%%%%%%%%%%%%%%%%%%%%%%%%%%%%%%%%%%%%%%%%%%%%%%%%%%%%%%%%%%%%%%
 density label              = velectrostatic                                                                  
 integral of density        =      0.000000000    

%%%% CHARGES %%%%%%%%%%%%%%%%%%%%%%%%%%%%%%%%%%%%%%%%%%%%%%%%%%%%%%%%%%%%%%%%%%%
 total number of charges    =         99
 total charge               =     -1.0000000

%%%% DENSITY %%%%%%%%%%%%%%%%%%%%%%%%%%%%%%%%%%%%%%%%%%%%%%%%%%%%%%%%%%%%%%%%%%%
 density label              = vsoftcavity                                                                     
 integral of density        =      0.000000000    

%%%% ELECTRONS %%%%%%%%%%%%%%%%%%%%%%%%%%%%%%%%%%%%%%%%%%%%%%%%%%%%%%%%%%%%%%%%%
 number of electrons        =         89
 total electronic charge    =     89.0000000

%%%% ELECTRONS %%%%%%%%%%%%%%%%%%%%%%%%%%%%%%%%%%%%%%%%%%%%%%%%%%%%%%%%%%%%%%%%%
 number of electrons        =         89
 total electronic charge    =     89.0000000

%%%% BOUNDARY %%%%%%%%%%%%%%%%%%%%%%%%%%%%%%%%%%%%%%%%%%%%%%%%%%%%%%%%%%%%%%%%%%
 boundary label             = solvent              
 boundary mode              = full                 
 boundary is built as a function of a smooth density
 function type              =  2 
 using the modified SCCS function with parameters 
 rhomax                     =      0.0050000 
 rhomin                     =      0.0001000 
 volume of the QM region    =   1500.5105329 
 surface of the QM region   =    259.8059959 

%%%% DIELECTRIC %%%%%%%%%%%%%%%%%%%%%%%%%%%%%%%%%%%%%%%%%%%%%%%%%%%%%%%%%%%%%%%%%
 dielectric build on homogeneous background
 environment bulk permitt.  =    100.0000000 
 dielectric flags
 need gradient              =  F 
 need factor depend. sqrt   =  T 
 total dielectric charge    =      0.0000000

%%%% DENSITY %%%%%%%%%%%%%%%%%%%%%%%%%%%%%%%%%%%%%%%%%%%%%%%%%%%%%%%%%%%%%%%%%%%
 density label              = vreference                                                                      
 integral of density        =     0.3788650068E-10

%%%% COMPUTE ELECTROSTATIC POTENTIAL %%%%%%%%%%%%%%%%%%%%%%%%%%%%%%%%%%%%%%%%%%%
 Iteration #          1
  pAp =    1283.1069301049761       rzold =    1272.4578755550838       alpha =   0.99170057124621636     
 delta_qm =   0.184003E+00 delta_en =   0.263273E+05 tol =   0.100000E-04
 Iteration #          2
  pAp =    5186.6710563295519       rzold =    227.87539953005094       alpha =    4.3934808484136140E-002
 delta_qm =   0.220621E-01 delta_en =   0.378485E+03 tol =   0.100000E-04
 Iteration #          3
  pAp =    11.571129411177321       rzold =    1.1890114052861431       alpha =   0.10275672866795511     
 delta_qm =   0.337191E-01 delta_en =   0.884116E+03 tol =   0.100000E-04
 Iteration #          4
  pAp =   0.23350600563465723       rzold =   0.11926664824024705       alpha =   0.51076479988635182     
 delta_qm =   0.240174E-01 delta_en =   0.448547E+03 tol =   0.100000E-04
 Iteration #          5
  pAp =   0.11828903543932018       rzold =   0.10960022376498008       alpha =   0.92654592505492805     
 delta_qm =   0.144004E-01 delta_en =   0.161252E+03 tol =   0.100000E-04
 Iteration #          6
  pAp =   0.50608586927007326       rzold =   0.14481964439736003       alpha =   0.28615626950073342     
 delta_qm =   0.106986E-01 delta_en =   0.890043E+02 tol =   0.100000E-04
 Iteration #          7
  pAp =   0.11259780319481696       rzold =    5.4953114156818861E-002  alpha =   0.48804783572676691     
 delta_qm =   0.956786E-02 delta_en =   0.711846E+02 tol =   0.100000E-04
 Iteration #          8
  pAp =    2.4482895755726569E-002  rzold =    1.4673879794336899E-002  alpha =   0.59935229642533872     
 delta_qm =   0.661190E-02 delta_en =   0.339945E+02 tol =   0.100000E-04
 Iteration #          9
  pAp =    9.2608439563179896E-003  rzold =    7.4747016577970237E-003  alpha =   0.80712964099752349     
 delta_qm =   0.475664E-02 delta_en =   0.175937E+02 tol =   0.100000E-04
 Iteration #         10
  pAp =    1.0786648870416079E-002  rzold =    8.4704006404620596E-003  alpha =   0.78526711513650360     
 delta_qm =   0.369515E-02 delta_en =   0.106174E+02 tol =   0.100000E-04
 Iteration #         11
  pAp =    1.3390366745495369E-002  rzold =    6.2661196168138636E-003  alpha =   0.46795728122396935     
 delta_qm =   0.415622E-02 delta_en =   0.134324E+02 tol =   0.100000E-04
 Iteration #         12
  pAp =    6.6020034817187590E-003  rzold =    2.9329557966345432E-003  alpha =   0.44425238562142960     
 delta_qm =   0.392511E-02 delta_en =   0.119801E+02 tol =   0.100000E-04
 Iteration #         13
  pAp =    9.0984267312671019E-004  rzold =    1.5458494701356062E-003  alpha =    1.6990294210132326     
 delta_qm =   0.229465E-02 delta_en =   0.409438E+01 tol =   0.100000E-04
 Iteration #         14
  pAp =    4.7957764126499804E-002  rzold =    4.1952698305886688E-003  alpha =    8.7478428300424196E-002
 delta_qm =   0.235070E-02 delta_en =   0.429687E+01 tol =   0.100000E-04
 Iteration #         15
  pAp =    1.2458700917751199E-002  rzold =    3.3165599190738805E-003  alpha =   0.26620431303142006     
 delta_qm =   0.205970E-02 delta_en =   0.329888E+01 tol =   0.100000E-04
 Iteration #         16
  pAp =    1.4148241653837146E-003  rzold =    5.8991393018066835E-004  alpha =   0.41695211646365804     
 delta_qm =   0.131993E-02 delta_en =   0.135475E+01 tol =   0.100000E-04
 Iteration #         17
  pAp =    7.7727913555967294E-004  rzold =    2.6207234677454595E-004  alpha =   0.33716632131884394     
 delta_qm =   0.700545E-03 delta_en =   0.381617E+00 tol =   0.100000E-04
 Iteration #         18
  pAp =    8.5549651017695851E-005  rzold =    4.6075991978391853E-005  alpha =   0.53858772572738001     
 delta_qm =   0.292639E-03 delta_en =   0.665916E-01 tol =   0.100000E-04
 Iteration #         19
  pAp =    1.7154729258642174E-005  rzold =    1.0433209380929627E-005  alpha =   0.60818268966113853     
 delta_qm =   0.148418E-03 delta_en =   0.171290E-01 tol =   0.100000E-04
 Iteration #         20
  pAp =    4.2076819543418734E-006  rzold =    2.7041572483085930E-006  alpha =   0.64267149410334934     
 delta_qm =   0.819805E-04 delta_en =   0.522609E-02 tol =   0.100000E-04
 Iteration #         21
  pAp =    4.4377741484447532E-006  rzold =    9.8022710616119526E-007  alpha =   0.22088260316373293     
 delta_qm =   0.530264E-04 delta_en =   0.218645E-02 tol =   0.100000E-04
 Iteration #         22
  pAp =    3.2965711973767132E-006  rzold =    8.0291780254395139E-007  alpha =   0.24356149297879051     
 delta_qm =   0.314374E-04 delta_en =   0.768510E-03 tol =   0.100000E-04
 Iteration #         23
  pAp =    8.7170096259332329E-008  rzold =    5.7629942960713129E-008  alpha =   0.66112056122162799     
 delta_qm =   0.120858E-04 delta_en =   0.113581E-03 tol =   0.100000E-04
 Iteration #         24
  pAp =    2.4830563733745499E-008  rzold =    1.4231020567848112E-008  alpha =   0.57312515013534382     
 delta_qm =   0.471525E-05 delta_en =   0.172888E-04 tol =   0.100000E-04
 Iteration #         25
  pAp =    4.8809122437027701E-009  rzold =    2.7593179651116490E-009  alpha =   0.56532832948833522     
 delta_qm =   0.236573E-05 delta_en =   0.435196E-05 tol =   0.100000E-04
 Charges are converged, EXIT

%%%% DENSITY %%%%%%%%%%%%%%%%%%%%%%%%%%%%%%%%%%%%%%%%%%%%%%%%%%%%%%%%%%%%%%%%%%%
 density label              = velectrostatic                                                                  
 integral of density        =    -0.8069095424E-10

%%%% CHARGES %%%%%%%%%%%%%%%%%%%%%%%%%%%%%%%%%%%%%%%%%%%%%%%%%%%%%%%%%%%%%%%%%%%
 total number of charges    =        100
 total charge               =     -0.0000000

%%%% DENSITY %%%%%%%%%%%%%%%%%%%%%%%%%%%%%%%%%%%%%%%%%%%%%%%%%%%%%%%%%%%%%%%%%%%
 density label              = vsoftcavity                                                                     
 integral of density        =      81.81935595    

%%%% DENSITY %%%%%%%%%%%%%%%%%%%%%%%%%%%%%%%%%%%%%%%%%%%%%%%%%%%%%%%%%%%%%%%%%%%
 density label              = dvtot                                                                           
 integral of density        =      81.81935595    

%%%% ELECTRONS %%%%%%%%%%%%%%%%%%%%%%%%%%%%%%%%%%%%%%%%%%%%%%%%%%%%%%%%%%%%%%%%%
 number of electrons        =         89
 total electronic charge    =     89.0000000

%%%% ELECTRONS %%%%%%%%%%%%%%%%%%%%%%%%%%%%%%%%%%%%%%%%%%%%%%%%%%%%%%%%%%%%%%%%%
 number of electrons        =         89
 total electronic charge    =     89.0000000

%%%% BOUNDARY %%%%%%%%%%%%%%%%%%%%%%%%%%%%%%%%%%%%%%%%%%%%%%%%%%%%%%%%%%%%%%%%%%
 boundary label             = solvent              
 boundary mode              = full                 
 boundary is built as a function of a smooth density
 function type              =  2 
 using the modified SCCS function with parameters 
 rhomax                     =      0.0050000 
 rhomin                     =      0.0001000 
 volume of the QM region    =   1509.9212995 
 surface of the QM region   =    347.5515827 

%%%% DIELECTRIC %%%%%%%%%%%%%%%%%%%%%%%%%%%%%%%%%%%%%%%%%%%%%%%%%%%%%%%%%%%%%%%%%
 dielectric build on homogeneous background
 environment bulk permitt.  =    100.0000000 
 dielectric flags
 need gradient              =  F 
 need factor depend. sqrt   =  T 
 total dielectric charge    =      0.0138181

%%%% DENSITY %%%%%%%%%%%%%%%%%%%%%%%%%%%%%%%%%%%%%%%%%%%%%%%%%%%%%%%%%%%%%%%%%%%
 density label              = vreference                                                                      
 integral of density        =    -0.8182831748E-11

%%%% COMPUTE ELECTROSTATIC POTENTIAL %%%%%%%%%%%%%%%%%%%%%%%%%%%%%%%%%%%%%%%%%%%
 Warning: bad guess with residual norm =   0.127569E+05, reset to no guess
 Iteration #          1
  pAp =    1274.9063780202682       rzold =    1273.5578360487689       alpha =   0.99894224235226325     
 delta_qm =   0.127949E+00 delta_en =   0.127300E+05 tol =   0.100000E-04
 Iteration #          2
  pAp =    710.72549507026793       rzold =    27.077676700230572       alpha =    3.8098642708115402E-002
 delta_qm =   0.115851E+00 delta_en =   0.104366E+05 tol =   0.100000E-04
 Iteration #          3
  pAp =    17.169564987981712       rzold =    2.1100178656696138       alpha =   0.12289291354478557     
 delta_qm =   0.716305E-01 delta_en =   0.398981E+04 tol =   0.100000E-04
 Iteration #          4
  pAp =   0.36554265459719065       rzold =   0.12219160366624394       alpha =   0.33427454259994049     
 delta_qm =   0.671779E-01 delta_en =   0.350921E+04 tol =   0.100000E-04
 Iteration #          5
  pAp =    1.2132734097595059       rzold =   0.27874520083223109       alpha =   0.22974640224537990     
 delta_qm =   0.288946E-01 delta_en =   0.649217E+03 tol =   0.100000E-04
 Iteration #          6
  pAp =   0.13488273777032725       rzold =   0.13116393397250328       alpha =   0.97242935708973977     
 delta_qm =   0.385784E-01 delta_en =   0.115730E+04 tol =   0.100000E-04
 Iteration #          7
  pAp =   0.34390531842928723       rzold =   0.20271922702043615       alpha =   0.58946232046166702     
 delta_qm =   0.465181E-01 delta_en =   0.168268E+04 tol =   0.100000E-04
 Iteration #          8
  pAp =   0.11896173534583659       rzold =    7.7289525331247597E-002  alpha =   0.64970072188807027     
 delta_qm =   0.439373E-01 delta_en =   0.150115E+04 tol =   0.100000E-04
 Iteration #          9
  pAp =    4.2823724682167712E-002  rzold =    6.5442533691534521E-002  alpha =    1.5281840656608168     
 delta_qm =   0.529344E-01 delta_en =   0.217887E+04 tol =   0.100000E-04
 Iteration #         10
  pAp =   0.27054069688406918       rzold =   0.17114173517918568       alpha =   0.63259146276437117     
 delta_qm =   0.586968E-01 delta_en =   0.267907E+04 tol =   0.100000E-04
 Iteration #         11
  pAp =   0.25765247991102391       rzold =   0.15684316300400516       alpha =   0.60873919419742595     
 delta_qm =   0.506111E-01 delta_en =   0.199181E+04 tol =   0.100000E-04
 Iteration #         12
  pAp =   0.17546231107575908       rzold =    9.6208780791396845E-002  alpha =   0.54831593292907754     
 delta_qm =   0.428607E-01 delta_en =   0.142848E+04 tol =   0.100000E-04
 Iteration #         13
  pAp =   0.10232050782130982       rzold =    6.5928469233426795E-002  alpha =   0.64433289706265684     
 delta_qm =   0.460641E-01 delta_en =   0.164999E+04 tol =   0.100000E-04
 Iteration #         14
  pAp =    1.4649324718022494       rzold =   0.12500939341862161       alpha =    8.5334577412177509E-002
 delta_qm =   0.374223E-01 delta_en =   0.108897E+04 tol =   0.100000E-04
 Iteration #         15
  pAp =   0.28606306613365545       rzold =   0.15953864874130452       alpha =   0.55770446320660028     
 delta_qm =   0.667605E-01 delta_en =   0.346574E+04 tol =   0.100000E-04
 Iteration #         16
  pAp =   0.21312417940125636       rzold =   0.14888044503476913       alpha =   0.69856196257519287     
 delta_qm =   0.797533E-01 delta_en =   0.494599E+04 tol =   0.100000E-04
 Iteration #         17
  pAp =    8.5385823929207252E-002  rzold =   0.22566576778986169       alpha =    2.6428950076883897     
 delta_qm =   0.206080E+00 delta_en =   0.330238E+05 tol =   0.100000E-04
 Iteration #         18
  pAp =   0.49354327521353530       rzold =    1.3917326567297228       alpha =    2.8198796876070875     
 delta_qm =   0.102739E+01 delta_en =   0.820787E+06 tol =   0.100000E-04
 Iteration #         19
  pAp =   -403.84607819027650       rzold =    48.189774786192835       alpha =  -0.11932708372987516     
 delta_qm =   0.170121E+00 delta_en =   0.225046E+05 tol =   0.100000E-04
 Iteration #         20
  pAp =    3.1878555631815324       rzold =    1.1341459071731186       alpha =   0.35577079472233752     
 delta_qm =   0.888186E-01 delta_en =   0.613428E+04 tol =   0.100000E-04
 Iteration #         21
  pAp =   0.61398490161106334       rzold =   0.32852802231336686       alpha =   0.53507508320046149     
 delta_qm =   0.505443E-01 delta_en =   0.198656E+04 tol =   0.100000E-04
 Iteration #         22
  pAp =   0.41270875763899262       rzold =   0.11612994447272558       alpha =   0.28138473517518026     
 delta_qm =   0.406271E-01 delta_en =   0.128348E+04 tol =   0.100000E-04
 Iteration #         23
  pAp =    1.0193614465569898       rzold =   0.15585628994637390       alpha =   0.15289600217155200     
 delta_qm =   0.301346E-01 delta_en =   0.706132E+03 tol =   0.100000E-04
 Iteration #         24
  pAp =    7.9247638940755302E-002  rzold =    3.5862895507724042E-002  alpha =   0.45254213232188234     
 delta_qm =   0.170381E-01 delta_en =   0.225734E+03 tol =   0.100000E-04
 Iteration #         25
  pAp =    2.0301008631859553E-002  rzold =    1.1407604767780648E-002  alpha =   0.56192305390570740     
 delta_qm =   0.127693E-01 delta_en =   0.126791E+03 tol =   0.100000E-04
 Iteration #         26
  pAp =    6.3003036656957639E-002  rzold =    8.4454676378550725E-003  alpha =   0.13404858060793823     
 delta_qm =   0.118083E-01 delta_en =   0.108425E+03 tol =   0.100000E-04
 Iteration #         27
  pAp =   0.11853506346334773       rzold =    1.8597973581311752E-002  alpha =   0.15689849937999517     
 delta_qm =   0.977612E-02 delta_en =   0.743172E+02 tol =   0.100000E-04
 Iteration #         28
  pAp =    5.9449675588520053E-003  rzold =    3.3171223272871774E-003  alpha =   0.55797147662278002     
 delta_qm =   0.711430E-02 delta_en =   0.393569E+02 tol =   0.100000E-04
 Iteration #         29
  pAp =    3.4629828315999854E-003  rzold =    1.7465673346883242E-003  alpha =   0.50435344892581124     
 delta_qm =   0.484205E-02 delta_en =   0.182311E+02 tol =   0.100000E-04
 Iteration #         30
  pAp =    1.7046225181280279E-003  rzold =    1.0666589113778027E-003  alpha =   0.62574493768226158     
 delta_qm =   0.358658E-02 delta_en =   0.100027E+02 tol =   0.100000E-04
 Iteration #         31
  pAp =    4.5813849596664235E-004  rzold =    3.7120523526024796E-004  alpha =   0.81024676714195154     
 delta_qm =   0.237842E-02 delta_en =   0.439878E+01 tol =   0.100000E-04
 Iteration #         32
  pAp =    2.2541675821330178E-004  rzold =    1.6848203357070957E-004  alpha =   0.74742461432828600     
 delta_qm =   0.142011E-02 delta_en =   0.156819E+01 tol =   0.100000E-04
 Iteration #         33
  pAp =    1.9393299593143280E-004  rzold =    8.4175075778723140E-005  alpha =   0.43404205341356245     
 delta_qm =   0.104123E-02 delta_en =   0.843051E+00 tol =   0.100000E-04
 Iteration #         34
  pAp =    2.9292205234157518E-004  rzold =    8.3229729468003064E-005  alpha =   0.28413609969845910     
 delta_qm =   0.778931E-03 delta_en =   0.471796E+00 tol =   0.100000E-04
 Iteration #         35
  pAp =    4.2864135932362441E-005  rzold =    2.7297993320325932E-005  alpha =   0.63684926166249711     
 delta_qm =   0.584816E-03 delta_en =   0.265947E+00 tol =   0.100000E-04
 Iteration #         36
  pAp =    1.1348914706676532E-005  rzold =    9.2054175982501141E-006  alpha =   0.81112756912646411     
 delta_qm =   0.383434E-03 delta_en =   0.114324E+00 tol =   0.100000E-04
 Iteration #         37
  pAp =    7.7567136596647091E-005  rzold =    8.6715972677023678E-006  alpha =   0.11179473225620147     
 delta_qm =   0.366364E-03 delta_en =   0.104371E+00 tol =   0.100000E-04
 Iteration #         38
  pAp =    7.5210540137129339E-005  rzold =    1.6003989024827218E-005  alpha =   0.21278917816103407     
 delta_qm =   0.288838E-03 delta_en =   0.648734E-01 tol =   0.100000E-04
 Iteration #         39
  pAp =    3.4725798359881239E-006  rzold =    2.6246024389307401E-006  alpha =   0.75580765969169106     
 delta_qm =   0.180771E-03 delta_en =   0.254105E-01 tol =   0.100000E-04
 Iteration #         40
  pAp =    5.1614922390664768E-006  rzold =    1.2527698352585776E-006  alpha =   0.24271466026366773     
 delta_qm =   0.153636E-03 delta_en =   0.183545E-01 tol =   0.100000E-04
 Iteration #         41
  pAp =    8.6475812460367349E-006  rzold =    1.9178473403061659E-006  alpha =   0.22177847027284453     
 delta_qm =   0.102027E-03 delta_en =   0.809444E-02 tol =   0.100000E-04
 Iteration #         42
  pAp =    6.9793276586174821E-007  rzold =    4.0835171602907865E-007  alpha =   0.58508746974342229     
 delta_qm =   0.747875E-04 delta_en =   0.434925E-02 tol =   0.100000E-04
 Iteration #         43
  pAp =    2.3594510968106609E-007  rzold =    1.9205023567516290E-007  alpha =   0.81396150119306487     
 delta_qm =   0.618216E-04 delta_en =   0.297192E-02 tol =   0.100000E-04
 Iteration #         44
  pAp =    1.1901935315690954E-007  rzold =    1.0061392174219381E-007  alpha =   0.84535765884686942     
 delta_qm =   0.419039E-04 delta_en =   0.136542E-02 tol =   0.100000E-04
 Iteration #         45
  pAp =    6.5409401944173279E-008  rzold =    6.1801263372195038E-008  alpha =   0.94483761562202062     
 delta_qm =   0.324517E-04 delta_en =   0.818898E-03 tol =   0.100000E-04
 Iteration #         46
  pAp =    4.6531224798388103E-008  rzold =    3.1971630171799727E-008  alpha =   0.68710055044386587     
 delta_qm =   0.245085E-04 delta_en =   0.467079E-03 tol =   0.100000E-04
 Iteration #         47
  pAp =    3.0390433278292243E-008  rzold =    1.9945613097659806E-008  alpha =   0.65631223204398581     
 delta_qm =   0.155087E-04 delta_en =   0.187029E-03 tol =   0.100000E-04
 Iteration #         48
  pAp =    5.3760362204996177E-008  rzold =    9.7804830908310924E-009  alpha =   0.18192740319599540     
 delta_qm =   0.138284E-04 delta_en =   0.148696E-03 tol =   0.100000E-04
 Iteration #         49
  pAp =    2.5054663522799395E-007  rzold =    2.8899471400898706E-008  alpha =   0.11534567756058903     
 delta_qm =   0.974701E-05 delta_en =   0.738753E-04 tol =   0.100000E-04
 Iteration #         50
  pAp =    4.6059488607553632E-009  rzold =    3.1533548036479794E-009  alpha =   0.68462653385405536     
 delta_qm =   0.535903E-05 delta_en =   0.223321E-04 tol =   0.100000E-04
 Iteration #         51
  pAp =    1.3034886008716844E-009  rzold =    8.1322385241132826E-010  alpha =   0.62388259618649489     
 delta_qm =   0.282256E-05 delta_en =   0.619502E-05 tol =   0.100000E-04
 Charges are converged, EXIT

%%%% DENSITY %%%%%%%%%%%%%%%%%%%%%%%%%%%%%%%%%%%%%%%%%%%%%%%%%%%%%%%%%%%%%%%%%%%
 density label              = velectrostatic                                                                  
 integral of density        =    -0.1004819839E-09

%%%% CHARGES %%%%%%%%%%%%%%%%%%%%%%%%%%%%%%%%%%%%%%%%%%%%%%%%%%%%%%%%%%%%%%%%%%%
 total number of charges    =        100
 total charge               =     -0.0000000

%%%% DENSITY %%%%%%%%%%%%%%%%%%%%%%%%%%%%%%%%%%%%%%%%%%%%%%%%%%%%%%%%%%%%%%%%%%%
 density label              = vsoftcavity                                                                     
 integral of density        =      1543.115570    

%%%% DENSITY %%%%%%%%%%%%%%%%%%%%%%%%%%%%%%%%%%%%%%%%%%%%%%%%%%%%%%%%%%%%%%%%%%%
 density label              = dvtot                                                                           
 integral of density        =      1543.115570    

%%%% ELECTRONS %%%%%%%%%%%%%%%%%%%%%%%%%%%%%%%%%%%%%%%%%%%%%%%%%%%%%%%%%%%%%%%%%
 number of electrons        =         89
 total electronic charge    =     89.0000000

%%%% ELECTRONS %%%%%%%%%%%%%%%%%%%%%%%%%%%%%%%%%%%%%%%%%%%%%%%%%%%%%%%%%%%%%%%%%
 number of electrons        =         89
 total electronic charge    =     89.0000000

%%%% BOUNDARY %%%%%%%%%%%%%%%%%%%%%%%%%%%%%%%%%%%%%%%%%%%%%%%%%%%%%%%%%%%%%%%%%%
 boundary label             = solvent              
 boundary mode              = full                 
 boundary is built as a function of a smooth density
 function type              =  2 
 using the modified SCCS function with parameters 
 rhomax                     =      0.0050000 
 rhomin                     =      0.0001000 
 volume of the QM region    =   1484.0739933 
 surface of the QM region   =    274.7962728 

%%%% DIELECTRIC %%%%%%%%%%%%%%%%%%%%%%%%%%%%%%%%%%%%%%%%%%%%%%%%%%%%%%%%%%%%%%%%%
 dielectric build on homogeneous background
 environment bulk permitt.  =    100.0000000 
 dielectric flags
 need gradient              =  F 
 need factor depend. sqrt   =  T 
 total dielectric charge    =      0.1013442

%%%% DENSITY %%%%%%%%%%%%%%%%%%%%%%%%%%%%%%%%%%%%%%%%%%%%%%%%%%%%%%%%%%%%%%%%%%%
 density label              = vreference                                                                      
 integral of density        =    -0.1505879406E-10

%%%% COMPUTE ELECTROSTATIC POTENTIAL %%%%%%%%%%%%%%%%%%%%%%%%%%%%%%%%%%%%%%%%%%%
 Warning: bad guess with residual norm =   0.372198E+04, reset to no guess
 Iteration #          1
  pAp =    1272.2529256049729       rzold =    1271.3744426813128       alpha =   0.99930950606913127     
 delta_qm =   0.691371E-01 delta_en =   0.371688E+04 tol =   0.100000E-04
 Iteration #          2
  pAp =    306.97696225645569       rzold =    14.335501719838856       alpha =    4.6698949701191726E-002
 delta_qm =   0.620625E-01 delta_en =   0.299512E+04 tol =   0.100000E-04
 Iteration #          3
  pAp =    16.977791582673312       rzold =    1.9478496810194637       alpha =   0.11472927274047480     
 delta_qm =   0.429517E-01 delta_en =   0.143456E+04 tol =   0.100000E-04
 Iteration #          4
  pAp =    5.1913851631577780E-002  rzold =    7.7540842414513811E-002  alpha =    1.4936445664792060     
 delta_qm =   0.159741E-01 delta_en =   0.198421E+03 tol =   0.100000E-04
 Iteration #          5
  pAp =   0.75072226148715671       rzold =   0.21486573269184966       alpha =   0.28621201703304699     
 delta_qm =   0.141191E-01 delta_en =   0.155014E+03 tol =   0.100000E-04
 Iteration #          6
  pAp =    1.3185091555306325       rzold =   0.26194438913656115       alpha =   0.19866709915346922     
 delta_qm =   0.150552E-01 delta_en =   0.176250E+03 tol =   0.100000E-04
 Iteration #          7
  pAp =   0.11375999242166826       rzold =    5.1313156408404476E-002  alpha =   0.45106504770327921     
 delta_qm =   0.113116E-01 delta_en =   0.994955E+02 tol =   0.100000E-04
 Iteration #          8
  pAp =    2.9499257482870883E-002  rzold =    1.7718055684989072E-002  alpha =   0.60062717494761642     
 delta_qm =   0.936621E-02 delta_en =   0.682157E+02 tol =   0.100000E-04
 Iteration #          9
  pAp =    7.0850552076679322E-003  rzold =    7.9562468364846282E-003  alpha =    1.1229618687902154     
 delta_qm =   0.677696E-02 delta_en =   0.357130E+02 tol =   0.100000E-04
 Iteration #         10
  pAp =    1.6978708268731189E-002  rzold =    9.9722312262175497E-003  alpha =   0.58733745043389984     
 delta_qm =   0.477939E-02 delta_en =   0.177623E+02 tol =   0.100000E-04
 Iteration #         11
  pAp =    1.8701873674091287E-002  rzold =    6.0427595470830776E-003  alpha =   0.32310984730125936     
 delta_qm =   0.478645E-02 delta_en =   0.178149E+02 tol =   0.100000E-04
 Iteration #         12
  pAp =    2.5701423655705470E-003  rzold =    1.5669005972722082E-003  alpha =   0.60965517640668565     
 delta_qm =   0.431776E-02 delta_en =   0.144968E+02 tol =   0.100000E-04
 Iteration #         13
  pAp =    1.8793436893575477E-003  rzold =    1.6801504579919771E-003  alpha =   0.89400915197492981     
 delta_qm =   0.484205E-02 delta_en =   0.182311E+02 tol =   0.100000E-04
 Iteration #         14
  pAp =    1.2214546614362262E-002  rzold =    2.9118134167140470E-003  alpha =   0.23838898885450582     
 delta_qm =   0.462179E-02 delta_en =   0.166103E+02 tol =   0.100000E-04
 Iteration #         15
  pAp =    7.9125893277599238E-002  rzold =    9.5200279379247226E-003  alpha =   0.12031495056271130     
 delta_qm =   0.565845E-02 delta_en =   0.248972E+02 tol =   0.100000E-04
 Iteration #         16
  pAp =    6.5463647146277839E-003  rzold =    2.5579222581953690E-003  alpha =   0.39073934461361715     
 delta_qm =   0.468911E-02 delta_en =   0.170977E+02 tol =   0.100000E-04
 Iteration #         17
  pAp =    1.6344840426160078E-003  rzold =    9.7022289618008085E-004  alpha =   0.59359582038331160     
 delta_qm =   0.224470E-02 delta_en =   0.391807E+01 tol =   0.100000E-04
 Iteration #         18
  pAp =    7.8196176373971499E-004  rzold =    4.1513505142146980E-004  alpha =   0.53088919519043432     
 delta_qm =   0.110034E-02 delta_en =   0.941477E+00 tol =   0.100000E-04
 Iteration #         19
  pAp =    1.1848554576737570E-004  rzold =    8.3163686503822800E-005  alpha =   0.70188887568699065     
 delta_qm =   0.731074E-03 delta_en =   0.415603E+00 tol =   0.100000E-04
 Iteration #         20
  pAp =    4.9243635976144207E-005  rzold =    2.8574665028547603E-005  alpha =   0.58027122616190308     
 delta_qm =   0.354241E-03 delta_en =   0.975785E-01 tol =   0.100000E-04
 Iteration #         21
  pAp =    2.2777262094187013E-005  rzold =    1.1159779118272414E-005  alpha =   0.48995261467885121     
 delta_qm =   0.185331E-03 delta_en =   0.267087E-01 tol =   0.100000E-04
 Iteration #         22
  pAp =    4.2684139754620633E-006  rzold =    2.4137388524394294E-006  alpha =   0.56548846159612198     
 delta_qm =   0.901443E-04 delta_en =   0.631877E-02 tol =   0.100000E-04
 Iteration #         23
  pAp =    1.6763508832359649E-006  rzold =    8.1830513392446399E-007  alpha =   0.48814668940003686     
 delta_qm =   0.471675E-04 delta_en =   0.172999E-02 tol =   0.100000E-04
 Iteration #         24
  pAp =    1.0884794876266300E-006  rzold =    2.3755334432779144E-007  alpha =   0.21824328986278238     
 delta_qm =   0.371371E-04 delta_en =   0.107244E-02 tol =   0.100000E-04
 Iteration #         25
  pAp =    9.9808634905413743E-007  rzold =    2.2821056078125234E-007  alpha =   0.22864811345984445     
 delta_qm =   0.246227E-04 delta_en =   0.471443E-03 tol =   0.100000E-04
 Iteration #         26
  pAp =    2.6023717694168171E-007  rzold =    5.1826387943978434E-008  alpha =   0.19915059236748697     
 delta_qm =   0.189869E-04 delta_en =   0.280325E-03 tol =   0.100000E-04
 Iteration #         27
  pAp =    1.2256090090751286E-006  rzold =    1.3397541092703551E-007  alpha =   0.10931333723479750     
 delta_qm =   0.119465E-04 delta_en =   0.110979E-03 tol =   0.100000E-04
 Iteration #         28
  pAp =    2.2130028947151030E-008  rzold =    1.4340987806247242E-008  alpha =   0.64803294385629207     
 delta_qm =   0.634246E-05 delta_en =   0.312803E-04 tol =   0.100000E-04
 Iteration #         29
  pAp =    5.9651751720641499E-009  rzold =    3.4156587590983814E-009  alpha =   0.57259990873268007     
 delta_qm =   0.443343E-05 delta_en =   0.152840E-04 tol =   0.100000E-04
 Iteration #         30
  pAp =    8.6020784468570074E-009  rzold =    2.3466197181229550E-009  alpha =   0.27279682842003766     
 delta_qm =   0.338189E-05 delta_en =   0.889354E-05 tol =   0.100000E-04
 Charges are converged, EXIT

%%%% DENSITY %%%%%%%%%%%%%%%%%%%%%%%%%%%%%%%%%%%%%%%%%%%%%%%%%%%%%%%%%%%%%%%%%%%
 density label              = velectrostatic                                                                  
 integral of density        =     0.8838712099E-10

%%%% CHARGES %%%%%%%%%%%%%%%%%%%%%%%%%%%%%%%%%%%%%%%%%%%%%%%%%%%%%%%%%%%%%%%%%%%
 total number of charges    =        100
 total charge               =     -0.0000000

%%%% DENSITY %%%%%%%%%%%%%%%%%%%%%%%%%%%%%%%%%%%%%%%%%%%%%%%%%%%%%%%%%%%%%%%%%%%
 density label              = vsoftcavity                                                                     
 integral of density        =      72.42710700    

%%%% DENSITY %%%%%%%%%%%%%%%%%%%%%%%%%%%%%%%%%%%%%%%%%%%%%%%%%%%%%%%%%%%%%%%%%%%
 density label              = dvtot                                                                           
 integral of density        =      72.42710700    

%%%% ELECTRONS %%%%%%%%%%%%%%%%%%%%%%%%%%%%%%%%%%%%%%%%%%%%%%%%%%%%%%%%%%%%%%%%%
 number of electrons        =         89
 total electronic charge    =     89.0000000

%%%% ELECTRONS %%%%%%%%%%%%%%%%%%%%%%%%%%%%%%%%%%%%%%%%%%%%%%%%%%%%%%%%%%%%%%%%%
 number of electrons        =         89
 total electronic charge    =     89.0000000

%%%% BOUNDARY %%%%%%%%%%%%%%%%%%%%%%%%%%%%%%%%%%%%%%%%%%%%%%%%%%%%%%%%%%%%%%%%%%
 boundary label             = solvent              
 boundary mode              = full                 
 boundary is built as a function of a smooth density
 function type              =  2 
 using the modified SCCS function with parameters 
 rhomax                     =      0.0050000 
 rhomin                     =      0.0001000 
 volume of the QM region    =   1475.9440151 
 surface of the QM region   =    278.9754172 

%%%% DIELECTRIC %%%%%%%%%%%%%%%%%%%%%%%%%%%%%%%%%%%%%%%%%%%%%%%%%%%%%%%%%%%%%%%%%
 dielectric build on homogeneous background
 environment bulk permitt.  =    100.0000000 
 dielectric flags
 need gradient              =  F 
 need factor depend. sqrt   =  T 
 total dielectric charge    =      0.0174774

%%%% DENSITY %%%%%%%%%%%%%%%%%%%%%%%%%%%%%%%%%%%%%%%%%%%%%%%%%%%%%%%%%%%%%%%%%%%
 density label              = vreference                                                                      
 integral of density        =    -0.2865160202E-11

%%%% COMPUTE ELECTROSTATIC POTENTIAL %%%%%%%%%%%%%%%%%%%%%%%%%%%%%%%%%%%%%%%%%%%
 Warning: bad guess with residual norm =   0.370625E+04, reset to no guess
 Iteration #          1
  pAp =    1271.2033187560689       rzold =    1270.3569386555871       alpha =   0.99933418982786326     
 delta_qm =   0.689925E-01 delta_en =   0.370135E+04 tol =   0.100000E-04
 Iteration #          2
  pAp =    269.66849564030832       rzold =    12.931525741638374       alpha =    4.7953416697539705E-002
 delta_qm =   0.626064E-01 delta_en =   0.304785E+04 tol =   0.100000E-04
 Iteration #          3
  pAp =    21.073240638427265       rzold =    2.2336885435123222       alpha =   0.10599644268471783     
 delta_qm =   0.429832E-01 delta_en =   0.143666E+04 tol =   0.100000E-04
 Iteration #          4
  pAp =    7.9023785005450875E-002  rzold =    8.0574779259234702E-002  alpha =    1.0196269294577176     
 delta_qm =   0.177282E-01 delta_en =   0.244393E+03 tol =   0.100000E-04
 Iteration #          5
  pAp =    1.6789848560836977       rzold =   0.32166193249334846       alpha =   0.19158119939428062     
 delta_qm =   0.177155E-01 delta_en =   0.244042E+03 tol =   0.100000E-04
 Iteration #          6
  pAp =   0.58529177379223529       rzold =   0.21682906904780569       alpha =   0.37046320955943396     
 delta_qm =   0.124430E-01 delta_en =   0.120395E+03 tol =   0.100000E-04
 Iteration #          7
  pAp =   0.11818857580309268       rzold =    5.4466846746772511E-002  alpha =   0.46084696745577725     
 delta_qm =   0.101490E-01 delta_en =   0.800945E+02 tol =   0.100000E-04
 Iteration #          8
  pAp =    3.2780450423636698E-002  rzold =    1.8171135964458567E-002  alpha =   0.55432844056822572     
 delta_qm =   0.924133E-02 delta_en =   0.664087E+02 tol =   0.100000E-04
 Iteration #          9
  pAp =    7.9325195100254185E-003  rzold =    6.9583612562734111E-003  alpha =   0.87719434506012506     
 delta_qm =   0.677689E-02 delta_en =   0.357122E+02 tol =   0.100000E-04
 Iteration #         10
  pAp =    1.3266330428970949E-002  rzold =    7.9332172607806846E-003  alpha =   0.59799635650987271     
 delta_qm =   0.382932E-02 delta_en =   0.114025E+02 tol =   0.100000E-04
 Iteration #         11
  pAp =    1.1411588257744328E-002  rzold =    3.8671494002348841E-003  alpha =   0.33887915624807902     
 delta_qm =   0.301348E-02 delta_en =   0.706143E+01 tol =   0.100000E-04
 Iteration #         12
  pAp =    3.0446718198844439E-003  rzold =    1.0533660635516542E-003  alpha =   0.34597031334287881     
 delta_qm =   0.254628E-02 delta_en =   0.504162E+01 tol =   0.100000E-04
 Iteration #         13
  pAp =    4.5253025986939768E-004  rzold =    3.4711506410975147E-004  alpha =   0.76705381914113424     
 delta_qm =   0.183860E-02 delta_en =   0.262863E+01 tol =   0.100000E-04
 Iteration #         14
  pAp =    8.4443583039526984E-004  rzold =    4.1679607517420013E-004  alpha =   0.49357933447601710     
 delta_qm =   0.179789E-02 delta_en =   0.251353E+01 tol =   0.100000E-04
 Iteration #         15
  pAp =    1.8262646219232317E-002  rzold =    1.3587106818924693E-003  alpha =    7.4398346525577266E-002
 delta_qm =   0.237934E-02 delta_en =   0.440220E+01 tol =   0.100000E-04
 Iteration #         16
  pAp =    1.6791631938638727E-003  rzold =    7.4029960002692185E-004  alpha =   0.44087412273695709     
 delta_qm =   0.286669E-02 delta_en =   0.639024E+01 tol =   0.100000E-04
 Iteration #         17
  pAp =    6.5289599812081193E-004  rzold =    4.2556006163573613E-004  alpha =   0.65180375260469958     
 delta_qm =   0.209410E-02 delta_en =   0.340999E+01 tol =   0.100000E-04
 Iteration #         18
  pAp =    5.7246177622066535E-004  rzold =    3.4992425434706201E-004  alpha =   0.61126221676707659     
 delta_qm =   0.954102E-03 delta_en =   0.707857E+00 tol =   0.100000E-04
 Iteration #         19
  pAp =    1.6448164368911325E-004  rzold =    1.0410301140043603E-004  alpha =   0.63291568022752209     
 delta_qm =   0.699243E-03 delta_en =   0.380200E+00 tol =   0.100000E-04
 Iteration #         20
  pAp =    7.9636316080622458E-005  rzold =    4.3816124105472747E-005  alpha =   0.55020280020379198     
 delta_qm =   0.464065E-03 delta_en =   0.167461E+00 tol =   0.100000E-04
 Iteration #         21
  pAp =    1.7079527504920672E-005  rzold =    1.1300164038771680E-005  alpha =   0.66162041283144768     
 delta_qm =   0.198216E-03 delta_en =   0.305515E-01 tol =   0.100000E-04
 Iteration #         22
  pAp =    4.2642896700097061E-006  rzold =    2.5309801260807253E-006  alpha =   0.59352912722623852     
 delta_qm =   0.820896E-04 delta_en =   0.524001E-02 tol =   0.100000E-04
 Iteration #         23
  pAp =    2.2892028647952371E-006  rzold =    7.6956036118845308E-007  alpha =   0.33616957807594222     
 delta_qm =   0.521603E-04 delta_en =   0.211562E-02 tol =   0.100000E-04
 Iteration #         24
  pAp =    6.6479529755218654E-006  rzold =    9.3615303774218968E-007  alpha =   0.14081824001901902     
 delta_qm =   0.396498E-04 delta_en =   0.122247E-02 tol =   0.100000E-04
 Iteration #         25
  pAp =    1.9174143882270076E-007  rzold =    1.0543797404158281E-007  alpha =   0.54989664565456331     
 delta_qm =   0.204360E-04 delta_en =   0.324748E-03 tol =   0.100000E-04
 Iteration #         26
  pAp =    7.3614767302448191E-008  rzold =    2.8213185351770224E-008  alpha =   0.38325442551296285     
 delta_qm =   0.127087E-04 delta_en =   0.125592E-03 tol =   0.100000E-04
 Iteration #         27
  pAp =    1.2058141310123100E-006  rzold =    7.0597373361593028E-008  alpha =    5.8547475556887718E-002
 delta_qm =   0.993308E-05 delta_en =   0.767227E-04 tol =   0.100000E-04
 Iteration #         28
  pAp =    2.5856996753005759E-008  rzold =    1.1200393964962103E-008  alpha =   0.43316685506641861     
 delta_qm =   0.559174E-05 delta_en =   0.243137E-04 tol =   0.100000E-04
 Iteration #         29
  pAp =    4.4860422257421541E-009  rzold =    2.4927822030109267E-009  alpha =   0.55567515363690767     
 delta_qm =   0.300638E-05 delta_en =   0.702820E-05 tol =   0.100000E-04
 Charges are converged, EXIT

%%%% DENSITY %%%%%%%%%%%%%%%%%%%%%%%%%%%%%%%%%%%%%%%%%%%%%%%%%%%%%%%%%%%%%%%%%%%
 density label              = velectrostatic                                                                  
 integral of density        =     0.3122202293E-10

%%%% CHARGES %%%%%%%%%%%%%%%%%%%%%%%%%%%%%%%%%%%%%%%%%%%%%%%%%%%%%%%%%%%%%%%%%%%
 total number of charges    =        100
 total charge               =     -0.0000000

%%%% DENSITY %%%%%%%%%%%%%%%%%%%%%%%%%%%%%%%%%%%%%%%%%%%%%%%%%%%%%%%%%%%%%%%%%%%
 density label              = vsoftcavity                                                                     
 integral of density        =      67.54396926    

%%%% DENSITY %%%%%%%%%%%%%%%%%%%%%%%%%%%%%%%%%%%%%%%%%%%%%%%%%%%%%%%%%%%%%%%%%%%
 density label              = dvtot                                                                           
 integral of density        =      67.54396926    

%%%% ELECTRONS %%%%%%%%%%%%%%%%%%%%%%%%%%%%%%%%%%%%%%%%%%%%%%%%%%%%%%%%%%%%%%%%%
 number of electrons        =         89
 total electronic charge    =     89.0000000

%%%% ELECTRONS %%%%%%%%%%%%%%%%%%%%%%%%%%%%%%%%%%%%%%%%%%%%%%%%%%%%%%%%%%%%%%%%%
 number of electrons        =         89
 total electronic charge    =     89.0000000

%%%% BOUNDARY %%%%%%%%%%%%%%%%%%%%%%%%%%%%%%%%%%%%%%%%%%%%%%%%%%%%%%%%%%%%%%%%%%
 boundary label             = solvent              
 boundary mode              = full                 
 boundary is built as a function of a smooth density
 function type              =  2 
 using the modified SCCS function with parameters 
 rhomax                     =      0.0050000 
 rhomin                     =      0.0001000 
 volume of the QM region    =   1465.7699588 
 surface of the QM region   =    269.8993433 

%%%% DIELECTRIC %%%%%%%%%%%%%%%%%%%%%%%%%%%%%%%%%%%%%%%%%%%%%%%%%%%%%%%%%%%%%%%%%
 dielectric build on homogeneous background
 environment bulk permitt.  =    100.0000000 
 dielectric flags
 need gradient              =  F 
 need factor depend. sqrt   =  T 
 total dielectric charge    =      0.0138417

%%%% DENSITY %%%%%%%%%%%%%%%%%%%%%%%%%%%%%%%%%%%%%%%%%%%%%%%%%%%%%%%%%%%%%%%%%%%
 density label              = vreference                                                                      
 integral of density        =    -0.3558851178E-10

%%%% COMPUTE ELECTROSTATIC POTENTIAL %%%%%%%%%%%%%%%%%%%%%%%%%%%%%%%%%%%%%%%%%%%
 Warning: bad guess with residual norm =   0.301844E+04, reset to no guess
 Iteration #          1
  pAp =    1270.3378017735618       rzold =    1269.3397533582843       alpha =   0.99921434407928023     
 delta_qm =   0.622551E-01 delta_en =   0.301375E+04 tol =   0.100000E-04
 Iteration #          2
  pAp =    349.15511098311748       rzold =    16.218096255477231       alpha =    4.6449545618312361E-002
 delta_qm =   0.472972E-01 delta_en =   0.173951E+04 tol =   0.100000E-04
 Iteration #          3
  pAp =    20.984983000950130       rzold =    2.2721151379160496       alpha =   0.10827338472531409     
 delta_qm =   0.347944E-01 delta_en =   0.941401E+03 tol =   0.100000E-04
 Iteration #          4
  pAp =   0.37268482096867384       rzold =   0.10233927636873301       alpha =   0.27460006582166430     
 delta_qm =   0.237324E-01 delta_en =   0.437966E+03 tol =   0.100000E-04
 Iteration #          5
  pAp =   0.37384858934874637       rzold =   0.19429149006846408       alpha =   0.51970636135587600     
 delta_qm =   0.153433E-01 delta_en =   0.183059E+03 tol =   0.100000E-04
 Iteration #          6
  pAp =   0.35095908265890619       rzold =   0.16813049515715775       alpha =   0.47906010547834199     
 delta_qm =   0.790445E-02 delta_en =   0.485847E+02 tol =   0.100000E-04
 Iteration #          7
  pAp =   0.10144168961179088       rzold =    4.3897116854651121E-002  alpha =   0.43273250891858983     
 delta_qm =   0.778452E-02 delta_en =   0.471216E+02 tol =   0.100000E-04
 Iteration #          8
  pAp =    2.2402037725900222E-002  rzold =    1.3740057260432242E-002  alpha =   0.61333961796460190     
 delta_qm =   0.700173E-02 delta_en =   0.381212E+02 tol =   0.100000E-04
 Iteration #          9
  pAp =    7.3216504860413286E-003  rzold =    6.3595808880184453E-003  alpha =   0.86859935476883776     
 delta_qm =   0.527917E-02 delta_en =   0.216714E+02 tol =   0.100000E-04
 Iteration #         10
  pAp =    9.9940769459648197E-003  rzold =    6.8799570325100371E-003  alpha =   0.68840344833325195     
 delta_qm =   0.293332E-02 delta_en =   0.669077E+01 tol =   0.100000E-04
 Iteration #         11
  pAp =    8.2488465588115272E-003  rzold =    3.6814083176591717E-003  alpha =   0.44629370802474710     
 delta_qm =   0.280560E-02 delta_en =   0.612079E+01 tol =   0.100000E-04
 Iteration #         12
  pAp =    2.7984380815738192E-003  rzold =    1.1825333761103503E-003  alpha =   0.42256906947367689     
 delta_qm =   0.265043E-02 delta_en =   0.546246E+01 tol =   0.100000E-04
 Iteration #         13
  pAp =    1.0732399086962891E-003  rzold =    8.8466964733469695E-004  alpha =   0.82429812772182820     
 delta_qm =   0.230929E-02 delta_en =   0.414678E+01 tol =   0.100000E-04
 Iteration #         14
  pAp =    6.0615480909247304E-003  rzold =    1.4122437444213593E-003  alpha =   0.23298400396026750     
 delta_qm =   0.176873E-02 delta_en =   0.243264E+01 tol =   0.100000E-04
 Iteration #         15
  pAp =    3.1090670100552942E-002  rzold =    5.4939092003125668E-003  alpha =   0.17670604018968566     
 delta_qm =   0.252653E-02 delta_en =   0.496369E+01 tol =   0.100000E-04
 Iteration #         16
  pAp =    2.5085916413149366E-003  rzold =    1.1325380746398507E-003  alpha =   0.45146370417076115     
 delta_qm =   0.217453E-02 delta_en =   0.367694E+01 tol =   0.100000E-04
 Iteration #         17
  pAp =    7.7167217619460886E-004  rzold =    3.6817636066327345E-004  alpha =   0.47711498745345804     
 delta_qm =   0.131693E-02 delta_en =   0.134861E+01 tol =   0.100000E-04
 Iteration #         18
  pAp =    7.8207283149337792E-004  rzold =    2.7444050266038872E-004  alpha =   0.35091425198384801     
 delta_qm =   0.666178E-03 delta_en =   0.345094E+00 tol =   0.100000E-04
 Iteration #         19
  pAp =    1.2936164744413355E-004  rzold =    7.1913644552827995E-005  alpha =   0.55591163203054295     
 delta_qm =   0.433195E-03 delta_en =   0.145923E+00 tol =   0.100000E-04
 Iteration #         20
  pAp =    4.3348973340785147E-005  rzold =    2.4231447091586632E-005  alpha =   0.55898548971604656     
 delta_qm =   0.305686E-03 delta_en =   0.726620E-01 tol =   0.100000E-04
 Iteration #         21
  pAp =    1.0197828048571464E-005  rzold =    6.3848196517843318E-006  alpha =   0.62609602960296362     
 delta_qm =   0.116368E-03 delta_en =   0.105299E-01 tol =   0.100000E-04
 Iteration #         22
  pAp =    4.0863360330825780E-006  rzold =    1.3431069158709262E-006  alpha =   0.32868244437003308     
 delta_qm =   0.732136E-04 delta_en =   0.416811E-02 tol =   0.100000E-04
 Iteration #         23
  pAp =    9.0537873597572737E-006  rzold =    1.2808584492580054E-006  alpha =   0.14147211529964013     
 delta_qm =   0.444945E-04 delta_en =   0.153946E-02 tol =   0.100000E-04
 Iteration #         24
  pAp =    7.0846353662059578E-007  rzold =    3.1228025446341121E-007  alpha =   0.44078521804100551     
 delta_qm =   0.247735E-04 delta_en =   0.477232E-03 tol =   0.100000E-04
 Iteration #         25
  pAp =    1.5174851950568433E-007  rzold =    9.7583482255508212E-008  alpha =   0.64306052258949942     
 delta_qm =   0.204927E-04 delta_en =   0.326554E-03 tol =   0.100000E-04
 Iteration #         26
  pAp =    6.8653881489448372E-008  rzold =    4.1244331441772288E-008  alpha =   0.60075745969455863     
 delta_qm =   0.140486E-04 delta_en =   0.153470E-03 tol =   0.100000E-04
 Iteration #         27
  pAp =    8.2112282322348610E-007  rzold =    5.0702024421205709E-008  alpha =    6.1747186885105096E-002
 delta_qm =   0.127706E-04 delta_en =   0.126817E-03 tol =   0.100000E-04
 Iteration #         28
  pAp =    5.0824775502795983E-008  rzold =    2.4710979928720542E-008  alpha =   0.48619948999796636     
 delta_qm =   0.582149E-05 delta_en =   0.263526E-04 tol =   0.100000E-04
 Iteration #         29
  pAp =    8.8166100684745440E-009  rzold =    4.6574533433147053E-009  alpha =   0.52825896882616030     
 delta_qm =   0.368976E-05 delta_en =   0.105865E-04 tol =   0.100000E-04
 Iteration #         30
  pAp =    9.9570513892078119E-009  rzold =    2.4148368831849126E-009  alpha =   0.24252530079359552     
 delta_qm =   0.287243E-05 delta_en =   0.641587E-05 tol =   0.100000E-04
 Charges are converged, EXIT

%%%% DENSITY %%%%%%%%%%%%%%%%%%%%%%%%%%%%%%%%%%%%%%%%%%%%%%%%%%%%%%%%%%%%%%%%%%%
 density label              = velectrostatic                                                                  
 integral of density        =    -0.6113658902E-10

%%%% CHARGES %%%%%%%%%%%%%%%%%%%%%%%%%%%%%%%%%%%%%%%%%%%%%%%%%%%%%%%%%%%%%%%%%%%
 total number of charges    =        100
 total charge               =     -0.0000000

%%%% DENSITY %%%%%%%%%%%%%%%%%%%%%%%%%%%%%%%%%%%%%%%%%%%%%%%%%%%%%%%%%%%%%%%%%%%
 density label              = vsoftcavity                                                                     
 integral of density        =      57.35385718    

%%%% DENSITY %%%%%%%%%%%%%%%%%%%%%%%%%%%%%%%%%%%%%%%%%%%%%%%%%%%%%%%%%%%%%%%%%%%
 density label              = dvtot                                                                           
 integral of density        =      57.35385718    

%%%% ELECTRONS %%%%%%%%%%%%%%%%%%%%%%%%%%%%%%%%%%%%%%%%%%%%%%%%%%%%%%%%%%%%%%%%%
 number of electrons        =         89
 total electronic charge    =     89.0000000

%%%% ELECTRONS %%%%%%%%%%%%%%%%%%%%%%%%%%%%%%%%%%%%%%%%%%%%%%%%%%%%%%%%%%%%%%%%%
 number of electrons        =         89
 total electronic charge    =     89.0000000

%%%% BOUNDARY %%%%%%%%%%%%%%%%%%%%%%%%%%%%%%%%%%%%%%%%%%%%%%%%%%%%%%%%%%%%%%%%%%
 boundary label             = solvent              
 boundary mode              = full                 
 boundary is built as a function of a smooth density
 function type              =  2 
 using the modified SCCS function with parameters 
 rhomax                     =      0.0050000 
 rhomin                     =      0.0001000 
 volume of the QM region    =   1467.8986088 
 surface of the QM region   =    270.3294244 

%%%% DIELECTRIC %%%%%%%%%%%%%%%%%%%%%%%%%%%%%%%%%%%%%%%%%%%%%%%%%%%%%%%%%%%%%%%%%
 dielectric build on homogeneous background
 environment bulk permitt.  =    100.0000000 
 dielectric flags
 need gradient              =  F 
 need factor depend. sqrt   =  T 
 total dielectric charge    =      0.0030179

%%%% DENSITY %%%%%%%%%%%%%%%%%%%%%%%%%%%%%%%%%%%%%%%%%%%%%%%%%%%%%%%%%%%%%%%%%%%
 density label              = vreference                                                                      
 integral of density        =     0.2564443886E-10

%%%% COMPUTE ELECTROSTATIC POTENTIAL %%%%%%%%%%%%%%%%%%%%%%%%%%%%%%%%%%%%%%%%%%%
 Warning: bad guess with residual norm =   0.343225E+04, reset to no guess
 Iteration #          1
  pAp =    1271.0385705162992       rzold =    1269.8346790170199       alpha =   0.99905282850795762     
 delta_qm =   0.663749E-01 delta_en =   0.342581E+04 tol =   0.100000E-04
 Iteration #          2
  pAp =    479.16243589020257       rzold =    21.273734594539441       alpha =    4.4397751161391538E-002
 delta_qm =   0.483365E-01 delta_en =   0.181680E+04 tol =   0.100000E-04
 Iteration #          3
  pAp =    19.277651549338444       rzold =    2.2106427158612507       alpha =   0.11467386004998695     
 delta_qm =   0.360457E-01 delta_en =   0.101033E+04 tol =   0.100000E-04
 Iteration #          4
  pAp =   0.40494161899968406       rzold =   0.10529916685963918       alpha =   0.26003542713084610     
 delta_qm =   0.247014E-01 delta_en =   0.474458E+03 tol =   0.100000E-04
 Iteration #          5
  pAp =   0.32572003527485333       rzold =   0.18736100416537049       alpha =   0.57522099924638992     
 delta_qm =   0.147561E-01 delta_en =   0.169317E+03 tol =   0.100000E-04
 Iteration #          6
  pAp =   0.34701625147429549       rzold =   0.16388271260554443       alpha =   0.47226235632852975     
 delta_qm =   0.879235E-02 delta_en =   0.601128E+02 tol =   0.100000E-04
 Iteration #          7
  pAp =    9.7555393488801323E-002  rzold =    4.2962381346139535E-002  alpha =   0.44038960645544745     
 delta_qm =   0.853173E-02 delta_en =   0.566019E+02 tol =   0.100000E-04
 Iteration #          8
  pAp =    2.2521670658075560E-002  rzold =    1.4279395093904225E-002  alpha =   0.63402912291429347     
 delta_qm =   0.757897E-02 delta_en =   0.446659E+02 tol =   0.100000E-04
 Iteration #          9
  pAp =    7.8251381229920130E-003  rzold =    7.3069821670982476E-003  alpha =   0.93378315529392297     
 delta_qm =   0.575286E-02 delta_en =   0.257350E+02 tol =   0.100000E-04
 Iteration #         10
  pAp =    1.2187827237953537E-002  rzold =    8.5290673632969025E-003  alpha =   0.69980212196780545     
 delta_qm =   0.346775E-02 delta_en =   0.935086E+01 tol =   0.100000E-04
 Iteration #         11
  pAp =    9.4946305666230042E-003  rzold =    4.4383029236676561E-003  alpha =   0.46745398807509858     
 delta_qm =   0.364928E-02 delta_en =   0.103555E+02 tol =   0.100000E-04
 Iteration #         12
  pAp =    3.1929664552637462E-003  rzold =    1.5701187074902555E-003  alpha =   0.49174293857733631     
 delta_qm =   0.338833E-02 delta_en =   0.892748E+01 tol =   0.100000E-04
 Iteration #         13
  pAp =    2.0734572418350415E-003  rzold =    1.6261335015255144E-003  alpha =   0.78426189299489057     
 delta_qm =   0.286114E-02 delta_en =   0.636554E+01 tol =   0.100000E-04
 Iteration #         14
  pAp =    3.0718705878893639E-003  rzold =    2.1825869590318559E-003  alpha =   0.71050745680386185     
 delta_qm =   0.285850E-02 delta_en =   0.635381E+01 tol =   0.100000E-04
 Iteration #         15
[...]
 density label              = velectrostatic                                                                  
 integral of density        =     0.6343975477E-10

%%%% CHARGES %%%%%%%%%%%%%%%%%%%%%%%%%%%%%%%%%%%%%%%%%%%%%%%%%%%%%%%%%%%%%%%%%%%
 total number of charges    =        100
 total charge               =      0.0000000

%%%% DENSITY %%%%%%%%%%%%%%%%%%%%%%%%%%%%%%%%%%%%%%%%%%%%%%%%%%%%%%%%%%%%%%%%%%%
 density label              = vsoftcavity                                                                     
 integral of density        =      60.57666511    

%%%% DENSITY %%%%%%%%%%%%%%%%%%%%%%%%%%%%%%%%%%%%%%%%%%%%%%%%%%%%%%%%%%%%%%%%%%%
 density label              = dvtot                                                                           
 integral of density        =      60.57666511    

%%%% ELECTRONS %%%%%%%%%%%%%%%%%%%%%%%%%%%%%%%%%%%%%%%%%%%%%%%%%%%%%%%%%%%%%%%%%
 number of electrons        =         89
 total electronic charge    =     89.0000000

%%%% ELECTRONS %%%%%%%%%%%%%%%%%%%%%%%%%%%%%%%%%%%%%%%%%%%%%%%%%%%%%%%%%%%%%%%%%
 number of electrons        =         89
 total electronic charge    =     89.0000000

%%%% BOUNDARY %%%%%%%%%%%%%%%%%%%%%%%%%%%%%%%%%%%%%%%%%%%%%%%%%%%%%%%%%%%%%%%%%%
 boundary label             = solvent              
 boundary mode              = full                 
 boundary is built as a function of a smooth density
 function type              =  2 
 using the modified SCCS function with parameters 
 rhomax                     =      0.0050000 
 rhomin                     =      0.0001000 
 volume of the QM region    =   1470.9190897 
 surface of the QM region   =    271.4400915 

%%%% DIELECTRIC %%%%%%%%%%%%%%%%%%%%%%%%%%%%%%%%%%%%%%%%%%%%%%%%%%%%%%%%%%%%%%%%%
 dielectric build on homogeneous background
 environment bulk permitt.  =    100.0000000 
 dielectric flags
 need gradient              =  F 
 need factor depend. sqrt   =  T 
 total dielectric charge    =      0.0050125

%%%% DENSITY %%%%%%%%%%%%%%%%%%%%%%%%%%%%%%%%%%%%%%%%%%%%%%%%%%%%%%%%%%%%%%%%%%%
 density label              = vreference                                                                      
 integral of density        =    -0.4476979369E-11

%%%% COMPUTE ELECTROSTATIC POTENTIAL %%%%%%%%%%%%%%%%%%%%%%%%%%%%%%%%%%%%%%%%%%%
 Warning: bad guess with residual norm =   0.358765E+04, reset to no guess
 Iteration #          1
  pAp =    1271.2810492079786       rzold =    1269.8631846424180       alpha =   0.99888469621533016     
 delta_qm =   0.678497E-01 delta_en =   0.357975E+04 tol =   0.100000E-04
 Iteration #          2
  pAp =    586.65030681327312       rzold =    25.845218634864018       alpha =    4.4055578484663398E-002
 delta_qm =   0.454241E-01 delta_en =   0.160446E+04 tol =   0.100000E-04
 Iteration #          3
  pAp =    18.994798798227180       rzold =    2.2265132859235015       alpha =   0.11721699764102299     
 delta_qm =   0.352807E-01 delta_en =   0.967903E+03 tol =   0.100000E-04
 Iteration #          4
  pAp =   0.67902885348158881       rzold =   0.13213948653725791       alpha =   0.19460069459454971     
 delta_qm =   0.254459E-01 delta_en =   0.503490E+03 tol =   0.100000E-04
 Iteration #          5
  pAp =   0.19957646525444739       rzold =   0.14338151990312586       alpha =   0.71842899772938396     
 delta_qm =   0.151207E-01 delta_en =   0.177787E+03 tol =   0.100000E-04
 Iteration #          6
  pAp =   0.32095669144383604       rzold =   0.16046674186600632       alpha =   0.49996384603835647     
 delta_qm =   0.803621E-02 delta_en =   0.502180E+02 tol =   0.100000E-04
 Iteration #          7
  pAp =   0.10011109393366066       rzold =    4.2509154401519568E-002  alpha =   0.42461981715721303     
 delta_qm =   0.795675E-02 delta_en =   0.492298E+02 tol =   0.100000E-04
 Iteration #          8
  pAp =    2.0018315722327977E-002  rzold =    1.2986809260703983E-002  alpha =   0.64874635013468140     
 delta_qm =   0.699646E-02 delta_en =   0.380639E+02 tol =   0.100000E-04
 Iteration #          9
  pAp =    8.9725575143706181E-003  rzold =    7.4022367541596804E-003  alpha =   0.82498626977917033     
 delta_qm =   0.538747E-02 delta_en =   0.225697E+02 tol =   0.100000E-04
 Iteration #         10
  pAp =    1.5222614869606431E-002  rzold =    8.8621062750007043E-003  alpha =   0.58216714742582376     
 delta_qm =   0.347138E-02 delta_en =   0.937045E+01 tol =   0.100000E-04
 Iteration #         11
  pAp =    1.6038009488450029E-002  rzold =    6.5900655645150389E-003  alpha =   0.41090295957618406     
 delta_qm =   0.325903E-02 delta_en =   0.825913E+01 tol =   0.100000E-04
 Iteration #         12
  pAp =    4.3584574540323079E-003  rzold =    2.2186813831871662E-003  alpha =   0.50905197689483284     
 delta_qm =   0.337214E-02 delta_en =   0.884236E+01 tol =   0.100000E-04
 Iteration #         13
  pAp =    1.0742956787081316E-003  rzold =    1.1971014893125225E-003  alpha =    1.1143128591488594     
 delta_qm =   0.266797E-02 delta_en =   0.553502E+01 tol =   0.100000E-04
 Iteration #         14
  pAp =    2.4664568091242772E-003  rzold =    1.9461930197592478E-003  alpha =   0.78906430169772535     
 delta_qm =   0.233034E-02 delta_en =   0.422274E+01 tol =   0.100000E-04
 Iteration #         15
  pAp =    5.6524567942597852E-002  rzold =    3.8133298867575063E-003  alpha =    6.7463229274570310E-002
 delta_qm =   0.244275E-02 delta_en =   0.463994E+01 tol =   0.100000E-04
 Iteration #         16
  pAp =    8.1195308595445274E-003  rzold =    1.9617656476559435E-003  alpha =   0.24161071391826577     
 delta_qm =   0.205284E-02 delta_en =   0.327693E+01 tol =   0.100000E-04
 Iteration #         17
  pAp =    1.3788530129918383E-003  rzold =    5.1700880766662163E-004  alpha =   0.37495570796543048     
 delta_qm =   0.141264E-02 delta_en =   0.155175E+01 tol =   0.100000E-04
 Iteration #         18
  pAp =    3.8571589368816797E-004  rzold =    2.1376766561201260E-004  alpha =   0.55421015599847978     
 delta_qm =   0.624864E-03 delta_en =   0.303618E+00 tol =   0.100000E-04
 Iteration #         19
  pAp =    1.1376103600389795E-004  rzold =    6.9149627517923147E-005  alpha =   0.60784983986567931     
 delta_qm =   0.410626E-03 delta_en =   0.131114E+00 tol =   0.100000E-04
 Iteration #         20
  pAp =    3.6721837847851851E-005  rzold =    2.1330567127214034E-005  alpha =   0.58086872491491670     
 delta_qm =   0.281629E-03 delta_en =   0.616753E-01 tol =   0.100000E-04
 Iteration #         21
  pAp =    8.2097786623706274E-006  rzold =    5.4604596063693139E-006  alpha =   0.66511654344559035     
 delta_qm =   0.106470E-03 delta_en =   0.881483E-02 tol =   0.100000E-04
 Iteration #         22
  pAp =    1.9401115679366558E-006  rzold =    1.2073621273344546E-006  alpha =   0.62231582311449563     
 delta_qm =   0.585247E-04 delta_en =   0.266339E-02 tol =   0.100000E-04
 Iteration #         23
  pAp =    3.0578486075112018E-006  rzold =    7.1043633466313658E-007  alpha =   0.23233208240527128     
 delta_qm =   0.573235E-04 delta_en =   0.255518E-02 tol =   0.100000E-04
 Iteration #         24
  pAp =    2.8773683984846160E-006  rzold =    8.5612033191717109E-007  alpha =   0.29753587770271345     
 delta_qm =   0.460446E-04 delta_en =   0.164859E-02 tol =   0.100000E-04
 Iteration #         25
  pAp =    3.9069733311841879E-007  rzold =    2.3406681930360970E-007  alpha =   0.59910012038056326     
 delta_qm =   0.294023E-04 delta_en =   0.672230E-03 tol =   0.100000E-04
 Iteration #         26
  pAp =    1.4614752677873842E-007  rzold =    7.3477570498071685E-008  alpha =   0.50276301021031866     
 delta_qm =   0.148151E-04 delta_en =   0.170673E-03 tol =   0.100000E-04
 Iteration #         27
  pAp =    2.8490767787561482E-007  rzold =    3.4522286076908687E-008  alpha =   0.12117007984593679     
 delta_qm =   0.122562E-04 delta_en =   0.116807E-03 tol =   0.100000E-04
 Iteration #         28
  pAp =    3.1421534680934927E-007  rzold =    5.5392363571095637E-008  alpha =   0.17628789979091969     
 delta_qm =   0.536698E-05 delta_en =   0.223984E-04 tol =   0.100000E-04
 Iteration #         29
  pAp =    9.2450624647215520E-009  rzold =    4.5680999837408671E-009  alpha =   0.49411239796079104     
 delta_qm =   0.348835E-05 delta_en =   0.946229E-05 tol =   0.100000E-04
 Charges are converged, EXIT

%%%% DENSITY %%%%%%%%%%%%%%%%%%%%%%%%%%%%%%%%%%%%%%%%%%%%%%%%%%%%%%%%%%%%%%%%%%%
 density label              = velectrostatic                                                                  
 integral of density        =     0.1582216532E-10

%%%% CHARGES %%%%%%%%%%%%%%%%%%%%%%%%%%%%%%%%%%%%%%%%%%%%%%%%%%%%%%%%%%%%%%%%%%%
 total number of charges    =        100
 total charge               =      0.0000000

%%%% DENSITY %%%%%%%%%%%%%%%%%%%%%%%%%%%%%%%%%%%%%%%%%%%%%%%%%%%%%%%%%%%%%%%%%%%
 density label              = vsoftcavity                                                                     
 integral of density        =      60.57826125    

%%%% DENSITY %%%%%%%%%%%%%%%%%%%%%%%%%%%%%%%%%%%%%%%%%%%%%%%%%%%%%%%%%%%%%%%%%%%
 density label              = dvtot                                                                           
 integral of density        =      60.57826125    

%%%% ELECTRONS %%%%%%%%%%%%%%%%%%%%%%%%%%%%%%%%%%%%%%%%%%%%%%%%%%%%%%%%%%%%%%%%%
 number of electrons        =         89
 total electronic charge    =     89.0000000

%%%% ELECTRONS %%%%%%%%%%%%%%%%%%%%%%%%%%%%%%%%%%%%%%%%%%%%%%%%%%%%%%%%%%%%%%%%%
 number of electrons        =         89
 total electronic charge    =     89.0000000

%%%% BOUNDARY %%%%%%%%%%%%%%%%%%%%%%%%%%%%%%%%%%%%%%%%%%%%%%%%%%%%%%%%%%%%%%%%%%
 boundary label             = solvent              
 boundary mode              = full                 
 boundary is built as a function of a smooth density
 function type              =  2 
 using the modified SCCS function with parameters 
 rhomax                     =      0.0050000 
 rhomin                     =      0.0001000 
 volume of the QM region    =   1470.9268252 
 surface of the QM region   =    271.4597951 

%%%% DIELECTRIC %%%%%%%%%%%%%%%%%%%%%%%%%%%%%%%%%%%%%%%%%%%%%%%%%%%%%%%%%%%%%%%%%
 dielectric build on homogeneous background
 environment bulk permitt.  =    100.0000000 
 dielectric flags
 need gradient              =  F 
 need factor depend. sqrt   =  T 
 total dielectric charge    =      0.0050272

%%%% DENSITY %%%%%%%%%%%%%%%%%%%%%%%%%%%%%%%%%%%%%%%%%%%%%%%%%%%%%%%%%%%%%%%%%%%
 density label              = vreference                                                                      
 integral of density        =     0.4378038870E-11

%%%% COMPUTE ELECTROSTATIC POTENTIAL %%%%%%%%%%%%%%%%%%%%%%%%%%%%%%%%%%%%%%%%%%%
 Warning: bad guess with residual norm =   0.358225E+04, reset to no guess
 Iteration #          1
  pAp =    1271.2794070210648       rzold =    1269.8640983432199       alpha =   0.99888670525926215     
 delta_qm =   0.677987E-01 delta_en =   0.357437E+04 tol =   0.100000E-04
 Iteration #          2
  pAp =    584.75113170891109       rzold =    25.772987457165431       alpha =    4.4075139079842285E-002
 delta_qm =   0.454398E-01 delta_en =   0.160557E+04 tol =   0.100000E-04
 Iteration #          3
  pAp =    19.032567564499288       rzold =    2.2295255886166157       alpha =   0.11714265986767142     
 delta_qm =   0.352833E-01 delta_en =   0.968040E+03 tol =   0.100000E-04
 Iteration #          4
  pAp =   0.67918326726634703       rzold =   0.13217677634780264       alpha =   0.19461135560627479     
 delta_qm =   0.254469E-01 delta_en =   0.503533E+03 tol =   0.100000E-04
 Iteration #          5
  pAp =   0.19974438526905444       rzold =   0.14341285020707090       alpha =   0.71798188476684677     
 delta_qm =   0.151316E-01 delta_en =   0.178043E+03 tol =   0.100000E-04
 Iteration #          6
  pAp =   0.32097049663143140       rzold =   0.16053124001399732       alpha =   0.50014328948848663     
 delta_qm =   0.803585E-02 delta_en =   0.502135E+02 tol =   0.100000E-04
 Iteration #          7
  pAp =   0.10022962514048725       rzold =    4.2544284829867052E-002  alpha =   0.42446816268378423     
 delta_qm =   0.795707E-02 delta_en =   0.492337E+02 tol =   0.100000E-04
 Iteration #          8
  pAp =    2.0033295130916846E-002  rzold =    1.2993903804902503E-002  alpha =   0.64861540350640368     
 delta_qm =   0.699814E-02 delta_en =   0.380822E+02 tol =   0.100000E-04
 Iteration #          9
  pAp =    8.9862164320498837E-003  rzold =    7.4074715992126991E-003  alpha =   0.82431484432018620     
 delta_qm =   0.539141E-02 delta_en =   0.226027E+02 tol =   0.100000E-04
 Iteration #         10
  pAp =    1.5264489524082554E-002  rzold =    8.8752951827880591E-003  alpha =   0.58143412976802400     
 delta_qm =   0.347594E-02 delta_en =   0.939509E+01 tol =   0.100000E-04
 Iteration #         11
  pAp =    1.6049121345887270E-002  rzold =    6.6032340186055255E-003  alpha =   0.41143897390355660     
 delta_qm =   0.326037E-02 delta_en =   0.826587E+01 tol =   0.100000E-04
 Iteration #         12
  pAp =    4.3568624249230347E-003  rzold =    2.2205005985370717E-003  alpha =   0.50965589040289638     
 delta_qm =   0.337273E-02 delta_en =   0.884543E+01 tol =   0.100000E-04
 Iteration #         13
  pAp =    1.0769723096981957E-003  rzold =    1.1980539478432981E-003  alpha =    1.1124278099397316     
 delta_qm =   0.269206E-02 delta_en =   0.563543E+01 tol =   0.100000E-04
 Iteration #         14
  pAp =    3.2721208888107393E-003  rzold =    1.9788331817314200E-003  alpha =   0.60475552370274188     
 delta_qm =   0.216277E-02 delta_en =   0.363727E+01 tol =   0.100000E-04
 Iteration #         15
  pAp =   0.14006186332858608       rzold =    8.9851253070787011E-003  alpha =    6.4151119323605857E-002
 delta_qm =   0.243383E-02 delta_en =   0.460613E+01 tol =   0.100000E-04
 Iteration #         16
  pAp =    4.5201344330994611E-003  rzold =    1.5026918494931651E-003  alpha =   0.33244406150610162     
 delta_qm =   0.205421E-02 delta_en =   0.328129E+01 tol =   0.100000E-04
 Iteration #         17
  pAp =    1.3752376289382527E-003  rzold =    5.1638980666637228E-004  alpha =   0.37549133022563469     
 delta_qm =   0.141427E-02 delta_en =   0.155532E+01 tol =   0.100000E-04
 Iteration #         18
  pAp =    3.8830451382033628E-004  rzold =    2.1481952381238940E-004  alpha =   0.55322437975002203     
 delta_qm =   0.626459E-03 delta_en =   0.305170E+00 tol =   0.100000E-04
 Iteration #         19
  pAp =    1.1423243697412896E-004  rzold =    6.9470448915300614E-005  alpha =   0.60814993320184607     
 delta_qm =   0.411452E-03 delta_en =   0.131642E+00 tol =   0.100000E-04
 Iteration #         20
  pAp =    3.6861338118804560E-005  rzold =    2.1414240500151795E-005  alpha =   0.58094039969828082     
 delta_qm =   0.282969E-03 delta_en =   0.622634E-01 tol =   0.100000E-04
 Iteration #         21
  pAp =    8.3775819439287516E-006  rzold =    5.4968815080485791E-006  alpha =   0.65614177752474012     
 delta_qm =   0.106328E-03 delta_en =   0.879120E-02 tol =   0.100000E-04
 Iteration #         22
  pAp =    7.6849273626675702E-006  rzold =    1.6956558331689055E-006  alpha =   0.22064695645741461     
 delta_qm =   0.858729E-04 delta_en =   0.573414E-02 tol =   0.100000E-04
 Iteration #         23
  pAp =    6.7426673428693567E-006  rzold =    1.8944834157501393E-006  alpha =   0.28096943233505833     
 delta_qm =   0.569795E-04 delta_en =   0.252460E-02 tol =   0.100000E-04
 Iteration #         24
  pAp =    6.6360953227440622E-007  rzold =    4.5662952883982508E-007  alpha =   0.68809971320756469     
 delta_qm =   0.467077E-04 delta_en =   0.169642E-02 tol =   0.100000E-04
 Iteration #         25
  pAp =    3.8410792873424947E-007  rzold =    2.3320243688464417E-007  alpha =   0.60712737082287249     
 delta_qm =   0.295770E-04 delta_en =   0.680242E-03 tol =   0.100000E-04
 Iteration #         26
  pAp =    1.4914010603053772E-007  rzold =    7.4827376441415100E-008  alpha =   0.50172538046937920     
 delta_qm =   0.150034E-04 delta_en =   0.175039E-03 tol =   0.100000E-04
 Iteration #         27
  pAp =    2.7139395110818367E-007  rzold =    3.4169791401031452E-008  alpha =   0.12590476413164645     
 delta_qm =   0.121961E-04 delta_en =   0.115664E-03 tol =   0.100000E-04
 Iteration #         28
  pAp =    3.3670310578127114E-007  rzold =    5.7555584464111245E-008  alpha =   0.17093868002958210     
 delta_qm =   0.539131E-05 delta_en =   0.226019E-04 tol =   0.100000E-04
 Iteration #         29
  pAp =    9.1487806011090731E-009  rzold =    4.5858853048955985E-009  alpha =   0.50125645207183878     
 delta_qm =   0.349744E-05 delta_en =   0.951168E-05 tol =   0.100000E-04
 Charges are converged, EXIT

%%%% DENSITY %%%%%%%%%%%%%%%%%%%%%%%%%%%%%%%%%%%%%%%%%%%%%%%%%%%%%%%%%%%%%%%%%%%
 density label              = velectrostatic                                                                  
 integral of density        =    -0.1163825614E-10

%%%% CHARGES %%%%%%%%%%%%%%%%%%%%%%%%%%%%%%%%%%%%%%%%%%%%%%%%%%%%%%%%%%%%%%%%%%%
 total number of charges    =        100
 total charge               =      0.0000000

%%%% DENSITY %%%%%%%%%%%%%%%%%%%%%%%%%%%%%%%%%%%%%%%%%%%%%%%%%%%%%%%%%%%%%%%%%%%
 density label              = vsoftcavity                                                                     
 integral of density        =      60.59207588    

%%%% DENSITY %%%%%%%%%%%%%%%%%%%%%%%%%%%%%%%%%%%%%%%%%%%%%%%%%%%%%%%%%%%%%%%%%%%
 density label              = dvtot                                                                           
 integral of density        =      60.59207588    

%%%% ELECTRONS %%%%%%%%%%%%%%%%%%%%%%%%%%%%%%%%%%%%%%%%%%%%%%%%%%%%%%%%%%%%%%%%%
 number of electrons        =         89
 total electronic charge    =     89.0000000

%%%% ELECTRONS %%%%%%%%%%%%%%%%%%%%%%%%%%%%%%%%%%%%%%%%%%%%%%%%%%%%%%%%%%%%%%%%%
 number of electrons        =         89
 total electronic charge    =     89.0000000

%%%% BOUNDARY %%%%%%%%%%%%%%%%%%%%%%%%%%%%%%%%%%%%%%%%%%%%%%%%%%%%%%%%%%%%%%%%%%
 boundary label             = solvent              
 boundary mode              = full                 
 boundary is built as a function of a smooth density
 function type              =  2 
 using the modified SCCS function with parameters 
 rhomax                     =      0.0050000 
 rhomin                     =      0.0001000 
 volume of the QM region    =   1470.9268252 
 surface of the QM region   =    271.4597951 

%%%% DIELECTRIC %%%%%%%%%%%%%%%%%%%%%%%%%%%%%%%%%%%%%%%%%%%%%%%%%%%%%%%%%%%%%%%%%
 dielectric build on homogeneous background
 environment bulk permitt.  =    100.0000000 
 dielectric flags
 need gradient              =  F 
 need factor depend. sqrt   =  T 
 total dielectric charge    =      0.0050970

%%%% DENSITY %%%%%%%%%%%%%%%%%%%%%%%%%%%%%%%%%%%%%%%%%%%%%%%%%%%%%%%%%%%%%%%%%%%
 density label              = dvtot                                                                           
 integral of density        =      60.59207588    

%%%% DENSITY %%%%%%%%%%%%%%%%%%%%%%%%%%%%%%%%%%%%%%%%%%%%%%%%%%%%%%%%%%%%%%%%%%%
 density label              = vreference                                                                      
 integral of density        =     0.4378038870E-11

%%%% DENSITY %%%%%%%%%%%%%%%%%%%%%%%%%%%%%%%%%%%%%%%%%%%%%%%%%%%%%%%%%%%%%%%%%%%
 density label              = velectrostatic                                                                  
 integral of density        =    -0.1163825614E-10

%%%% CHARGES %%%%%%%%%%%%%%%%%%%%%%%%%%%%%%%%%%%%%%%%%%%%%%%%%%%%%%%%%%%%%%%%%%%
 total number of charges    =         99
 total charge               =     -1.0000000

%%%% DENSITY %%%%%%%%%%%%%%%%%%%%%%%%%%%%%%%%%%%%%%%%%%%%%%%%%%%%%%%%%%%%%%%%%%%
 density label              = vsoftcavity                                                                     
 integral of density        =      60.59207588    
