
     Program PWSCF v.6.1 (svn rev. 13369) starts on 31Jan2018 at 22:12:23 

     This program is part of the open-source Quantum ESPRESSO suite
     for quantum simulation of materials; please cite
         "P. Giannozzi et al., J. Phys.:Condens. Matter 21 395502 (2009);
          URL http://www.quantum-espresso.org", 
     in publications or presentations arising from this work. More details at
     http://www.quantum-espresso.org/quote

     Parallel version (MPI), running on     1 processors
     Reading input from slab.in

     Current dimensions of program PWSCF are:
     Max number of different atomic species (ntypx) = 10
     Max number of k-points (npk) =  40000
     Max angular momentum in pseudopotentials (lmaxx) =  3
               file C.pbe-rrkjus.UPF: wavefunction(s)  2S 2P renormalized
               file O.pbe-rrkjus.UPF: wavefunction(s)  2S renormalized

     gamma-point specific algorithms are used

     Subspace diagonalization in iterative solution of the eigenvalue problem:
     a serial algorithm will be used

 
     G-vector sticks info
     --------------------
     sticks:   dense  smooth     PW     G-vecs:    dense   smooth      PW
     Sum        2357    1099    269               366833   116965   14571
 


     bravais-lattice index     =            8
     lattice parameter (alat)  =      10.6881  a.u.
     unit-cell volume          =    4181.1215 (a.u.)^3
     number of atoms/cell      =           10
     number of atomic types    =            3
     number of electrons       =        89.00
     number of Kohn-Sham states=           80
     kinetic-energy cutoff     =      35.0000  Ry
     charge density cutoff     =     300.0000  Ry
     convergence threshold     =      5.0E-03
     mixing beta               =       0.7000
     number of iterations used =            8  plain     mixing
     Exchange-correlation      = PBE ( 1  4  3  4 0 0)
 

     Environ Module
     ==============

     Plese cite
         O. Andreussi, I. Dabo and N. Marzari, J. Chem. Phys. 136, 064102 (2012)         
     in publications or presentations arising from this work.

     compensation onset threshold      =               0.1000E+03 

     Electrostatic Setup
     -------------------
     electrostatic problem to solve    = poisson                  
     numerical solver adopted          = direct                   
     type of auxiliary density adopted = none                     
     type of core tool for poisson     = fft                      
     type of core tool for s(r) deriv  = analytic                 



     celldm(1)=  10.688100  celldm(2)=   0.866025  celldm(3)=   3.954220
     celldm(4)=   0.000000  celldm(5)=   0.000000  celldm(6)=   0.000000

     crystal axes: (cart. coord. in units of alat)
               a(1) = (   1.000000   0.000000   0.000000 )  
               a(2) = (   0.000000   0.866025   0.000000 )  
               a(3) = (   0.000000   0.000000   3.954220 )  

     reciprocal axes: (cart. coord. in units 2 pi/alat)
               b(1) = (  1.000000  0.000000  0.000000 )  
               b(2) = (  0.000000  1.154701  0.000000 )  
               b(3) = (  0.000000  0.000000  0.252894 )  


     PseudoPot. # 1 for C  read from file:
     /home/fnattino/Programs/qe-6.1/Environ/tests/../..//pseudo/C.pbe-rrkjus.UPF
     MD5 check sum: 00fb224312de0c5b6853bd333518df6f
     Pseudo is Ultrasoft, Zval =  4.0
     Generated by new atomic code, or converted to UPF format
     Using radial grid of  627 points,  4 beta functions with: 
                l(1) =   0
                l(2) =   0
                l(3) =   1
                l(4) =   1
     Q(r) pseudized with 0 coefficients 


     PseudoPot. # 2 for O  read from file:
     /home/fnattino/Programs/qe-6.1/Environ/tests/../..//pseudo/O.pbe-rrkjus.UPF
     MD5 check sum: 390ba29e75625707450f3bd3f0eb6be9
     Pseudo is Ultrasoft, Zval =  6.0
     Generated by new atomic code, or converted to UPF format
     Using radial grid of 1269 points,  4 beta functions with: 
                l(1) =   0
                l(2) =   0
                l(3) =   1
                l(4) =   1
     Q(r) pseudized with 0 coefficients 


     PseudoPot. # 3 for Pt read from file:
     /home/fnattino/Programs/qe-6.1/Environ/tests/../..//pseudo/Pt.pbe-n-rrkjus_psl.0.1.UPF
     MD5 check sum: df5be8f5ed4f66d4aed38ca70ec8d507
     Pseudo is Ultrasoft + core correction, Zval = 10.0
     Generated using "atomic" code by A. Dal Corso  v.5.0.2 svn rev. 9415
     Using radial grid of 1277 points,  6 beta functions with: 
                l(1) =   0
                l(2) =   0
                l(3) =   1
                l(4) =   1
                l(5) =   2
                l(6) =   2
     Q(r) pseudized with 0 coefficients 


     atomic species   valence    mass     pseudopotential
        C              4.00     1.00000     C ( 1.00)
        O              6.00     1.00000     O ( 1.00)
        Pt            10.00     1.00000     Pt( 1.00)

     No symmetry found



   Cartesian axes

     site n.     atom                  positions (alat units)
         1           C   tau(   1) = (   0.4991611   0.4347567   0.7762281  )
         2           O   tau(   2) = (   0.4991542   0.4322212   0.9800832  )
         3           Pt  tau(   3) = (   0.7542339   0.0091745   0.4105048  )
         4           Pt  tau(   4) = (   0.2441023   0.0091745   0.4105046  )
         5           Pt  tau(   5) = (   0.0000034   0.4416918   0.4083168  )
         6           Pt  tau(   6) = (   0.4991682   0.4417635   0.4468119  )
         7           Pt  tau(   7) = (   0.0000038   0.7300598   0.0000000  )
         8           Pt  tau(   8) = (   0.4991683   0.7202168   0.0139279  )
         9           Pt  tau(   9) = (   0.2524172   0.2949237   0.0078392  )
        10           Pt  tau(  10) = (   0.7459196   0.2949237   0.0078394  )

     number of k points=     1  Marzari-Vanderbilt smearing, width (Ry)=  0.0300
                       cart. coord. in units 2pi/alat
        k(    1) = (   0.0000000   0.0000000   0.0000000), wk =   2.0000000

     Dense  grid:   183417 G-vectors     FFT dimensions: (  60,  54, 240)

     Smooth grid:    58483 G-vectors     FFT dimensions: (  45,  36, 160)

     Estimated max dynamical RAM per process >     231.32MB

     Initial potential from superposition of free atoms
     Check: negative starting charge=   -0.003083

     starting charge   89.99859, renormalised to   89.00000

     negative rho (up, down):  3.049E-03 0.000E+00
     Starting wfc are   80 randomized atomic wfcs

     total cpu time spent up to now is        5.3 secs

     per-process dynamical memory:   214.2 Mb

     Self-consistent Calculation

     iteration #  1     ecut=    35.00 Ry     beta=0.70
     Davidson diagonalization with overlap
     ethr =  1.00E-02,  avg # of iterations =  5.0

     negative rho (up, down):  2.886E-03 0.000E+00

     add environment contribution to local potential

     total cpu time spent up to now is        7.6 secs

     total energy              =    -622.68828071 Ry
     Harris-Foulkes estimate   =    -624.21130265 Ry
     estimated scf accuracy    <       1.86638633 Ry
     electrostatic embedding   =       0.03381190 Ry
     correction to one-el term =       0.00000000 Ry

     iteration #  2     ecut=    35.00 Ry     beta=0.70
     Davidson diagonalization with overlap
     ethr =  2.10E-03,  avg # of iterations =  7.0

     negative rho (up, down):  3.614E-02 0.000E+00

     total cpu time spent up to now is       10.1 secs

     total energy              =    -611.52974893 Ry
     Harris-Foulkes estimate   =    -653.51705899 Ry
     estimated scf accuracy    <     397.99728388 Ry
     electrostatic embedding   =       1.12647358 Ry
     correction to one-el term =      13.87377009 Ry

     iteration #  3     ecut=    35.00 Ry     beta=0.70
     Davidson diagonalization with overlap
     ethr =  2.10E-03,  avg # of iterations =  5.0

     negative rho (up, down):  3.368E-02 0.000E+00

     add environment contribution to local potential

     total cpu time spent up to now is       12.5 secs

     total energy              =    -622.77011630 Ry
     Harris-Foulkes estimate   =    -639.05293359 Ry
     estimated scf accuracy    <      16.34395457 Ry
     electrostatic embedding   =       0.93822260 Ry
     correction to one-el term =      14.25027204 Ry

     iteration #  4     ecut=    35.00 Ry     beta=0.70
     Davidson diagonalization with overlap
     ethr =  2.10E-03,  avg # of iterations =  1.0

     negative rho (up, down):  8.479E-02 0.000E+00

     add environment contribution to local potential

     total cpu time spent up to now is       14.4 secs

     total energy              =    -622.83969779 Ry
     Harris-Foulkes estimate   =    -638.80714394 Ry
     estimated scf accuracy    <      21.87898397 Ry
     electrostatic embedding   =       0.83188030 Ry
     correction to one-el term =      14.16836337 Ry

     iteration #  5     ecut=    35.00 Ry     beta=0.70
     Davidson diagonalization with overlap
     ethr =  2.10E-03,  avg # of iterations =  1.0

     negative rho (up, down):  1.348E-01 0.000E+00

     add environment contribution to local potential

     total cpu time spent up to now is       16.4 secs

     total energy              =    -622.96874165 Ry
     Harris-Foulkes estimate   =    -638.50793621 Ry
     estimated scf accuracy    <       4.69465852 Ry
     electrostatic embedding   =       0.77650665 Ry
     correction to one-el term =      14.22373702 Ry

     iteration #  6     ecut=    35.00 Ry     beta=0.70
     Davidson diagonalization with overlap
     ethr =  2.10E-03,  avg # of iterations =  1.0

     negative rho (up, down):  1.429E-01 0.000E+00

     add environment contribution to local potential

     total cpu time spent up to now is       18.4 secs

     total energy              =    -623.08146235 Ry
     Harris-Foulkes estimate   =    -638.39634563 Ry
     estimated scf accuracy    <       2.71257818 Ry
     electrostatic embedding   =       0.78416042 Ry
     correction to one-el term =      14.21608325 Ry

     iteration #  7     ecut=    35.00 Ry     beta=0.70
     Davidson diagonalization with overlap
     ethr =  2.10E-03,  avg # of iterations =  1.0

     negative rho (up, down):  1.518E-01 0.000E+00

     add environment contribution to local potential

     total cpu time spent up to now is       20.3 secs

     total energy              =    -623.13099691 Ry
     Harris-Foulkes estimate   =    -638.22811211 Ry
     estimated scf accuracy    <       1.20194976 Ry
     electrostatic embedding   =       0.76516091 Ry
     correction to one-el term =      14.23508276 Ry

     iteration #  8     ecut=    35.00 Ry     beta=0.70
     Davidson diagonalization with overlap
     ethr =  1.35E-03,  avg # of iterations =  1.0

     negative rho (up, down):  1.194E-01 0.000E+00

     add environment contribution to local potential

     total cpu time spent up to now is       22.3 secs

     total energy              =    -623.14906127 Ry
     Harris-Foulkes estimate   =    -638.23234075 Ry
     estimated scf accuracy    <       0.93404212 Ry
     electrostatic embedding   =       0.74505204 Ry
     correction to one-el term =      14.25519163 Ry

     iteration #  9     ecut=    35.00 Ry     beta=0.70
     Davidson diagonalization with overlap
     ethr =  1.05E-03,  avg # of iterations =  1.0

     negative rho (up, down):  8.576E-02 0.000E+00

     add environment contribution to local potential

     total cpu time spent up to now is       24.2 secs

     total energy              =    -623.16118155 Ry
     Harris-Foulkes estimate   =    -638.18185204 Ry
     estimated scf accuracy    <       0.16050966 Ry
     electrostatic embedding   =       0.73693104 Ry
     correction to one-el term =      14.26331263 Ry

     iteration # 10     ecut=    35.00 Ry     beta=0.70
     Davidson diagonalization with overlap
     ethr =  1.80E-04,  avg # of iterations =  3.0

     negative rho (up, down):  7.023E-02 0.000E+00

     add environment contribution to local potential

     total cpu time spent up to now is       26.3 secs

     total energy              =    -623.15537458 Ry
     Harris-Foulkes estimate   =    -638.16764229 Ry
     estimated scf accuracy    <       0.11567286 Ry
     electrostatic embedding   =       0.72959402 Ry
     correction to one-el term =      14.27064965 Ry

     iteration # 11     ecut=    35.00 Ry     beta=0.70
     Davidson diagonalization with overlap
     ethr =  1.30E-04,  avg # of iterations =  1.0

     negative rho (up, down):  8.515E-03 0.000E+00

     add environment contribution to local potential

     total cpu time spent up to now is       28.2 secs

     total energy              =    -623.13635696 Ry
     Harris-Foulkes estimate   =    -638.15903366 Ry
     estimated scf accuracy    <       0.07924666 Ry
     electrostatic embedding   =       0.72148466 Ry
     correction to one-el term =      14.27875901 Ry

     iteration # 12     ecut=    35.00 Ry     beta=0.70
     Davidson diagonalization with overlap
     ethr =  8.90E-05,  avg # of iterations =  8.0

     negative rho (up, down):  5.651E-03 0.000E+00

     add environment contribution to local potential

     total cpu time spent up to now is       30.4 secs

     total energy              =    -623.13652560 Ry
     Harris-Foulkes estimate   =    -638.14299687 Ry
     estimated scf accuracy    <       0.05258853 Ry
     electrostatic embedding   =       0.69492025 Ry
     correction to one-el term =      14.30532342 Ry

     iteration # 13     ecut=    35.00 Ry     beta=0.70
     Davidson diagonalization with overlap
     ethr =  5.91E-05,  avg # of iterations =  1.0

     negative rho (up, down):  4.208E-03 0.000E+00

     add environment contribution to local potential

     total cpu time spent up to now is       32.4 secs

     total energy              =    -623.12447101 Ry
     Harris-Foulkes estimate   =    -638.14357378 Ry
     estimated scf accuracy    <       0.06352283 Ry
     electrostatic embedding   =       0.69094808 Ry
     correction to one-el term =      14.30929559 Ry

     iteration # 14     ecut=    35.00 Ry     beta=0.70
     Davidson diagonalization with overlap
     ethr =  5.91E-05,  avg # of iterations =  2.0

     negative rho (up, down):  3.972E-03 0.000E+00

     add environment contribution to local potential

     total cpu time spent up to now is       34.4 secs

     total energy              =    -623.13247203 Ry
     Harris-Foulkes estimate   =    -638.14091841 Ry
     estimated scf accuracy    <       0.03288556 Ry
     electrostatic embedding   =       0.66345163 Ry
     correction to one-el term =      14.33679204 Ry

     iteration # 15     ecut=    35.00 Ry     beta=0.70
     Davidson diagonalization with overlap
     ethr =  3.70E-05,  avg # of iterations =  2.0

     negative rho (up, down):  3.745E-03 0.000E+00

     total cpu time spent up to now is       36.3 secs

     End of self-consistent calculation

          k = 0.0000 0.0000 0.0000 (  7286 PWs)   bands (ev):

   -28.3920 -16.0231 -14.9604 -13.7027 -12.9899 -12.8765 -12.2142 -12.0445
   -11.8460 -11.5210 -11.4889 -11.4498 -11.3812 -11.2055 -11.1572 -10.9915
   -10.4406 -10.3927 -10.2639 -10.2152 -10.1523 -10.1315 -10.1068 -10.0619
    -9.9791  -9.8685  -9.7968  -9.7160  -9.4843  -9.3751  -9.2883  -8.4608
    -8.3812  -8.1970  -7.9421  -7.9103  -7.8603  -7.7017  -7.5371  -7.3989
    -7.2240  -7.2183  -7.0196  -6.9849  -6.9371  -6.7687  -6.7144  -5.4799
    -5.1555  -5.1445  -4.4712  -3.8632  -3.4263  -2.3675  -1.6170  -1.5261
    -1.1212  -0.5194   0.4010   0.6998   0.8158   1.3632   1.7270   2.0069
     2.0359   2.4325   3.5956   4.3942   4.4458   4.8362   4.8803   4.9765
     5.4242   5.4894   5.5937   6.2998   6.5264   6.7392   7.0410   7.0879

     the Fermi energy is    -6.8594 ev

!    total energy              =    -623.13482406 Ry
     Harris-Foulkes estimate   =    -638.13672906 Ry
     estimated scf accuracy    <       0.00185784 Ry

     The total energy is the sum of the following terms:

     one-electron contribution =   -3956.48711993 Ry
     hartree contribution      =    2007.71036300 Ry
     xc contribution           =    -262.55818759 Ry
     ewald contribution        =    1573.20467954 Ry
     smearing contrib. (-TS)   =      -0.00480275 Ry
     electrostatic embedding   =       0.67210910 Ry
     correction to one-el term =      14.32813457 Ry

     convergence has been achieved in  15 iterations

     negative rho (up, down):  3.745E-03 0.000E+00

     Forces acting on atoms (cartesian axes, Ry/au):

     atom    1 type  1   force =     0.00036787   -0.00418772    0.15315800
     atom    2 type  2   force =    -0.00029348    0.00137299   -0.06404350
     atom    3 type  3   force =    -0.00180165    0.01227620    0.03813503
     atom    4 type  3   force =     0.00302049    0.01421682    0.03289783
     atom    5 type  3   force =     0.00236150    0.01172932    0.00804369
     atom    6 type  3   force =    -0.00326427    0.00805944   -0.00454311
     atom    7 type  3   force =     0.00434258   -0.01336541   -0.04596717
     atom    8 type  3   force =    -0.00566415   -0.01647862   -0.03186655
     atom    9 type  3   force =     0.01664875   -0.00758548   -0.04295204
     atom   10 type  3   force =    -0.01571763   -0.00603754   -0.04286219

     Total force =     0.196759     Total SCF correction =     0.097486
     SCF correction compared to forces is large: reduce conv_thr to get better values

     Writing output data file pwscf.save
 
     init_run     :      4.88s CPU      4.95s WALL (       1 calls)
     electrons    :     28.99s CPU     31.05s WALL (       1 calls)
     forces       :      2.79s CPU      2.85s WALL (       1 calls)

     Called by init_run:
     wfcinit      :      0.20s CPU      0.21s WALL (       1 calls)
     potinit      :      1.33s CPU      1.34s WALL (       1 calls)

     Called by electrons:
     c_bands      :      8.66s CPU      8.81s WALL (      15 calls)
     sum_band     :      9.40s CPU     10.27s WALL (      15 calls)
     v_of_rho     :      4.09s CPU      4.23s WALL (      16 calls)
     newd         :      5.96s CPU      6.87s WALL (      16 calls)
     mix_rho      :      0.38s CPU      0.39s WALL (      15 calls)

     Called by c_bands:
     init_us_2    :      0.14s CPU      0.14s WALL (      31 calls)
     regterg      :      7.69s CPU      7.85s WALL (      15 calls)

     Called by sum_band:
     sum_band:bec :      0.00s CPU      0.00s WALL (      15 calls)
     addusdens    :      7.59s CPU      8.43s WALL (      15 calls)

     Called by *egterg:
     h_psi        :      5.54s CPU      5.58s WALL (      56 calls)
     s_psi        :      0.37s CPU      0.38s WALL (      56 calls)
     g_psi        :      0.06s CPU      0.07s WALL (      40 calls)
     rdiaghg      :      0.40s CPU      0.40s WALL (      55 calls)

     Called by h_psi:
     h_psi:pot    :      5.49s CPU      5.51s WALL (      56 calls)
     h_psi:calbec :      0.37s CPU      0.37s WALL (      56 calls)
     vloc_psi     :      4.77s CPU      4.77s WALL (      56 calls)
     add_vuspsi   :      0.35s CPU      0.37s WALL (      56 calls)

     General routines
     calbec       :      0.54s CPU      0.54s WALL (      75 calls)
     fft          :      2.10s CPU      2.26s WALL (     316 calls)
     ffts         :      0.04s CPU      0.06s WALL (      31 calls)
     fftw         :      4.40s CPU      4.41s WALL (    3504 calls)
     interpolate  :      0.35s CPU      0.38s WALL (      31 calls)
     davcio       :      0.00s CPU      0.00s WALL (       1 calls)
 
     Parallel routines
     fft_scatter  :      0.96s CPU      1.00s WALL (    3851 calls)
 
     Environ routines
     calc_eelect  :      0.01s CPU      0.02s WALL (      30 calls)
     calc_velect  :      0.55s CPU      0.56s WALL (      26 calls)
     calc_felect  :      0.04s CPU      0.04s WALL (       1 calls)
 
     PWSCF        :    37.02s CPU        39.22s WALL

 
   This run was terminated on:  22:13: 2  31Jan2018            

=------------------------------------------------------------------------------=
   JOB DONE.
=------------------------------------------------------------------------------=

%%%% IONS %%%%%%%%%%%%%%%%%%%%%%%%%%%%%%%%%%%%%%%%%%%%%%%%%%%%%%%%%%%%%%%%%%%%%%
 number of ions             =         10
 ionic center of charge     =      0.3882415     0.3750182     0.2893651
 total ionic charge         =    -90.0000000
 ionic dipole               =      0.0000000     0.0000000     0.0000000
 ionic quadrupole (pc)      =   -730.5101255  -614.6110457  -876.7220256
 ionic quadrupole (gauss)   =   -741.7601255  -625.8610457  -887.9720256
 ion   1 type =  1 coordinates =      5.3350841     4.6467234     8.2964034
 ion   2 type =  2 coordinates =      5.3350096     4.6196233    10.4752278
 ion   3 type =  3 coordinates =      8.0613271     0.0980580     4.3875164
 ion   4 type =  3 coordinates =      2.6089894     0.0980583     4.3875141
 ion   5 type =  3 coordinates =      0.0000366     4.7208463     4.3641304
 ion   6 type =  3 coordinates =      5.3351596     4.7216127     4.7755699
 ion   7 type =  3 coordinates =      0.0000411     7.8029520     0.0000000
 ion   8 type =  3 coordinates =      5.3351612     7.6977491     0.1488629
 ion   9 type =  3 coordinates =      2.6978606     3.1521739     0.0837858
 ion  10 type =  3 coordinates =      7.9724637     3.1521745     0.0837887

%%%% SYSTEM %%%%%%%%%%%%%%%%%%%%%%%%%%%%%%%%%%%%%%%%%%%%%%%%%%%%%%%%%%%%%%%%%%%%
 system is built from all present ionic types
 system defined dimension   =  0 
 system defined axis        =  3 
 system center              =      0.3882415     0.3750182     0.2893651 
 system width               =      0.7019013 

%%%% ELECTRONS %%%%%%%%%%%%%%%%%%%%%%%%%%%%%%%%%%%%%%%%%%%%%%%%%%%%%%%%%%%%%%%%%
 number of electrons        =         89
 total electronic charge    =     89.0000000
 number of spin components  =  1

%%%% ELECTRONS %%%%%%%%%%%%%%%%%%%%%%%%%%%%%%%%%%%%%%%%%%%%%%%%%%%%%%%%%%%%%%%%%
 number of electrons        =         88
 total electronic charge    =     89.0000000
 number of spin components  =  1

%%%% ELECTRONS %%%%%%%%%%%%%%%%%%%%%%%%%%%%%%%%%%%%%%%%%%%%%%%%%%%%%%%%%%%%%%%%%
 number of electrons        =         88
 total electronic charge    =     89.0000000
 number of spin components  =  1

%%%% ELECTRONS %%%%%%%%%%%%%%%%%%%%%%%%%%%%%%%%%%%%%%%%%%%%%%%%%%%%%%%%%%%%%%%%%
 number of electrons        =         89
 total electronic charge    =     89.0000000
 number of spin components  =  1

%%%% ELECTRONS %%%%%%%%%%%%%%%%%%%%%%%%%%%%%%%%%%%%%%%%%%%%%%%%%%%%%%%%%%%%%%%%%
 number of electrons        =         89
 total electronic charge    =     89.0000000
 number of spin components  =  1

%%%% ELECTRONS %%%%%%%%%%%%%%%%%%%%%%%%%%%%%%%%%%%%%%%%%%%%%%%%%%%%%%%%%%%%%%%%%
 number of electrons        =         88
 total electronic charge    =     89.0000000
 number of spin components  =  1

%%%% ELECTRONS %%%%%%%%%%%%%%%%%%%%%%%%%%%%%%%%%%%%%%%%%%%%%%%%%%%%%%%%%%%%%%%%%
 number of electrons        =         88
 total electronic charge    =     89.0000000
 number of spin components  =  1

%%%% ELECTRONS %%%%%%%%%%%%%%%%%%%%%%%%%%%%%%%%%%%%%%%%%%%%%%%%%%%%%%%%%%%%%%%%%
 number of electrons        =         88
 total electronic charge    =     89.0000000
 number of spin components  =  1

%%%% ELECTRONS %%%%%%%%%%%%%%%%%%%%%%%%%%%%%%%%%%%%%%%%%%%%%%%%%%%%%%%%%%%%%%%%%
 number of electrons        =         88
 total electronic charge    =     89.0000000
 number of spin components  =  1

%%%% ELECTRONS %%%%%%%%%%%%%%%%%%%%%%%%%%%%%%%%%%%%%%%%%%%%%%%%%%%%%%%%%%%%%%%%%
 number of electrons        =         88
 total electronic charge    =     89.0000000
 number of spin components  =  1

%%%% ELECTRONS %%%%%%%%%%%%%%%%%%%%%%%%%%%%%%%%%%%%%%%%%%%%%%%%%%%%%%%%%%%%%%%%%
 number of electrons        =         88
 total electronic charge    =     89.0000000
 number of spin components  =  1

%%%% ELECTRONS %%%%%%%%%%%%%%%%%%%%%%%%%%%%%%%%%%%%%%%%%%%%%%%%%%%%%%%%%%%%%%%%%
 number of electrons        =         89
 total electronic charge    =     89.0000000
 number of spin components  =  1

%%%% ELECTRONS %%%%%%%%%%%%%%%%%%%%%%%%%%%%%%%%%%%%%%%%%%%%%%%%%%%%%%%%%%%%%%%%%
 number of electrons        =         89
 total electronic charge    =     89.0000000
 number of spin components  =  1

%%%% ELECTRONS %%%%%%%%%%%%%%%%%%%%%%%%%%%%%%%%%%%%%%%%%%%%%%%%%%%%%%%%%%%%%%%%%
 number of electrons        =         89
 total electronic charge    =     89.0000000
 number of spin components  =  1

%%%% ELECTRONS %%%%%%%%%%%%%%%%%%%%%%%%%%%%%%%%%%%%%%%%%%%%%%%%%%%%%%%%%%%%%%%%%
 number of electrons        =         89
 total electronic charge    =     89.0000000
 number of spin components  =  1

%%%% ELECTRONS %%%%%%%%%%%%%%%%%%%%%%%%%%%%%%%%%%%%%%%%%%%%%%%%%%%%%%%%%%%%%%%%%
 number of electrons        =         89
 total electronic charge    =     89.0000000
 number of spin components  =  1
