
     Program PWSCF v.6.4.1 starts on 24Apr2019 at 11: 2:15 

     This program is part of the open-source Quantum ESPRESSO suite
     for quantum simulation of materials; please cite
         "P. Giannozzi et al., J. Phys.:Condens. Matter 21 395502 (2009);
         "P. Giannozzi et al., J. Phys.:Condens. Matter 29 465901 (2017);
          URL http://www.quantum-espresso.org", 
     in publications or presentations arising from this work. More details at
     http://www.quantum-espresso.org/quote

     Parallel version (MPI), running on     1 processors

     MPI processes distributed on     1 nodes
     Reading input from isolated.in

     Current dimensions of program PWSCF are:
     Max number of different atomic species (ntypx) = 10
     Max number of k-points (npk) =  40000
     Max angular momentum in pseudopotentials (lmaxx) =  3
               file C.pbe-rrkjus.UPF: wavefunction(s)  2S 2P renormalized
               file H.pbe-rrkjus.UPF: wavefunction(s)  1S renormalized
               file N.pbe-rrkjus.UPF: wavefunction(s)  2S renormalized
               file O.pbe-rrkjus.UPF: wavefunction(s)  2S renormalized

     gamma-point specific algorithms are used

     Subspace diagonalization in iterative solution of the eigenvalue problem:
     a serial algorithm will be used

 
     G-vector sticks info
     --------------------
     sticks:   dense  smooth     PW     G-vecs:    dense   smooth      PW
     Sum        9549    3809    949               701475   177509   22119
 


     bravais-lattice index     =            1
     lattice parameter (alat)  =      20.0000  a.u.
     unit-cell volume          =    8000.0000 (a.u.)^3
     number of atoms/cell      =           10
     number of atomic types    =            4
     number of electrons       =        24.00
     number of Kohn-Sham states=           12
     kinetic-energy cutoff     =      30.0000  Ry
     charge density cutoff     =     300.0000  Ry
     convergence threshold     =      5.0E-03
     mixing beta               =       0.7000
     number of iterations used =            8  plain     mixing
     Exchange-correlation      = SLA PW PBE PBE ( 1  4  3  4 0 0)
 

     Environ Module
     ==============

     Plese cite
         O. Andreussi, I. Dabo and N. Marzari, J. Chem. Phys. 136, 064102 (2012)         
     in publications or presentations arising from this work.

     compensation onset threshold      =               0.1000E+03 
     static permittivity               =                   100.00 
     epsilon calculation mode          =                     full 

     Electrostatic Setup
     -------------------
     electrostatic problem to solve    = generalized              
     numerical solver adopted          = cg                       
     type of auxiliary density adopted = none                     
     type of core tool for poisson     = fft                      
     type of core tool for s(r) deriv  = analytic                 



     celldm(1)=  20.000000  celldm(2)=   0.000000  celldm(3)=   0.000000
     celldm(4)=   0.000000  celldm(5)=   0.000000  celldm(6)=   0.000000

     crystal axes: (cart. coord. in units of alat)
               a(1) = (   1.000000   0.000000   0.000000 )  
               a(2) = (   0.000000   1.000000   0.000000 )  
               a(3) = (   0.000000   0.000000   1.000000 )  

     reciprocal axes: (cart. coord. in units 2 pi/alat)
               b(1) = (  1.000000  0.000000  0.000000 )  
               b(2) = (  0.000000  1.000000  0.000000 )  
               b(3) = (  0.000000  0.000000  1.000000 )  


     PseudoPot. # 1 for C  read from file:
     /home/fnattino/Programs/quantumespresso/q-e-qe-6.4.1-develop/Environ/tests/../..//pseudo/C.pbe-rrkjus.UPF
     MD5 check sum: c9ac5a99bc85b198593446162950cd17
     Pseudo is Ultrasoft, Zval =  4.0
     Generated by new atomic code, or converted to UPF format
     Using radial grid of  627 points,  4 beta functions with: 
                l(1) =   0
                l(2) =   0
                l(3) =   1
                l(4) =   1
     Q(r) pseudized with 0 coefficients 


     PseudoPot. # 2 for H  read from file:
     /home/fnattino/Programs/quantumespresso/q-e-qe-6.4.1-develop/Environ/tests/../..//pseudo/H.pbe-rrkjus.UPF
     MD5 check sum: 2d52a7f45632fd764c17cc6affed14c8
     Pseudo is Ultrasoft, Zval =  1.0
     Generated by new atomic code, or converted to UPF format
     Using radial grid of 1061 points,  2 beta functions with: 
                l(1) =   0
                l(2) =   0
     Q(r) pseudized with 0 coefficients 


     PseudoPot. # 3 for N  read from file:
     /home/fnattino/Programs/quantumespresso/q-e-qe-6.4.1-develop/Environ/tests/../..//pseudo/N.pbe-rrkjus.UPF
     MD5 check sum: 28c76d763763edb36c62a6ca2be9aebd
     Pseudo is Ultrasoft, Zval =  5.0
     Generated by new atomic code, or converted to UPF format
     Using radial grid of 1257 points,  4 beta functions with: 
                l(1) =   0
                l(2) =   0
                l(3) =   1
                l(4) =   1
     Q(r) pseudized with 0 coefficients 


     PseudoPot. # 4 for O  read from file:
     /home/fnattino/Programs/quantumespresso/q-e-qe-6.4.1-develop/Environ/tests/../..//pseudo/O.pbe-rrkjus.UPF
     MD5 check sum: fadcf19ee70a498d3030e2e79cf929a4
     Pseudo is Ultrasoft, Zval =  6.0
     Generated by new atomic code, or converted to UPF format
     Using radial grid of 1269 points,  4 beta functions with: 
                l(1) =   0
                l(2) =   0
                l(3) =   1
                l(4) =   1
     Q(r) pseudized with 0 coefficients 


     atomic species   valence    mass     pseudopotential
        C              4.00    12.00000     C ( 1.00)
        H              1.00     1.00000     H ( 1.00)
        N              5.00    14.00000     N ( 1.00)
        O              6.00    16.00000     O ( 1.00)

     No symmetry found



   Cartesian axes

     site n.     atom                  positions (alat units)
         1           C   tau(   1) = (   0.0000000   0.0000000   0.0000000  )
         2           C   tau(   2) = (   0.0000000   0.0000000   0.1455089  )
         3           N   tau(   3) = (   0.1170969   0.0000000  -0.0545024  )
         4           H   tau(   4) = (   0.0476617  -0.0825466   0.1792090  )
         5           H   tau(   5) = (  -0.0953183  -0.0000030   0.1792090  )
         6           H   tau(   6) = (   0.0476566   0.0825496   0.1792090  )
         7           O   tau(   7) = (  -0.0984002  -0.0000019  -0.0641310  )
         8           H   tau(   8) = (   0.1263131  -0.0000015  -0.1475548  )
         9           H   tau(   9) = (   0.1944645   0.0000134  -0.0025716  )
        10           H   tau(  10) = (  -0.0770366  -0.0000045  -0.1522861  )

     number of k points=     1
                       cart. coord. in units 2pi/alat
        k(    1) = (   0.0000000   0.0000000   0.0000000), wk =   2.0000000

     Dense  grid:   350738 G-vectors     FFT dimensions: ( 120, 120, 120)

     Smooth grid:    88755 G-vectors     FFT dimensions: (  72,  72,  72)

     Estimated max dynamical RAM per process >     691.80 MB

     Initial potential from superposition of free atoms

     starting charge   24.42266, renormalised to   24.00000

     negative rho (up, down):  4.438E-04 0.000E+00
     Starting wfcs are   22 randomized atomic wfcs

     total cpu time spent up to now is        6.0 secs

     Self-consistent Calculation

     iteration #  1     ecut=    30.00 Ry     beta= 0.70
     Davidson diagonalization with overlap
     ethr =  1.00E-02,  avg # of iterations =  2.0

     negative rho (up, down):  1.277E-04 0.000E+00

     add environment contribution to local potential
     polarization accuracy = 4.5E-06, # of iterations =  14

     total cpu time spent up to now is       10.2 secs

     total energy              =     -80.23414911 Ry
     Harris-Foulkes estimate   =     -83.01882218 Ry
     estimated scf accuracy    <       3.73443027 Ry
     electrostatic embedding   =       0.00490874 Ry
     correction to one-el term =       0.00000000 Ry

     iteration #  2     ecut=    30.00 Ry     beta= 0.70
     Davidson diagonalization with overlap
     ethr =  1.00E-02,  avg # of iterations =  4.0

     negative rho (up, down):  6.923E-04 0.000E+00

     add environment contribution to local potential
     polarization accuracy = 6.9E-06, # of iterations =  16

     total cpu time spent up to now is       14.8 secs

     total energy              =     -80.94319692 Ry
     Harris-Foulkes estimate   =     -76.59474973 Ry
     estimated scf accuracy    <       1.54267177 Ry
     electrostatic embedding   =      -0.16893896 Ry
     correction to one-el term =      -5.00567815 Ry

     iteration #  3     ecut=    30.00 Ry     beta= 0.70
     Davidson diagonalization with overlap
     ethr =  6.43E-03,  avg # of iterations =  3.0

     negative rho (up, down):  3.252E-04 0.000E+00

     add environment contribution to local potential
     polarization accuracy = 6.5E-06, # of iterations =  17

     total cpu time spent up to now is       19.4 secs

     total energy              =     -81.30223193 Ry
     Harris-Foulkes estimate   =     -77.01939321 Ry
     estimated scf accuracy    <       0.24366890 Ry
     electrostatic embedding   =      -0.13545829 Ry
     correction to one-el term =      -4.27719633 Ry

     iteration #  4     ecut=    30.00 Ry     beta= 0.70
     Davidson diagonalization with overlap
     ethr =  1.02E-03,  avg # of iterations =  4.0

     negative rho (up, down):  8.608E-05 0.000E+00

     add environment contribution to local potential
     polarization accuracy = 8.1E-06, # of iterations =  19

     total cpu time spent up to now is       24.0 secs

     total energy              =     -81.36192887 Ry
     Harris-Foulkes estimate   =     -77.22206245 Ry
     estimated scf accuracy    <       0.02087608 Ry
     electrostatic embedding   =      -0.11100330 Ry
     correction to one-el term =      -4.03947282 Ry

     iteration #  5     ecut=    30.00 Ry     beta= 0.70
     Davidson diagonalization with overlap
     ethr =  8.70E-05,  avg # of iterations =  4.0

     negative rho (up, down):  2.757E-04 0.000E+00

     the potential shift due to the Gaussian-smeared nuclei is    -0.0668 ev

     total cpu time spent up to now is       26.1 secs

     End of self-consistent calculation

          k = 0.0000 0.0000 0.0000 ( 11060 PWs)   bands (ev):

   -28.9438 -23.2058 -18.6906 -16.0199 -14.7250 -13.4509 -11.7127 -10.9709
    -9.6167  -9.6005  -9.3630  -7.4457

     highest occupied level (ev):    -7.4457

!    total energy              =     -81.36774842 Ry
     Harris-Foulkes estimate   =     -77.45629608 Ry
     estimated scf accuracy    <       0.00248646 Ry

     The total energy is the sum of the following terms:

     one-electron contribution =    -241.95275926 Ry
     hartree contribution      =     123.13536511 Ry
     xc contribution           =     -22.94488479 Ry
     ewald contribution        =      64.30784006 Ry
     electrostatic embedding   =      -0.10548428 Ry
     correction to one-el term =      -3.80782525 Ry

     convergence has been achieved in   5 iterations
 WARNING: Unphysical forces due to core electrons are non-negligible 
 atom type   4 is subject to a spurious force of     0.000127 
 WARNING: Unphysical forces due to core electrons are non-negligible 
 atom type   5 is subject to a spurious force of     0.000090 
 WARNING: Unphysical forces due to core electrons are non-negligible 
 atom type   6 is subject to a spurious force of     0.000160 
 WARNING: Unphysical forces due to core electrons are non-negligible 
 atom type   8 is subject to a spurious force of     0.003528 
 WARNING: Unphysical forces due to core electrons are non-negligible 
 atom type   9 is subject to a spurious force of     0.006008 
 WARNING: Unphysical forces due to core electrons are non-negligible 
 atom type  10 is subject to a spurious force of     0.024973 

     Forces acting on atoms (cartesian axes, Ry/au):

     atom    1 type  1   force =     0.21818390   -0.00030938    0.09987837
     atom    2 type  1   force =    -0.03356792   -0.00032573   -0.08103093
     atom    3 type  3   force =    -0.14038346   -0.00032230    0.04606944
     atom    4 type  2   force =     0.01721677   -0.02865735    0.00848614
     atom    5 type  2   force =    -0.03308893   -0.00032017    0.01183356
     atom    6 type  2   force =     0.01721991    0.02802838    0.00848730
     atom    7 type  4   force =    -0.08288021   -0.00035288   -0.00896864
     atom    8 type  2   force =     0.00496449   -0.00005909   -0.04903540
     atom    9 type  2   force =     0.03825024   -0.00007012    0.03936919
     atom   10 type  2   force =    -0.00591478    0.00238864   -0.07508903

     Total force =     0.329777     Total SCF correction =     0.120842
     SCF correction compared to forces is large: reduce conv_thr to get better values

     Writing output data file pwscf.save/
 
     init_run     :      4.98s CPU      5.41s WALL (       1 calls)
     electrons    :     16.43s CPU     20.08s WALL (       1 calls)
     forces       :      2.12s CPU      2.49s WALL (       1 calls)

     Called by init_run:
     wfcinit      :      0.14s CPU      0.14s WALL (       1 calls)
     potinit      :      1.44s CPU      1.54s WALL (       1 calls)
     hinit0       :      3.00s CPU      3.05s WALL (       1 calls)

     Called by electrons:
     c_bands      :      1.34s CPU      1.34s WALL (       5 calls)
     sum_band     :      2.01s CPU      2.90s WALL (       5 calls)
     v_of_rho     :      2.78s CPU      3.04s WALL (       6 calls)
     newd         :      1.56s CPU      2.68s WALL (       6 calls)
     mix_rho      :      0.24s CPU      0.23s WALL (       5 calls)

     Called by c_bands:
     init_us_2    :      0.05s CPU      0.05s WALL (      11 calls)
     regterg      :      1.27s CPU      1.26s WALL (       5 calls)

     Called by sum_band:
     sum_band:bec :      0.00s CPU      0.00s WALL (       5 calls)
     addusdens    :      1.61s CPU      2.49s WALL (       5 calls)

     Called by *egterg:
     h_psi        :      1.26s CPU      1.27s WALL (      23 calls)
     s_psi        :      0.02s CPU      0.02s WALL (      23 calls)
     g_psi        :      0.02s CPU      0.01s WALL (      17 calls)
     rdiaghg      :      0.01s CPU      0.01s WALL (      22 calls)

     Called by h_psi:
     h_psi:pot    :      1.26s CPU      1.27s WALL (      23 calls)
     h_psi:calbec :      0.02s CPU      0.03s WALL (      23 calls)
     vloc_psi     :      1.21s CPU      1.22s WALL (      23 calls)
     add_vuspsi   :      0.03s CPU      0.02s WALL (      23 calls)

     General routines
     calbec       :      0.02s CPU      0.04s WALL (      32 calls)
     fft          :      5.14s CPU      5.11s WALL (     285 calls)
     ffts         :      0.03s CPU      0.03s WALL (      11 calls)
     fftw         :      1.14s CPU      1.13s WALL (     244 calls)
     interpolate  :      0.17s CPU      0.17s WALL (       6 calls)
 
     Parallel routines
 
     Environ routines
     calc_eelect  :      0.01s CPU      0.02s WALL (      10 calls)
     calc_velect  :      5.54s CPU      6.77s WALL (       8 calls)
     dielectric   :      0.32s CPU      0.35s WALL (       8 calls)
     calc_felect  :      0.08s CPU      0.08s WALL (       1 calls)
 
     PWSCF        :     24.16s CPU     28.66s WALL

 
   This run was terminated on:  11: 2:44  24Apr2019            

=------------------------------------------------------------------------------=
   JOB DONE.
=------------------------------------------------------------------------------=

%%%% IONS %%%%%%%%%%%%%%%%%%%%%%%%%%%%%%%%%%%%%%%%%%%%%%%%%%%%%%%%%%%%%%%%%%%%%%
 number of ions             =         10
 ionic center of charge     =      0.0095530    -0.0000002     0.0063981
 total ionic charge         =    -25.0000000
 ionic dipole               =      0.0000000     0.0000000     0.0000000
 ionic quadrupole (pc)      =    -79.0828058    -5.4513517  -105.8059629
 ionic quadrupole (gauss)   =    -82.2078058    -8.5763517  -108.9309629
 ion   1 type =  1 coordinates =      0.0000000     0.0000000     0.0000000
 ion   2 type =  1 coordinates =      0.0000000     0.0000000     2.9101782
 ion   3 type =  3 coordinates =      2.3419379     0.0000000    -1.0900479
 ion   4 type =  2 coordinates =      0.9532347    -1.6509323     3.5841800
 ion   5 type =  2 coordinates =     -1.9063663    -0.0000596     3.5841809
 ion   6 type =  2 coordinates =      0.9531315     1.6509919     3.5841800
 ion   7 type =  4 coordinates =     -1.9680045    -0.0000375    -1.2826193
 ion   8 type =  2 coordinates =      2.5262613    -0.0000303    -2.9510950
 ion   9 type =  2 coordinates =      3.8892907     0.0002681    -0.0514326
 ion  10 type =  2 coordinates =     -1.5407317    -0.0000890    -3.0457220

%%%% SYSTEM %%%%%%%%%%%%%%%%%%%%%%%%%%%%%%%%%%%%%%%%%%%%%%%%%%%%%%%%%%%%%%%%%%%%
 system is built from all present ionic types
 system defined dimension   =  0 
 system defined axis        =  3 
 system center              =      0.0095530    -0.0000002     0.0063981 
 system width               =      0.2021425 

%%%% ELECTRONS %%%%%%%%%%%%%%%%%%%%%%%%%%%%%%%%%%%%%%%%%%%%%%%%%%%%%%%%%%%%%%%%%
 number of electrons        =         24
 total electronic charge    =     24.0000000

%%%% BOUNDARY %%%%%%%%%%%%%%%%%%%%%%%%%%%%%%%%%%%%%%%%%%%%%%%%%%%%%%%%%%%%%%%%%%
 boundary label             = solvent              
 boundary mode              = full                 
 boundary is built as a function of a smooth density
 function type              =  2 
 using the modified SCCS function with parameters 
 rhomax                     =      0.0050000 
 rhomin                     =      0.0001000 
 volume of the QM region    =   2771.6247532 
 surface of the QM region   =    905.6004067 

%%%% DIELECTRIC %%%%%%%%%%%%%%%%%%%%%%%%%%%%%%%%%%%%%%%%%%%%%%%%%%%%%%%%%%%%%%%%%
 dielectric build on homogeneous background
 environment bulk permitt.  =    100.0000000 
 dielectric flags
 need gradient              =  F 
 need factor depend. sqrt   =  T 
 total dielectric charge    =      0.0000000

%%%% DENSITY %%%%%%%%%%%%%%%%%%%%%%%%%%%%%%%%%%%%%%%%%%%%%%%%%%%%%%%%%%%%%%%%%%%
 density label              = vreference                                                                      
 integral of density        =      0.000000000    

%%%% DENSITY %%%%%%%%%%%%%%%%%%%%%%%%%%%%%%%%%%%%%%%%%%%%%%%%%%%%%%%%%%%%%%%%%%%
 density label              = velectrostatic                                                                  
 integral of density        =      0.000000000    

%%%% CHARGES %%%%%%%%%%%%%%%%%%%%%%%%%%%%%%%%%%%%%%%%%%%%%%%%%%%%%%%%%%%%%%%%%%%
 total number of charges    =         34
 total charge               =     -1.0000000

%%%% DENSITY %%%%%%%%%%%%%%%%%%%%%%%%%%%%%%%%%%%%%%%%%%%%%%%%%%%%%%%%%%%%%%%%%%%
 density label              = vsoftcavity                                                                     
 integral of density        =      0.000000000    

%%%% ELECTRONS %%%%%%%%%%%%%%%%%%%%%%%%%%%%%%%%%%%%%%%%%%%%%%%%%%%%%%%%%%%%%%%%%
 number of electrons        =         24
 total electronic charge    =     24.0000000

%%%% BOUNDARY %%%%%%%%%%%%%%%%%%%%%%%%%%%%%%%%%%%%%%%%%%%%%%%%%%%%%%%%%%%%%%%%%%
 boundary label             = solvent              
 boundary mode              = full                 
 boundary is built as a function of a smooth density
 function type              =  2 
 using the modified SCCS function with parameters 
 rhomax                     =      0.0050000 
 rhomin                     =      0.0001000 
 volume of the QM region    =    989.6663966 
 surface of the QM region   =    490.3840420 

%%%% DIELECTRIC %%%%%%%%%%%%%%%%%%%%%%%%%%%%%%%%%%%%%%%%%%%%%%%%%%%%%%%%%%%%%%%%%
 dielectric build on homogeneous background
 environment bulk permitt.  =    100.0000000 
 dielectric flags
 need gradient              =  F 
 need factor depend. sqrt   =  T 
 total dielectric charge    =      0.0000000

%%%% DENSITY %%%%%%%%%%%%%%%%%%%%%%%%%%%%%%%%%%%%%%%%%%%%%%%%%%%%%%%%%%%%%%%%%%%
 density label              = vreference                                                                      
 integral of density        =    -0.2329659099E-12

%%%% COMPUTE ELECTROSTATIC POTENTIAL %%%%%%%%%%%%%%%%%%%%%%%%%%%%%%%%%%%%%%%%%%%
 Iteration #          1
  pAp =    91.8848767618365       rzold =    89.1036163634378       alpha = 
  0.969731031956351     
 delta_qm =   0.139321E-01 delta_en =   0.335410E+03 tol =   0.100000E-04
 Iteration #          2
  pAp =    127.782295428535       rzold =    16.9664733909410       alpha = 
  0.132776401723272     
 delta_qm =   0.285950E-02 delta_en =   0.141294E+02 tol =   0.100000E-04
 Iteration #          3
  pAp =   0.809832666098925       rzold =   0.175208116396641       alpha = 
  0.216351011426401     
 delta_qm =   0.148915E-02 delta_en =   0.383198E+01 tol =   0.100000E-04
 Iteration #          4
  pAp =   0.107706571023679       rzold =   2.392163661445930E-002  alpha = 
  0.222100066756374     
 delta_qm =   0.108793E-02 delta_en =   0.204524E+01 tol =   0.100000E-04
 Iteration #          5
  pAp =   1.049020341647735E-002  rzold =   3.965808315795594E-003  alpha = 
  0.378048752569121     
 delta_qm =   0.567065E-03 delta_en =   0.555661E+00 tol =   0.100000E-04
 Iteration #          6
  pAp =   3.254157232893306E-003  rzold =   1.258788259097898E-003  alpha = 
  0.386824658124677     
 delta_qm =   0.271790E-03 delta_en =   0.127647E+00 tol =   0.100000E-04
 Iteration #          7
  pAp =   5.234699878346518E-004  rzold =   2.097931746220575E-004  alpha = 
  0.400774026205156     
 delta_qm =   0.159581E-03 delta_en =   0.440052E-01 tol =   0.100000E-04
 Iteration #          8
  pAp =   4.001943480384413E-004  rzold =   1.215411429559439E-004  alpha = 
  0.303705296068472     
 delta_qm =   0.940940E-04 delta_en =   0.152992E-01 tol =   0.100000E-04
 Iteration #          9
  pAp =   1.271115918286744E-004  rzold =   5.264092746661193E-005  alpha = 
  0.414131604437487     
 delta_qm =   0.406574E-04 delta_en =   0.285643E-02 tol =   0.100000E-04
 Iteration #         10
  pAp =   2.828766294907162E-005  rzold =   1.181770547365232E-005  alpha = 
  0.417768887268227     
 delta_qm =   0.207941E-04 delta_en =   0.747180E-03 tol =   0.100000E-04
 Iteration #         11
  pAp =   2.032124362549305E-006  rzold =   1.121284334801696E-006  alpha = 
  0.551779386865399     
 delta_qm =   0.112669E-04 delta_en =   0.219359E-03 tol =   0.100000E-04
 Iteration #         12
  pAp =   4.036722878805702E-007  rzold =   2.638280535171757E-007  alpha = 
  0.653569891810932     
 delta_qm =   0.507761E-05 delta_en =   0.445515E-04 tol =   0.100000E-04
 Iteration #         13
  pAp =   2.875375701249106E-007  rzold =   1.170108413183454E-007  alpha = 
  0.406941052146730     
 delta_qm =   0.268245E-05 delta_en =   0.124339E-04 tol =   0.100000E-04
 Iteration #         14
  pAp =   1.231819031865410E-007  rzold =   4.139978899773140E-008  alpha = 
  0.336086616027011     
 delta_qm =   0.161846E-05 delta_en =   0.452635E-05 tol =   0.100000E-04
 Charges are converged, EXIT

%%%% DENSITY %%%%%%%%%%%%%%%%%%%%%%%%%%%%%%%%%%%%%%%%%%%%%%%%%%%%%%%%%%%%%%%%%%%
 density label              = velectrostatic                                                                  
 integral of density        =     0.9201528428E-12

%%%% CHARGES %%%%%%%%%%%%%%%%%%%%%%%%%%%%%%%%%%%%%%%%%%%%%%%%%%%%%%%%%%%%%%%%%%%
 total number of charges    =         34
 total charge               =     -1.0000000

%%%% DENSITY %%%%%%%%%%%%%%%%%%%%%%%%%%%%%%%%%%%%%%%%%%%%%%%%%%%%%%%%%%%%%%%%%%%
 density label              = vsoftcavity                                                                     
 integral of density        =      68.71137977    

%%%% ELECTRONS %%%%%%%%%%%%%%%%%%%%%%%%%%%%%%%%%%%%%%%%%%%%%%%%%%%%%%%%%%%%%%%%%
 number of electrons        =         24
 total electronic charge    =     24.0000000

%%%% BOUNDARY %%%%%%%%%%%%%%%%%%%%%%%%%%%%%%%%%%%%%%%%%%%%%%%%%%%%%%%%%%%%%%%%%%
 boundary label             = solvent              
 boundary mode              = full                 
 boundary is built as a function of a smooth density
 function type              =  2 
 using the modified SCCS function with parameters 
 rhomax                     =      0.0050000 
 rhomin                     =      0.0001000 
 volume of the QM region    =    837.7877251 
 surface of the QM region   =    449.0553288 

%%%% DIELECTRIC %%%%%%%%%%%%%%%%%%%%%%%%%%%%%%%%%%%%%%%%%%%%%%%%%%%%%%%%%%%%%%%%%
 dielectric build on homogeneous background
 environment bulk permitt.  =    100.0000000 
 dielectric flags
 need gradient              =  F 
 need factor depend. sqrt   =  T 
 total dielectric charge    =     -0.0007396

%%%% DENSITY %%%%%%%%%%%%%%%%%%%%%%%%%%%%%%%%%%%%%%%%%%%%%%%%%%%%%%%%%%%%%%%%%%%
 density label              = vreference                                                                      
 integral of density        =    -0.2406634562E-12

%%%% COMPUTE ELECTROSTATIC POTENTIAL %%%%%%%%%%%%%%%%%%%%%%%%%%%%%%%%%%%%%%%%%%%
 Warning: bad guess with residual norm =   0.684133E+03, reset to no guess
 Iteration #          1
  pAp =    95.3170667966680       rzold =    92.7138085436810       alpha = 
  0.972688435130507     
 delta_qm =   0.194478E-01 delta_en =   0.653557E+03 tol =   0.100000E-04
 Iteration #          2
  pAp =    161.059738670960       rzold =    18.6950909036296       alpha = 
  0.116075507497396     
 delta_qm =   0.400929E-02 delta_en =   0.277765E+02 tol =   0.100000E-04
 Iteration #          3
  pAp =    1.05588450348541       rzold =   0.185440273419436       alpha = 
  0.175625527988439     
 delta_qm =   0.223551E-02 delta_en =   0.863569E+01 tol =   0.100000E-04
 Iteration #          4
  pAp =   0.116520287595927       rzold =   2.295633919037528E-002  alpha = 
  0.197015812988585     
 delta_qm =   0.169510E-02 delta_en =   0.496519E+01 tol =   0.100000E-04
 Iteration #          5
  pAp =   1.171743259948813E-002  rzold =   4.633022604479408E-003  alpha = 
  0.395395711914042     
 delta_qm =   0.917068E-03 delta_en =   0.145327E+01 tol =   0.100000E-04
 Iteration #          6
  pAp =   5.265561173335633E-003  rzold =   1.837228217095218E-003  alpha = 
  0.348914039095926     
 delta_qm =   0.505093E-03 delta_en =   0.440846E+00 tol =   0.100000E-04
 Iteration #          7
  pAp =   9.129522656191312E-004  rzold =   4.317974097225424E-004  alpha = 
  0.472968221870519     
 delta_qm =   0.298238E-03 delta_en =   0.153698E+00 tol =   0.100000E-04
 Iteration #          8
  pAp =   7.359054552108541E-004  rzold =   2.719141012675127E-004  alpha = 
  0.369495971720447     
 delta_qm =   0.164372E-03 delta_en =   0.466872E-01 tol =   0.100000E-04
 Iteration #          9
  pAp =   8.079084646137957E-004  rzold =   2.019232867242558E-004  alpha = 
  0.249933371871257     
 delta_qm =   0.814487E-04 delta_en =   0.114634E-01 tol =   0.100000E-04
 Iteration #         10
  pAp =   1.321400611587150E-004  rzold =   4.703847258982194E-005  alpha = 
  0.355974351588376     
 delta_qm =   0.410304E-04 delta_en =   0.290908E-02 tol =   0.100000E-04
 Iteration #         11
  pAp =   7.986149481593483E-006  rzold =   3.654033855442738E-006  alpha = 
  0.457546388765271     
 delta_qm =   0.240673E-04 delta_en =   0.100092E-02 tol =   0.100000E-04
 Iteration #         12
  pAp =   2.195099959708017E-006  rzold =   9.625922329663347E-007  alpha = 
  0.438518632697882     
 delta_qm =   0.160446E-04 delta_en =   0.444839E-03 tol =   0.100000E-04
 Iteration #         13
  pAp =   8.728813596580839E-007  rzold =   4.453281334529315E-007  alpha = 
  0.510181742943131     
 delta_qm =   0.922714E-05 delta_en =   0.147122E-03 tol =   0.100000E-04
 Iteration #         14
  pAp =   5.660077841372709E-007  rzold =   2.159759072427711E-007  alpha = 
  0.381577627191063     
 delta_qm =   0.616745E-05 delta_en =   0.657288E-04 tol =   0.100000E-04
 Iteration #         15
  pAp =   2.187864111661500E-007  rzold =   8.188112011824477E-008  alpha = 
  0.374251397432827     
 delta_qm =   0.373249E-05 delta_en =   0.240736E-04 tol =   0.100000E-04
 Iteration #         16
  pAp =   8.286550921237019E-008  rzold =   3.015378474683482E-008  alpha = 
  0.363888245344101     
 delta_qm =   0.199114E-05 delta_en =   0.685087E-05 tol =   0.100000E-04
 Charges are converged, EXIT

%%%% DENSITY %%%%%%%%%%%%%%%%%%%%%%%%%%%%%%%%%%%%%%%%%%%%%%%%%%%%%%%%%%%%%%%%%%%
 density label              = velectrostatic                                                                  
 integral of density        =     0.6900817366E-12

%%%% CHARGES %%%%%%%%%%%%%%%%%%%%%%%%%%%%%%%%%%%%%%%%%%%%%%%%%%%%%%%%%%%%%%%%%%%
 total number of charges    =         34
 total charge               =     -1.0000000

%%%% DENSITY %%%%%%%%%%%%%%%%%%%%%%%%%%%%%%%%%%%%%%%%%%%%%%%%%%%%%%%%%%%%%%%%%%%
 density label              = vsoftcavity                                                                     
 integral of density        =      48.06623759    

%%%% ELECTRONS %%%%%%%%%%%%%%%%%%%%%%%%%%%%%%%%%%%%%%%%%%%%%%%%%%%%%%%%%%%%%%%%%
 number of electrons        =         24
 total electronic charge    =     24.0000000

%%%% BOUNDARY %%%%%%%%%%%%%%%%%%%%%%%%%%%%%%%%%%%%%%%%%%%%%%%%%%%%%%%%%%%%%%%%%%
 boundary label             = solvent              
 boundary mode              = full                 
 boundary is built as a function of a smooth density
 function type              =  2 
 using the modified SCCS function with parameters 
 rhomax                     =      0.0050000 
 rhomin                     =      0.0001000 
 volume of the QM region    =    757.3764321 
 surface of the QM region   =    424.3028417 

%%%% DIELECTRIC %%%%%%%%%%%%%%%%%%%%%%%%%%%%%%%%%%%%%%%%%%%%%%%%%%%%%%%%%%%%%%%%%
 dielectric build on homogeneous background
 environment bulk permitt.  =    100.0000000 
 dielectric flags
 need gradient              =  F 
 need factor depend. sqrt   =  T 
 total dielectric charge    =      0.0000064

%%%% DENSITY %%%%%%%%%%%%%%%%%%%%%%%%%%%%%%%%%%%%%%%%%%%%%%%%%%%%%%%%%%%%%%%%%%%
 density label              = vreference                                                                      
 integral of density        =    -0.1269766185E-12

%%%% COMPUTE ELECTROSTATIC POTENTIAL %%%%%%%%%%%%%%%%%%%%%%%%%%%%%%%%%%%%%%%%%%%
 Warning: bad guess with residual norm =   0.846583E+03, reset to no guess
 Iteration #          1
  pAp =    95.8281533414847       rzold =    93.3773767474141       alpha = 
  0.974425296652256     
 delta_qm =   0.216423E-01 delta_en =   0.809380E+03 tol =   0.100000E-04
 Iteration #          2
  pAp =    201.856482248123       rzold =    20.4608263230178       alpha = 
  0.101363236370419     
 delta_qm =   0.418441E-02 delta_en =   0.302561E+02 tol =   0.100000E-04
 Iteration #          3
  pAp =    1.13951181446481       rzold =   0.208833350455961       alpha = 
  0.183265629899628     
 delta_qm =   0.208117E-02 delta_en =   0.748443E+01 tol =   0.100000E-04
 Iteration #          4
  pAp =   0.107388725595429       rzold =   1.955980711337713E-002  alpha = 
  0.182140229385585     
 delta_qm =   0.166551E-02 delta_en =   0.479334E+01 tol =   0.100000E-04
 Iteration #          5
  pAp =   1.872650247577556E-002  rzold =   5.492532073592963E-003  alpha = 
  0.293302611136172     
 delta_qm =   0.104407E-02 delta_en =   0.188366E+01 tol =   0.100000E-04
 Iteration #          6
  pAp =   7.057279988353028E-003  rzold =   2.375585092321348E-003  alpha = 
  0.336614828410080     
 delta_qm =   0.596796E-03 delta_en =   0.615453E+00 tol =   0.100000E-04
 Iteration #          7
  pAp =   1.629424108636184E-003  rzold =   6.940652044737304E-004  alpha = 
  0.425957367879292     
 delta_qm =   0.375307E-03 delta_en =   0.243399E+00 tol =   0.100000E-04
 Iteration #          8
  pAp =   8.105160768237971E-004  rzold =   3.763215708182743E-004  alpha = 
  0.464298712362352     
 delta_qm =   0.202951E-03 delta_en =   0.711745E-01 tol =   0.100000E-04
 Iteration #          9
  pAp =   1.265345195348673E-003  rzold =   3.075145381037111E-004  alpha = 
  0.243028178582504     
 delta_qm =   0.134328E-03 delta_en =   0.311802E-01 tol =   0.100000E-04
 Iteration #         10
  pAp =   5.844640387906202E-004  rzold =   1.567900945445443E-004  alpha = 
  0.268263030979590     
 delta_qm =   0.625949E-04 delta_en =   0.677052E-02 tol =   0.100000E-04
 Iteration #         11
  pAp =   4.553132209892736E-005  rzold =   1.589041572411314E-005  alpha = 
  0.348999655436921     
 delta_qm =   0.378102E-04 delta_en =   0.247037E-02 tol =   0.100000E-04
 Iteration #         12
  pAp =   1.456783017810722E-005  rzold =   4.146816090619935E-006  alpha = 
  0.284655713302578     
 delta_qm =   0.262930E-04 delta_en =   0.119460E-02 tol =   0.100000E-04
 Iteration #         13
  pAp =   2.212598285587432E-006  rzold =   1.024770598340426E-006  alpha = 
  0.463152577228159     
 delta_qm =   0.160216E-04 delta_en =   0.443565E-03 tol =   0.100000E-04
 Iteration #         14
  pAp =   1.249414473364501E-006  rzold =   5.362119132212353E-007  alpha = 
  0.429170563213735     
 delta_qm =   0.109478E-04 delta_en =   0.207109E-03 tol =   0.100000E-04
 Iteration #         15
  pAp =   4.408566512438060E-007  rzold =   2.088760841396559E-007  alpha = 
  0.473795923346842     
 delta_qm =   0.629640E-05 delta_en =   0.685060E-04 tol =   0.100000E-04
 Iteration #         16
  pAp =   1.854273264530990E-007  rzold =   8.441741764198289E-008  alpha = 
  0.455258775805814     
 delta_qm =   0.357809E-05 delta_en =   0.221232E-04 tol =   0.100000E-04
 Iteration #         17
  pAp =   5.384649245491443E-008  rzold =   2.507373124067575E-008  alpha = 
  0.465652080526321     
 delta_qm =   0.194285E-05 delta_en =   0.652260E-05 tol =   0.100000E-04
 Charges are converged, EXIT

%%%% DENSITY %%%%%%%%%%%%%%%%%%%%%%%%%%%%%%%%%%%%%%%%%%%%%%%%%%%%%%%%%%%%%%%%%%%
 density label              = velectrostatic                                                                  
 integral of density        =    -0.2044784095E-12

%%%% CHARGES %%%%%%%%%%%%%%%%%%%%%%%%%%%%%%%%%%%%%%%%%%%%%%%%%%%%%%%%%%%%%%%%%%%
 total number of charges    =         34
 total charge               =     -1.0000000

%%%% DENSITY %%%%%%%%%%%%%%%%%%%%%%%%%%%%%%%%%%%%%%%%%%%%%%%%%%%%%%%%%%%%%%%%%%%
 density label              = vsoftcavity                                                                     
 integral of density        =      36.89384030    

%%%% ELECTRONS %%%%%%%%%%%%%%%%%%%%%%%%%%%%%%%%%%%%%%%%%%%%%%%%%%%%%%%%%%%%%%%%%
 number of electrons        =         24
 total electronic charge    =     24.0000000

%%%% BOUNDARY %%%%%%%%%%%%%%%%%%%%%%%%%%%%%%%%%%%%%%%%%%%%%%%%%%%%%%%%%%%%%%%%%%
 boundary label             = solvent              
 boundary mode              = full                 
 boundary is built as a function of a smooth density
 function type              =  2 
 using the modified SCCS function with parameters 
 rhomax                     =      0.0050000 
 rhomin                     =      0.0001000 
 volume of the QM region    =    717.2126291 
 surface of the QM region   =    412.5078632 

%%%% DIELECTRIC %%%%%%%%%%%%%%%%%%%%%%%%%%%%%%%%%%%%%%%%%%%%%%%%%%%%%%%%%%%%%%%%%
 dielectric build on homogeneous background
 environment bulk permitt.  =    100.0000000 
 dielectric flags
 need gradient              =  F 
 need factor depend. sqrt   =  T 
 total dielectric charge    =     -0.0000718

%%%% DENSITY %%%%%%%%%%%%%%%%%%%%%%%%%%%%%%%%%%%%%%%%%%%%%%%%%%%%%%%%%%%%%%%%%%%
 density label              = vreference                                                                      
 integral of density        =    -0.9714698182E-12

%%%% COMPUTE ELECTROSTATIC POTENTIAL %%%%%%%%%%%%%%%%%%%%%%%%%%%%%%%%%%%%%%%%%%%
 Warning: bad guess with residual norm =   0.127847E+04, reset to no guess
 Iteration #          1
  pAp =    95.7434254555243       rzold =    93.2650795759923       alpha = 
  0.974114714741606     
 delta_qm =   0.265579E-01 delta_en =   0.121880E+04 tol =   0.100000E-04
 Iteration #          2
  pAp =    239.867995884918       rzold =    22.4732229431833       alpha = 
  9.368996001436268E-002
 delta_qm =   0.501673E-02 delta_en =   0.434896E+02 tol =   0.100000E-04
 Iteration #          3
  pAp =    1.63817839923286       rzold =   0.275141129663900       alpha = 
  0.167955535119218     
 delta_qm =   0.241216E-02 delta_en =   0.100544E+02 tol =   0.100000E-04
 Iteration #          4
  pAp =   0.139592448122440       rzold =   2.373429670831330E-002  alpha = 
  0.170025649865352     
 delta_qm =   0.195380E-02 delta_en =   0.659636E+01 tol =   0.100000E-04
 Iteration #          5
  pAp =   2.514480284699840E-002  rzold =   6.470363790775500E-003  alpha = 
  0.257324101133204     
 delta_qm =   0.129559E-02 delta_en =   0.290055E+01 tol =   0.100000E-04
 Iteration #          6
  pAp =   8.454131808954466E-003  rzold =   2.729347839848054E-003  alpha = 
  0.322841883888914     
 delta_qm =   0.778599E-03 delta_en =   0.104754E+01 tol =   0.100000E-04
 Iteration #          7
  pAp =   2.396197008561078E-003  rzold =   8.993587819708528E-004  alpha = 
  0.375327562282085     
 delta_qm =   0.523889E-03 delta_en =   0.474267E+00 tol =   0.100000E-04
 Iteration #          8
  pAp =   1.328584457649795E-003  rzold =   4.850041101472671E-004  alpha = 
  0.365053277083504     
 delta_qm =   0.328610E-03 delta_en =   0.186597E+00 tol =   0.100000E-04
 Iteration #          9
  pAp =   2.075761655696760E-003  rzold =   5.243740341477563E-004  alpha = 
  0.252617651313027     
 delta_qm =   0.225544E-03 delta_en =   0.879035E-01 tol =   0.100000E-04
 Iteration #         10
  pAp =   7.601393090470158E-004  rzold =   2.609290166289028E-004  alpha = 
  0.343264732560705     
 delta_qm =   0.103004E-03 delta_en =   0.183336E-01 tol =   0.100000E-04
 Iteration #         11
  pAp =   1.207212521752629E-004  rzold =   4.022862938711133E-005  alpha = 
  0.333235686859075     
 delta_qm =   0.657478E-04 delta_en =   0.746976E-02 tol =   0.100000E-04
 Iteration #         12
  pAp =   3.927401898808163E-005  rzold =   1.054114032148370E-005  alpha = 
  0.268399837681053     
 delta_qm =   0.475290E-04 delta_en =   0.390357E-02 tol =   0.100000E-04
 Iteration #         13
  pAp =   6.094875097811588E-006  rzold =   2.531653125736950E-006  alpha = 
  0.415374078239267     
 delta_qm =   0.309526E-04 delta_en =   0.165553E-02 tol =   0.100000E-04
 Iteration #         14
  pAp =   3.509253372112746E-006  rzold =   1.443626813795792E-006  alpha = 
  0.411377196433855     
 delta_qm =   0.214938E-04 delta_en =   0.798308E-03 tol =   0.100000E-04
 Iteration #         15
  pAp =   1.353358736148832E-006  rzold =   6.168246784262307E-007  alpha = 
  0.455773226972687     
 delta_qm =   0.121507E-04 delta_en =   0.255123E-03 tol =   0.100000E-04
 Iteration #         16
  pAp =   6.302225421674298E-007  rzold =   2.682306780421372E-007  alpha = 
  0.425612636957814     
 delta_qm =   0.744290E-05 delta_en =   0.957257E-04 tol =   0.100000E-04
 Iteration #         17
  pAp =   2.064500779259831E-007  rzold =   8.504990490104461E-008  alpha = 
  0.411963539832312     
 delta_qm =   0.438622E-05 delta_en =   0.332448E-04 tol =   0.100000E-04
 Iteration #         18
  pAp =   2.222882175007307E-007  rzold =   4.825464019878652E-008  alpha = 
  0.217081412327344     
 delta_qm =   0.314940E-05 delta_en =   0.171395E-04 tol =   0.100000E-04
 Iteration #         19
  pAp =   2.995599227652373E-008  rzold =   1.355183150066977E-008  alpha = 
  0.452391340456121     
 delta_qm =   0.217149E-05 delta_en =   0.814816E-05 tol =   0.100000E-04
 Charges are converged, EXIT

%%%% DENSITY %%%%%%%%%%%%%%%%%%%%%%%%%%%%%%%%%%%%%%%%%%%%%%%%%%%%%%%%%%%%%%%%%%%
 density label              = velectrostatic                                                                  
 integral of density        =     0.1931623585E-12

%%%% CHARGES %%%%%%%%%%%%%%%%%%%%%%%%%%%%%%%%%%%%%%%%%%%%%%%%%%%%%%%%%%%%%%%%%%%
 total number of charges    =         34
 total charge               =     -1.0000000

%%%% DENSITY %%%%%%%%%%%%%%%%%%%%%%%%%%%%%%%%%%%%%%%%%%%%%%%%%%%%%%%%%%%%%%%%%%%
 density label              = vsoftcavity                                                                     
 integral of density        =      33.03782971    

%%%% ELECTRONS %%%%%%%%%%%%%%%%%%%%%%%%%%%%%%%%%%%%%%%%%%%%%%%%%%%%%%%%%%%%%%%%%
 number of electrons        =         24
 total electronic charge    =     24.0000000

%%%% BOUNDARY %%%%%%%%%%%%%%%%%%%%%%%%%%%%%%%%%%%%%%%%%%%%%%%%%%%%%%%%%%%%%%%%%%
 boundary label             = solvent              
 boundary mode              = full                 
 boundary is built as a function of a smooth density
 function type              =  2 
 using the modified SCCS function with parameters 
 rhomax                     =      0.0050000 
 rhomin                     =      0.0001000 
 volume of the QM region    =    717.2126291 
 surface of the QM region   =    412.5078632 

%%%% DIELECTRIC %%%%%%%%%%%%%%%%%%%%%%%%%%%%%%%%%%%%%%%%%%%%%%%%%%%%%%%%%%%%%%%%%
 dielectric build on homogeneous background
 environment bulk permitt.  =    100.0000000 
 dielectric flags
 need gradient              =  F 
 need factor depend. sqrt   =  T 
 total dielectric charge    =     -0.0005165

%%%% DENSITY %%%%%%%%%%%%%%%%%%%%%%%%%%%%%%%%%%%%%%%%%%%%%%%%%%%%%%%%%%%%%%%%%%%
 density label              = vreference                                                                      
 integral of density        =    -0.9714698182E-12

%%%% DENSITY %%%%%%%%%%%%%%%%%%%%%%%%%%%%%%%%%%%%%%%%%%%%%%%%%%%%%%%%%%%%%%%%%%%
 density label              = velectrostatic                                                                  
 integral of density        =     0.1931623585E-12

%%%% CHARGES %%%%%%%%%%%%%%%%%%%%%%%%%%%%%%%%%%%%%%%%%%%%%%%%%%%%%%%%%%%%%%%%%%%
 total number of charges    =         34
 total charge               =     -1.0000000

%%%% DENSITY %%%%%%%%%%%%%%%%%%%%%%%%%%%%%%%%%%%%%%%%%%%%%%%%%%%%%%%%%%%%%%%%%%%
 density label              = vsoftcavity                                                                     
 integral of density        =      33.03782971    
