
     Program PWSCF v.6.1 (svn rev. 13369) starts on  1Feb2018 at 12:25:29 

     This program is part of the open-source Quantum ESPRESSO suite
     for quantum simulation of materials; please cite
         "P. Giannozzi et al., J. Phys.:Condens. Matter 21 395502 (2009);
          URL http://www.quantum-espresso.org", 
     in publications or presentations arising from this work. More details at
     http://www.quantum-espresso.org/quote

     Parallel version (MPI), running on     1 processors
     Reading input from isolated.in

     Current dimensions of program PWSCF are:
     Max number of different atomic species (ntypx) = 10
     Max number of k-points (npk) =  40000
     Max angular momentum in pseudopotentials (lmaxx) =  3
               file C.pbe-rrkjus.UPF: wavefunction(s)  2S 2P renormalized
               file H.pbe-rrkjus.UPF: wavefunction(s)  1S renormalized
               file N.pbe-rrkjus.UPF: wavefunction(s)  2S renormalized
               file O.pbe-rrkjus.UPF: wavefunction(s)  2S renormalized

     gamma-point specific algorithms are used

     Subspace diagonalization in iterative solution of the eigenvalue problem:
     a serial algorithm will be used

 
     G-vector sticks info
     --------------------
     sticks:   dense  smooth     PW     G-vecs:    dense   smooth      PW
     Sum        9549    3809    949               701475   177509   22119
 


     bravais-lattice index     =            1
     lattice parameter (alat)  =      20.0000  a.u.
     unit-cell volume          =    8000.0000 (a.u.)^3
     number of atoms/cell      =           10
     number of atomic types    =            4
     number of electrons       =        24.00
     number of Kohn-Sham states=           12
     kinetic-energy cutoff     =      30.0000  Ry
     charge density cutoff     =     300.0000  Ry
     convergence threshold     =      5.0E-03
     mixing beta               =       0.7000
     number of iterations used =            8  plain     mixing
     Exchange-correlation      =  SLA  PW   PBE  PBE ( 1  4  3  4 0 0)
 

     Environ Module
     ==============

     Plese cite
         O. Andreussi, I. Dabo and N. Marzari, J. Chem. Phys. 136, 064102 (2012)         
     in publications or presentations arising from this work.

     compensation onset threshold      =               0.1000E+03 
     static permittivity               =                   100.00 
     epsilon calculation mode          =                     full 

     Electrostatic Setup
     -------------------
     electrostatic problem to solve    = generalized              
     numerical solver adopted          = cg                       
     type of auxiliary density adopted = none                     
     type of core tool for poisson     = fft                      
     type of core tool for s(r) deriv  = analytic                 



     celldm(1)=  20.000000  celldm(2)=   0.000000  celldm(3)=   0.000000
     celldm(4)=   0.000000  celldm(5)=   0.000000  celldm(6)=   0.000000

     crystal axes: (cart. coord. in units of alat)
               a(1) = (   1.000000   0.000000   0.000000 )  
               a(2) = (   0.000000   1.000000   0.000000 )  
               a(3) = (   0.000000   0.000000   1.000000 )  

     reciprocal axes: (cart. coord. in units 2 pi/alat)
               b(1) = (  1.000000  0.000000  0.000000 )  
               b(2) = (  0.000000  1.000000  0.000000 )  
               b(3) = (  0.000000  0.000000  1.000000 )  


     PseudoPot. # 1 for C  read from file:
     /home/fnattino/Programs/qe-6.1/Environ/tests/../..//pseudo/C.pbe-rrkjus.UPF
     MD5 check sum: 00fb224312de0c5b6853bd333518df6f
     Pseudo is Ultrasoft, Zval =  4.0
     Generated by new atomic code, or converted to UPF format
     Using radial grid of  627 points,  4 beta functions with: 
                l(1) =   0
                l(2) =   0
                l(3) =   1
                l(4) =   1
     Q(r) pseudized with 0 coefficients 


     PseudoPot. # 2 for H  read from file:
     /home/fnattino/Programs/qe-6.1/Environ/tests/../..//pseudo/H.pbe-rrkjus.UPF
     MD5 check sum: 7cc9d459525c9a0585f487a71c3c9563
     Pseudo is Ultrasoft, Zval =  1.0
     Generated by new atomic code, or converted to UPF format
     Using radial grid of 1061 points,  2 beta functions with: 
                l(1) =   0
                l(2) =   0
     Q(r) pseudized with 0 coefficients 


     PseudoPot. # 3 for N  read from file:
     /home/fnattino/Programs/qe-6.1/Environ/tests/../..//pseudo/N.pbe-rrkjus.UPF
     MD5 check sum: 0c3fbe5807a93f9ba59d5a7019aa238b
     Pseudo is Ultrasoft, Zval =  5.0
     Generated by new atomic code, or converted to UPF format
     Using radial grid of 1257 points,  4 beta functions with: 
                l(1) =   0
                l(2) =   0
                l(3) =   1
                l(4) =   1
     Q(r) pseudized with 0 coefficients 


     PseudoPot. # 4 for O  read from file:
     /home/fnattino/Programs/qe-6.1/Environ/tests/../..//pseudo/O.pbe-rrkjus.UPF
     MD5 check sum: 390ba29e75625707450f3bd3f0eb6be9
     Pseudo is Ultrasoft, Zval =  6.0
     Generated by new atomic code, or converted to UPF format
     Using radial grid of 1269 points,  4 beta functions with: 
                l(1) =   0
                l(2) =   0
                l(3) =   1
                l(4) =   1
     Q(r) pseudized with 0 coefficients 


     atomic species   valence    mass     pseudopotential
        C              4.00    12.00000     C ( 1.00)
        H              1.00     1.00000     H ( 1.00)
        N              5.00    14.00000     N ( 1.00)
        O              6.00    16.00000     O ( 1.00)

     No symmetry found



   Cartesian axes

     site n.     atom                  positions (alat units)
         1           C   tau(   1) = (   0.0000000   0.0000000   0.0000000  )
         2           C   tau(   2) = (   0.0000000   0.0000000   0.1455089  )
         3           N   tau(   3) = (   0.1170969   0.0000000  -0.0545024  )
         4           H   tau(   4) = (   0.0476617  -0.0825466   0.1792090  )
         5           H   tau(   5) = (  -0.0953183  -0.0000030   0.1792090  )
         6           H   tau(   6) = (   0.0476566   0.0825496   0.1792090  )
         7           O   tau(   7) = (  -0.0984002  -0.0000019  -0.0641310  )
         8           H   tau(   8) = (   0.1263131  -0.0000015  -0.1475548  )
         9           H   tau(   9) = (   0.1944645   0.0000134  -0.0025716  )
        10           H   tau(  10) = (  -0.0770366  -0.0000045  -0.1522861  )

     number of k points=     1
                       cart. coord. in units 2pi/alat
        k(    1) = (   0.0000000   0.0000000   0.0000000), wk =   2.0000000

     Dense  grid:   350738 G-vectors     FFT dimensions: ( 120, 120, 120)

     Smooth grid:    88755 G-vectors     FFT dimensions: (  72,  72,  72)

     Estimated max dynamical RAM per process >     298.98MB

     Initial potential from superposition of free atoms
     Check: negative starting charge=   -0.000452

     starting charge   24.42266, renormalised to   24.00000

     negative rho (up, down):  4.438E-04 0.000E+00
     Starting wfc are   22 randomized atomic wfcs

     total cpu time spent up to now is        4.8 secs

     per-process dynamical memory:   634.7 Mb

     Self-consistent Calculation

     iteration #  1     ecut=    30.00 Ry     beta=0.70
     Davidson diagonalization with overlap
     ethr =  1.00E-02,  avg # of iterations =  2.0

     negative rho (up, down):  1.277E-04 0.000E+00

     add environment contribution to local potential
     polarization accuracy = 8.3E-06, # of iterations =  14

     total cpu time spent up to now is        8.6 secs

     total energy              =     -80.23412306 Ry
     Harris-Foulkes estimate   =     -83.01879009 Ry
     estimated scf accuracy    <       3.73442311 Ry
     electrostatic embedding   =       0.00490874 Ry
     correction to one-el term =       0.00000000 Ry

     iteration #  2     ecut=    30.00 Ry     beta=0.70
     Davidson diagonalization with overlap
     ethr =  1.00E-02,  avg # of iterations =  3.0

     negative rho (up, down):  5.315E-04 0.000E+00

     add environment contribution to local potential
     polarization accuracy = 9.7E-06, # of iterations =  17

     total cpu time spent up to now is       12.8 secs

     total energy              =     -81.20584352 Ry
     Harris-Foulkes estimate   =     -76.34188458 Ry
     estimated scf accuracy    <       1.06170728 Ry
     electrostatic embedding   =      -0.05500761 Ry
     correction to one-el term =      -5.38159214 Ry

     iteration #  3     ecut=    30.00 Ry     beta=0.70
     Davidson diagonalization with overlap
     ethr =  4.42E-03,  avg # of iterations =  3.0

     negative rho (up, down):  1.171E-04 0.000E+00

     add environment contribution to local potential
     polarization accuracy = 5.5E-06, # of iterations =  22

     total cpu time spent up to now is       17.3 secs

     total energy              =     -81.36101630 Ry
     Harris-Foulkes estimate   =     -76.84666571 Ry
     estimated scf accuracy    <       0.04362759 Ry
     electrostatic embedding   =      -0.09364146 Ry
     correction to one-el term =      -4.44604955 Ry

     iteration #  4     ecut=    30.00 Ry     beta=0.70
     Davidson diagonalization with overlap
     ethr =  1.82E-04,  avg # of iterations =  3.0

     negative rho (up, down):  1.998E-04 0.000E+00

     add environment contribution to local potential
     polarization accuracy = 8.2E-06, # of iterations =  22

     total cpu time spent up to now is       21.8 secs

     total energy              =     -81.34823478 Ry
     Harris-Foulkes estimate   =     -77.31713907 Ry
     estimated scf accuracy    <       0.01893811 Ry
     electrostatic embedding   =      -0.10097281 Ry
     correction to one-el term =      -3.93983232 Ry

     iteration #  5     ecut=    30.00 Ry     beta=0.70
     Davidson diagonalization with overlap
     ethr =  7.89E-05,  avg # of iterations =  3.0

     negative rho (up, down):  2.744E-04 0.000E+00

     total cpu time spent up to now is       23.7 secs

     End of self-consistent calculation

          k = 0.0000 0.0000 0.0000 ( 11060 PWs)   bands (ev):

   -28.7582 -23.0416 -18.6146 -15.8855 -14.5557 -13.3055 -11.5970 -10.8665
    -9.6077  -9.5799  -9.2343  -7.3343

     highest occupied level (ev):    -7.3343

!    total energy              =     -81.35236749 Ry
     Harris-Foulkes estimate   =     -77.34953634 Ry
     estimated scf accuracy    <       0.00127233 Ry

     The total energy is the sum of the following terms:

     one-electron contribution =    -241.86369905 Ry
     hartree contribution      =     123.16920644 Ry
     xc contribution           =     -22.96206898 Ry
     ewald contribution        =      64.30784006 Ry
     electrostatic embedding   =      -0.10126216 Ry
     correction to one-el term =      -3.90238380 Ry

     convergence has been achieved in   5 iterations
 WARNING: Unphysical forces due to core electrons are non-negligible 
 atom type   4 is subject to a spurious force of     0.000010 
 WARNING: Unphysical forces due to core electrons are non-negligible 
 atom type   6 is subject to a spurious force of     0.000010 
 WARNING: Unphysical forces due to core electrons are non-negligible 
 atom type   8 is subject to a spurious force of     0.000564 
 WARNING: Unphysical forces due to core electrons are non-negligible 
 atom type   9 is subject to a spurious force of     0.000359 
 WARNING: Unphysical forces due to core electrons are non-negligible 
 atom type  10 is subject to a spurious force of     0.014131 

     Forces acting on atoms (cartesian axes, Ry/au):

     atom    1 type  1   force =     0.21168715   -0.00011626    0.09743799
     atom    2 type  1   force =    -0.03231476    0.00000114   -0.07892325
     atom    3 type  3   force =    -0.13306301    0.00007754    0.04269520
     atom    4 type  2   force =     0.01466734   -0.02392751    0.00702123
     atom    5 type  2   force =    -0.02737595    0.00004105    0.01022169
     atom    6 type  2   force =     0.01460474    0.02395508    0.00696841
     atom    7 type  4   force =    -0.08362359   -0.00010069   -0.00002438
     atom    8 type  2   force =     0.00467273    0.00002561   -0.04603160
     atom    9 type  2   force =     0.03731437    0.00001862    0.03661282
     atom   10 type  2   force =    -0.00656900    0.00002541   -0.07597810

     Total force =     0.318302     Total SCF correction =     0.045896
     SCF correction compared to forces is large: reduce conv_thr to get better values

     Writing output data file pwscf.save
 
     init_run     :      4.48s CPU      4.65s WALL (       1 calls)
     electrons    :     17.54s CPU     18.98s WALL (       1 calls)
     forces       :      1.84s CPU      1.91s WALL (       1 calls)

     Called by init_run:
     wfcinit      :      0.10s CPU      0.10s WALL (       1 calls)
     potinit      :      1.54s CPU      1.62s WALL (       1 calls)

     Called by electrons:
     c_bands      :      0.83s CPU      0.84s WALL (       5 calls)
     sum_band     :      2.22s CPU      2.49s WALL (       5 calls)
     v_of_rho     :      3.10s CPU      3.23s WALL (       6 calls)
     newd         :      1.35s CPU      1.60s WALL (       6 calls)
     mix_rho      :      0.24s CPU      0.25s WALL (       5 calls)

     Called by c_bands:
     init_us_2    :      0.04s CPU      0.05s WALL (      11 calls)
     regterg      :      0.77s CPU      0.77s WALL (       5 calls)

     Called by sum_band:
     sum_band:bec :      0.00s CPU      0.00s WALL (       5 calls)
     addusdens    :      1.64s CPU      1.89s WALL (       5 calls)

     Called by *egterg:
     h_psi        :      0.76s CPU      0.76s WALL (      20 calls)
     s_psi        :      0.02s CPU      0.01s WALL (      20 calls)
     g_psi        :      0.00s CPU      0.01s WALL (      14 calls)
     rdiaghg      :      0.00s CPU      0.00s WALL (      19 calls)

     Called by h_psi:
     h_psi:pot    :      0.76s CPU      0.75s WALL (      20 calls)
     h_psi:calbec :      0.02s CPU      0.02s WALL (      20 calls)
     vloc_psi     :      0.72s CPU      0.71s WALL (      20 calls)
     add_vuspsi   :      0.02s CPU      0.02s WALL (      20 calls)

     General routines
     calbec       :      0.03s CPU      0.03s WALL (      29 calls)
     fft          :      6.89s CPU      7.39s WALL (     331 calls)
     ffts         :      0.04s CPU      0.04s WALL (      11 calls)
     fftw         :      0.57s CPU      0.54s WALL (     242 calls)
     interpolate  :      0.30s CPU      0.35s WALL (      11 calls)
     davcio       :      0.00s CPU      0.00s WALL (       1 calls)
 
     Parallel routines
     fft_scatter  :      1.80s CPU      2.04s WALL (     584 calls)
 
     Environ routines
     calc_eelect  :      0.02s CPU      0.01s WALL (      10 calls)
     calc_velect  :      6.66s CPU      7.33s WALL (       8 calls)
     dielectric   :      0.32s CPU      0.32s WALL (       8 calls)
     calc_felect  :      0.08s CPU      0.09s WALL (       1 calls)
 
     PWSCF        :    24.05s CPU        25.74s WALL

 
   This run was terminated on:  12:25:54   1Feb2018            

=------------------------------------------------------------------------------=
   JOB DONE.
=------------------------------------------------------------------------------=

%%%% IONS %%%%%%%%%%%%%%%%%%%%%%%%%%%%%%%%%%%%%%%%%%%%%%%%%%%%%%%%%%%%%%%%%%%%%%
 number of ions             =         10
 ionic center of charge     =      0.0095530    -0.0000002     0.0063981
 total ionic charge         =    -25.0000000
 ionic dipole               =      0.0000000     0.0000000     0.0000000
 ionic quadrupole (pc)      =    -79.0828058    -5.4513517  -105.8059629
 ionic quadrupole (gauss)   =    -82.2078058    -8.5763517  -108.9309629
 ion   1 type =  1 coordinates =      0.0000000     0.0000000     0.0000000
 ion   2 type =  1 coordinates =      0.0000000     0.0000000     2.9101782
 ion   3 type =  3 coordinates =      2.3419379     0.0000000    -1.0900479
 ion   4 type =  2 coordinates =      0.9532347    -1.6509323     3.5841800
 ion   5 type =  2 coordinates =     -1.9063663    -0.0000596     3.5841809
 ion   6 type =  2 coordinates =      0.9531315     1.6509919     3.5841800
 ion   7 type =  4 coordinates =     -1.9680045    -0.0000375    -1.2826193
 ion   8 type =  2 coordinates =      2.5262613    -0.0000303    -2.9510950
 ion   9 type =  2 coordinates =      3.8892907     0.0002681    -0.0514326
 ion  10 type =  2 coordinates =     -1.5407317    -0.0000890    -3.0457220

%%%% SYSTEM %%%%%%%%%%%%%%%%%%%%%%%%%%%%%%%%%%%%%%%%%%%%%%%%%%%%%%%%%%%%%%%%%%%%
 system is built from all present ionic types
 system defined dimension   =  0 
 system defined axis        =  3 
 system center              =      0.0095530    -0.0000002     0.0063981 
 system width               =      0.2021425 

%%%% ELECTRONS %%%%%%%%%%%%%%%%%%%%%%%%%%%%%%%%%%%%%%%%%%%%%%%%%%%%%%%%%%%%%%%%%
 number of electrons        =         24
 total electronic charge    =     24.0000000
 number of spin components  =  1

%%%% BOUNDARY %%%%%%%%%%%%%%%%%%%%%%%%%%%%%%%%%%%%%%%%%%%%%%%%%%%%%%%%%%%%%%%%%%
 boundary mode              = full                 
 boundary is built as a function of a smooth density
 function type              =  2 
 using the modified SCCS function with parameters 
 rhomax                     =      0.0050000 
 rhomin                     =      0.0001000 
 volume of the QM region    =   2771.6247532 
 surface of the QM region   =    905.6004067 

%%%% DIELECTRIC %%%%%%%%%%%%%%%%%%%%%%%%%%%%%%%%%%%%%%%%%%%%%%%%%%%%%%%%%%%%%%%%%
 dielectric build on homogeneous background
 environment bulk permitt.  =    100.0000000 
 dielectric flags
 need gradient              =  F 
 need factor depend. sqrt   =  T 
 total dielectric charge    =      0.0000000

%%%% ELECTRONS %%%%%%%%%%%%%%%%%%%%%%%%%%%%%%%%%%%%%%%%%%%%%%%%%%%%%%%%%%%%%%%%%
 number of electrons        =         24
 total electronic charge    =     24.0000000
 number of spin components  =  1

%%%% BOUNDARY %%%%%%%%%%%%%%%%%%%%%%%%%%%%%%%%%%%%%%%%%%%%%%%%%%%%%%%%%%%%%%%%%%
 boundary mode              = full                 
 boundary is built as a function of a smooth density
 function type              =  2 
 using the modified SCCS function with parameters 
 rhomax                     =      0.0050000 
 rhomin                     =      0.0001000 
 volume of the QM region    =    989.6664417 
 surface of the QM region   =    490.3840558 

%%%% DIELECTRIC %%%%%%%%%%%%%%%%%%%%%%%%%%%%%%%%%%%%%%%%%%%%%%%%%%%%%%%%%%%%%%%%%
 dielectric build on homogeneous background
 environment bulk permitt.  =    100.0000000 
 dielectric flags
 need gradient              =  F 
 need factor depend. sqrt   =  T 
 total dielectric charge    =      0.0000000

%%%% COMPUTE ELECTROSTATIC POTENTIAL %%%%%%%%%%%%%%%%%%%%%%%%%%%%%%%%%%%%%%%%%%%
 Iteration #          1
  pAp =    91.2614547921668       rzold =    89.3236381081251       alpha = 
  0.978766318283499     
 delta_qm =   0.113586E-01 delta_en =   0.222942E+03 tol =   0.100000E-04
 Iteration #          2
  pAp =    74.5805665434441       rzold =    10.2496341974765       alpha = 
  0.137430361185390     
 delta_qm =   0.471223E-02 delta_en =   0.383705E+02 tol =   0.100000E-04
 Iteration #          3
  pAp =   0.892074561022405       rzold =   0.260105798025941       alpha = 
  0.291574056015940     
 delta_qm =   0.221675E-02 delta_en =   0.849134E+01 tol =   0.100000E-04
 Iteration #          4
  pAp =   0.379771344599552       rzold =   7.925429775304632E-002  alpha = 
  0.208689515099186     
 delta_qm =   0.140998E-02 delta_en =   0.343536E+01 tol =   0.100000E-04
 Iteration #          5
  pAp =   2.804415247330708E-002  rzold =   9.846292507119743E-003  alpha = 
  0.351099663877937     
 delta_qm =   0.853250E-03 delta_en =   0.125804E+01 tol =   0.100000E-04
 Iteration #          6
  pAp =   6.798101531769935E-003  rzold =   2.302521424911480E-003  alpha = 
  0.338700652549978     
 delta_qm =   0.489136E-03 delta_en =   0.413430E+00 tol =   0.100000E-04
 Iteration #          7
  pAp =   1.165423700134111E-003  rzold =   4.850184151487872E-004  alpha = 
  0.416173461285345     
 delta_qm =   0.279123E-03 delta_en =   0.134628E+00 tol =   0.100000E-04
 Iteration #          8
  pAp =   1.077596236216778E-003  rzold =   2.931779258516525E-004  alpha = 
  0.272066583009737     
 delta_qm =   0.171834E-03 delta_en =   0.510223E-01 tol =   0.100000E-04
 Iteration #          9
  pAp =   1.672761343309815E-004  rzold =   8.947225039034756E-005  alpha = 
  0.534877558883044     
 delta_qm =   0.576181E-04 delta_en =   0.573669E-02 tol =   0.100000E-04
 Iteration #         10
  pAp =   4.833410346658958E-005  rzold =   2.076796883200150E-005  alpha = 
  0.429675267409421     
 delta_qm =   0.292080E-04 delta_en =   0.147417E-02 tol =   0.100000E-04
 Iteration #         11
  pAp =   9.661318310771931E-006  rzold =   4.190949460241708E-006  alpha = 
  0.433786500499522     
 delta_qm =   0.153945E-04 delta_en =   0.409520E-03 tol =   0.100000E-04
 Iteration #         12
  pAp =   9.570439142199780E-007  rzold =   5.350353275840197E-007  alpha = 
  0.559049924078030     
 delta_qm =   0.815480E-05 delta_en =   0.114913E-03 tol =   0.100000E-04
 Iteration #         13
  pAp =   4.679500832652652E-007  rzold =   2.013254728870535E-007  alpha = 
  0.430228522414705     
 delta_qm =   0.421771E-05 delta_en =   0.307395E-04 tol =   0.100000E-04
 Iteration #         14
  pAp =   1.953045955281948E-007  rzold =   8.020862627944543E-008  alpha = 
  0.410684787331931     
 delta_qm =   0.219764E-05 delta_en =   0.834562E-05 tol =   0.100000E-04
 Charges are converged, EXIT

%%%% ELECTRONS %%%%%%%%%%%%%%%%%%%%%%%%%%%%%%%%%%%%%%%%%%%%%%%%%%%%%%%%%%%%%%%%%
 number of electrons        =         23
 total electronic charge    =     24.0000000
 number of spin components  =  1

%%%% BOUNDARY %%%%%%%%%%%%%%%%%%%%%%%%%%%%%%%%%%%%%%%%%%%%%%%%%%%%%%%%%%%%%%%%%%
 boundary mode              = full                 
 boundary is built as a function of a smooth density
 function type              =  2 
 using the modified SCCS function with parameters 
 rhomax                     =      0.0050000 
 rhomin                     =      0.0001000 
 volume of the QM region    =    839.6496076 
 surface of the QM region   =    449.0125265 

%%%% DIELECTRIC %%%%%%%%%%%%%%%%%%%%%%%%%%%%%%%%%%%%%%%%%%%%%%%%%%%%%%%%%%%%%%%%%
 dielectric build on homogeneous background
 environment bulk permitt.  =    100.0000000 
 dielectric flags
 need gradient              =  F 
 need factor depend. sqrt   =  T 
 total dielectric charge    =     -0.0006637

%%%% COMPUTE ELECTROSTATIC POTENTIAL %%%%%%%%%%%%%%%%%%%%%%%%%%%%%%%%%%%%%%%%%%%
 Warning: bad guess with residual norm =   0.371303E+03, reset to no guess
 Iteration #          1
  pAp =    94.8833069299785       rzold =    93.2150463119630       alpha = 
  0.982417764810341     
 delta_qm =   0.144556E-01 delta_en =   0.361088E+03 tol =   0.100000E-04
 Iteration #          2
  pAp =    105.126231686921       rzold =    12.0378727826205       alpha = 
  0.114508744292012     
 delta_qm =   0.514842E-02 delta_en =   0.458028E+02 tol =   0.100000E-04
 Iteration #          3
  pAp =   0.707409818478619       rzold =   0.143512684345220       alpha = 
  0.202870642442967     
 delta_qm =   0.349855E-02 delta_en =   0.211504E+02 tol =   0.100000E-04
 Iteration #          4
  pAp =   0.182463357980557       rzold =   4.095902026981756E-002  alpha = 
  0.224478058077733     
 delta_qm =   0.255273E-02 delta_en =   0.112604E+02 tol =   0.100000E-04
 Iteration #          5
  pAp =   2.000596235958537E-002  rzold =   8.270452531818229E-003  alpha = 
  0.413399384801684     
 delta_qm =   0.132833E-02 delta_en =   0.304900E+01 tol =   0.100000E-04
 Iteration #          6
  pAp =   7.612649271024806E-003  rzold =   3.265172929799402E-003  alpha = 
  0.428914141917357     
 delta_qm =   0.758097E-03 delta_en =   0.993101E+00 tol =   0.100000E-04
 Iteration #          7
  pAp =   5.257184083560726E-003  rzold =   1.703604380458481E-003  alpha = 
  0.324052639850613     
 delta_qm =   0.437083E-03 delta_en =   0.330119E+00 tol =   0.100000E-04
 Iteration #          8
  pAp =   3.848624504065556E-003  rzold =   1.138409056493345E-003  alpha = 
  0.295796343678311     
 delta_qm =   0.273965E-03 delta_en =   0.129699E+00 tol =   0.100000E-04
 Iteration #          9
  pAp =   1.196042643140022E-003  rzold =   4.009427982798659E-004  alpha = 
  0.335224501048937     
 delta_qm =   0.192715E-03 delta_en =   0.641760E-01 tol =   0.100000E-04
 Iteration #         10
  pAp =   3.247569628938468E-004  rzold =   1.124614263805399E-004  alpha = 
  0.346294119080366     
 delta_qm =   0.125411E-03 delta_en =   0.271780E-01 tol =   0.100000E-04
 Iteration #         11
  pAp =   3.592195317319087E-005  rzold =   1.751251406760106E-005  alpha = 
  0.487515642124686     
 delta_qm =   0.673403E-04 delta_en =   0.783598E-02 tol =   0.100000E-04
 Iteration #         12
  pAp =   8.124213919148539E-006  rzold =   4.608705290113042E-006  alpha = 
  0.567280149929393     
 delta_qm =   0.314201E-04 delta_en =   0.170592E-02 tol =   0.100000E-04
 Iteration #         13
  pAp =   6.991239151310727E-006  rzold =   2.663848539681142E-006  alpha = 
  0.381026665234549     
 delta_qm =   0.188345E-04 delta_en =   0.612988E-03 tol =   0.100000E-04
 Iteration #         14
  pAp =   2.273541469000792E-006  rzold =   8.537185506293005E-007  alpha = 
  0.375501640180993     
 delta_qm =   0.139460E-04 delta_en =   0.336080E-03 tol =   0.100000E-04
 Iteration #         15
  pAp =   6.618605686348359E-007  rzold =   2.662257832704009E-007  alpha = 
  0.402238471192690     
 delta_qm =   0.904222E-05 delta_en =   0.141284E-03 tol =   0.100000E-04
 Iteration #         16
  pAp =   2.464651428328881E-007  rzold =   8.712680204310700E-008  alpha = 
  0.353505575034527     
 delta_qm =   0.540218E-05 delta_en =   0.504292E-04 tol =   0.100000E-04
 Iteration #         17
  pAp =   1.072198323715862E-007  rzold =   4.114590197886166E-008  alpha = 
  0.383752716906556     
 delta_qm =   0.237356E-05 delta_en =   0.973519E-05 tol =   0.100000E-04
 Charges are converged, EXIT

%%%% ELECTRONS %%%%%%%%%%%%%%%%%%%%%%%%%%%%%%%%%%%%%%%%%%%%%%%%%%%%%%%%%%%%%%%%%
 number of electrons        =         24
 total electronic charge    =     24.0000000
 number of spin components  =  1

%%%% BOUNDARY %%%%%%%%%%%%%%%%%%%%%%%%%%%%%%%%%%%%%%%%%%%%%%%%%%%%%%%%%%%%%%%%%%
 boundary mode              = full                 
 boundary is built as a function of a smooth density
 function type              =  2 
 using the modified SCCS function with parameters 
 rhomax                     =      0.0050000 
 rhomin                     =      0.0001000 
 volume of the QM region    =    716.1313887 
 surface of the QM region   =    412.6364450 

%%%% DIELECTRIC %%%%%%%%%%%%%%%%%%%%%%%%%%%%%%%%%%%%%%%%%%%%%%%%%%%%%%%%%%%%%%%%%
 dielectric build on homogeneous background
 environment bulk permitt.  =    100.0000000 
 dielectric flags
 need gradient              =  F 
 need factor depend. sqrt   =  T 
 total dielectric charge    =      0.0000210

%%%% COMPUTE ELECTROSTATIC POTENTIAL %%%%%%%%%%%%%%%%%%%%%%%%%%%%%%%%%%%%%%%%%%%
 Warning: bad guess with residual norm =   0.130866E+04, reset to no guess
 Iteration #          1
  pAp =    95.3727290851394       rzold =    93.2028377761808       alpha = 
  0.977248304313264     
 delta_qm =   0.269393E-01 delta_en =   0.125405E+04 tol =   0.100000E-04
 Iteration #          2
  pAp =    231.629260790700       rzold =    20.8048142632565       alpha = 
  8.981945628214785E-002
 delta_qm =   0.880718E-02 delta_en =   0.134035E+03 tol =   0.100000E-04
 Iteration #          3
  pAp =    1.32778759498984       rzold =   0.213709409015377       alpha = 
  0.160951502952559     
 delta_qm =   0.703137E-02 delta_en =   0.854327E+02 tol =   0.100000E-04
 Iteration #          4
  pAp =   0.213511462829614       rzold =   3.932330138338895E-002  alpha = 
  0.184174193095991     
 delta_qm =   0.620172E-02 delta_en =   0.664612E+02 tol =   0.100000E-04
 Iteration #          5
  pAp =   3.159626242123491E-002  rzold =   1.212867184030731E-002  alpha = 
  0.383864131732112     
 delta_qm =   0.363522E-02 delta_en =   0.228352E+02 tol =   0.100000E-04
 Iteration #          6
  pAp =   2.118323878357389E-002  rzold =   9.510242076326406E-003  alpha = 
  0.448951275746414     
 delta_qm =   0.231660E-02 delta_en =   0.927352E+01 tol =   0.100000E-04
 Iteration #          7
  pAp =   1.833964912024418E-002  rzold =   6.459766659095003E-003  alpha = 
  0.352229566484148     
 delta_qm =   0.139049E-02 delta_en =   0.334101E+01 tol =   0.100000E-04
 Iteration #          8
  pAp =   1.681697816285974E-002  rzold =   5.012287976606953E-003  alpha = 
  0.298049264741069     
 delta_qm =   0.940071E-03 delta_en =   0.152709E+01 tol =   0.100000E-04
 Iteration #          9
  pAp =   1.486181287159013E-002  rzold =   3.544456490819768E-003  alpha = 
  0.238494221495371     
 delta_qm =   0.695836E-03 delta_en =   0.836677E+00 tol =   0.100000E-04
 Iteration #         10
  pAp =   3.132476386434108E-003  rzold =   1.012395785973976E-003  alpha = 
  0.323193429440804     
 delta_qm =   0.539174E-03 delta_en =   0.502345E+00 tol =   0.100000E-04
 Iteration #         11
  pAp =   4.844832899973972E-004  rzold =   1.705837207981525E-004  alpha = 
  0.352094126505517     
 delta_qm =   0.425492E-03 delta_en =   0.312843E+00 tol =   0.100000E-04
 Iteration #         12
  pAp =   2.707583502147670E-004  rzold =   1.025350161036991E-004  alpha = 
  0.378695674657375     
 delta_qm =   0.257470E-03 delta_en =   0.114550E+00 tol =   0.100000E-04
 Iteration #         13
  pAp =   1.030374035952489E-004  rzold =   5.668059114532735E-005  alpha = 
  0.550097238163918     
 delta_qm =   0.104635E-03 delta_en =   0.189191E-01 tol =   0.100000E-04
 Iteration #         14
  pAp =   6.309100663485366E-005  rzold =   2.324660856404370E-005  alpha = 
  0.368461525722455     
 delta_qm =   0.855797E-04 delta_en =   0.126557E-01 tol =   0.100000E-04
 Iteration #         15
  pAp =   1.453786553624492E-005  rzold =   5.815547338933103E-006  alpha = 
  0.400027591700730     
 delta_qm =   0.672518E-04 delta_en =   0.781541E-02 tol =   0.100000E-04
 Iteration #         16
  pAp =   6.599042111977356E-006  rzold =   2.297555014246748E-006  alpha = 
  0.348164926857589     
 delta_qm =   0.476574E-04 delta_en =   0.392468E-02 tol =   0.100000E-04
 Iteration #         17
  pAp =   4.305982231267815E-006  rzold =   1.410114477597675E-006  alpha = 
  0.327478006610931     
 delta_qm =   0.287829E-04 delta_en =   0.143157E-02 tol =   0.100000E-04
 Iteration #         18
  pAp =   2.332659174926513E-006  rzold =   7.588828765020303E-007  alpha = 
  0.325329514341047     
 delta_qm =   0.170229E-04 delta_en =   0.500740E-03 tol =   0.100000E-04
 Iteration #         19
  pAp =   3.609765900625816E-007  rzold =   1.923579766990898E-007  alpha = 
  0.532882136943399     
 delta_qm =   0.868964E-05 delta_en =   0.130481E-03 tol =   0.100000E-04
 Iteration #         20
  pAp =   1.352544033144461E-007  rzold =   5.876811705062305E-008  alpha = 
  0.434500582683405     
 delta_qm =   0.470449E-05 delta_en =   0.382445E-04 tol =   0.100000E-04
 Iteration #         21
  pAp =   4.584049451382230E-008  rzold =   1.770500918196144E-008  alpha = 
  0.386230763209216     
 delta_qm =   0.277577E-05 delta_en =   0.133141E-04 tol =   0.100000E-04
 Iteration #         22
  pAp =   8.853890955370394E-009  rzold =   3.680616436009726E-009  alpha = 
  0.415706095157770     
 delta_qm =   0.177632E-05 delta_en =   0.545238E-05 tol =   0.100000E-04
 Charges are converged, EXIT

%%%% ELECTRONS %%%%%%%%%%%%%%%%%%%%%%%%%%%%%%%%%%%%%%%%%%%%%%%%%%%%%%%%%%%%%%%%%
 number of electrons        =         23
 total electronic charge    =     24.0000000
 number of spin components  =  1

%%%% BOUNDARY %%%%%%%%%%%%%%%%%%%%%%%%%%%%%%%%%%%%%%%%%%%%%%%%%%%%%%%%%%%%%%%%%%
 boundary mode              = full                 
 boundary is built as a function of a smooth density
 function type              =  2 
 using the modified SCCS function with parameters 
 rhomax                     =      0.0050000 
 rhomin                     =      0.0001000 
 volume of the QM region    =    714.0054163 
 surface of the QM region   =    412.5102436 

%%%% DIELECTRIC %%%%%%%%%%%%%%%%%%%%%%%%%%%%%%%%%%%%%%%%%%%%%%%%%%%%%%%%%%%%%%%%%
 dielectric build on homogeneous background
 environment bulk permitt.  =    100.0000000 
 dielectric flags
 need gradient              =  F 
 need factor depend. sqrt   =  T 
 total dielectric charge    =     -0.0005740

%%%% COMPUTE ELECTROSTATIC POTENTIAL %%%%%%%%%%%%%%%%%%%%%%%%%%%%%%%%%%%%%%%%%%%
 Warning: bad guess with residual norm =   0.145455E+04, reset to no guess
 Iteration #          1
  pAp =    95.4273650404197       rzold =    93.2372191227900       alpha = 
  0.977049078985864     
 delta_qm =   0.283900E-01 delta_en =   0.139275E+04 tol =   0.100000E-04
 Iteration #          2
  pAp =    238.831175678817       rzold =    21.2128031140117       alpha = 
  8.881923833318531E-002
 delta_qm =   0.893747E-02 delta_en =   0.138030E+03 tol =   0.100000E-04
 Iteration #          3
  pAp =    1.50261852942396       rzold =   0.235264512461736       alpha = 
  0.156569686753381     
 delta_qm =   0.727242E-02 delta_en =   0.913905E+02 tol =   0.100000E-04
 Iteration #          4
  pAp =   0.228677164930504       rzold =   4.139892284437514E-002  alpha = 
  0.181036540561260     
 delta_qm =   0.650906E-02 delta_en =   0.732116E+02 tol =   0.100000E-04
 Iteration #          5
  pAp =   3.348242558925795E-002  rzold =   1.225306512203307E-002  alpha = 
  0.365955121422391     
 delta_qm =   0.389275E-02 delta_en =   0.261852E+02 tol =   0.100000E-04
 Iteration #          6
  pAp =   2.100350587294155E-002  rzold =   9.371094084218989E-003  alpha = 
  0.446168089313680     
 delta_qm =   0.248547E-02 delta_en =   0.106748E+02 tol =   0.100000E-04
 Iteration #          7
  pAp =   1.865401762687676E-002  rzold =   6.634479974509459E-003  alpha = 
  0.355659574640397     
 delta_qm =   0.148757E-02 delta_en =   0.382383E+01 tol =   0.100000E-04
 Iteration #          8
  pAp =   1.726719397269826E-002  rzold =   5.142875451915999E-003  alpha = 
  0.297840833898523     
 delta_qm =   0.978142E-03 delta_en =   0.165329E+01 tol =   0.100000E-04
 Iteration #          9
  pAp =   1.605054921387205E-002  rzold =   3.884455871424518E-003  alpha = 
  0.242013891217335     
 delta_qm =   0.692600E-03 delta_en =   0.828913E+00 tol =   0.100000E-04
 Iteration #         10
  pAp =   3.483371465098795E-003  rzold =   1.128072503578826E-003  alpha = 
  0.323845020515729     
 delta_qm =   0.555036E-03 delta_en =   0.532336E+00 tol =   0.100000E-04
 Iteration #         11
  pAp =   5.714408849824800E-004  rzold =   1.936998005560662E-004  alpha = 
  0.338967346660897     
 delta_qm =   0.439644E-03 delta_en =   0.333999E+00 tol =   0.100000E-04
 Iteration #         12
  pAp =   2.814939837180725E-004  rzold =   1.050758876194075E-004  alpha = 
  0.373279337027129     
 delta_qm =   0.283197E-03 delta_en =   0.138587E+00 tol =   0.100000E-04
 Iteration #         13
  pAp =   1.054890317463841E-004  rzold =   5.876870900182852E-005  alpha = 
  0.557107293800172     
 delta_qm =   0.119974E-03 delta_en =   0.248725E-01 tol =   0.100000E-04
 Iteration #         14
  pAp =   8.435483107660901E-005  rzold =   3.010278826454265E-005  alpha = 
  0.356859090111911     
 delta_qm =   0.947610E-04 delta_en =   0.155168E-01 tol =   0.100000E-04
 Iteration #         15
  pAp =   1.943875549371259E-005  rzold =   7.711045486778304E-006  alpha = 
  0.396684113305115     
 delta_qm =   0.769791E-04 delta_en =   0.102397E-01 tol =   0.100000E-04
 Iteration #         16
  pAp =   6.877960031376113E-006  rzold =   2.657201538875704E-006  alpha = 
  0.386335705173335     
 delta_qm =   0.537692E-04 delta_en =   0.499586E-02 tol =   0.100000E-04
 Iteration #         17
  pAp =   4.205056016827474E-006  rzold =   1.440801154255767E-006  alpha = 
  0.342635424710177     
 delta_qm =   0.330578E-04 delta_en =   0.188840E-02 tol =   0.100000E-04
 Iteration #         18
  pAp =   3.491287191150925E-006  rzold =   9.861162591642534E-007  alpha = 
  0.282450627855445     
 delta_qm =   0.199503E-04 delta_en =   0.687768E-03 tol =   0.100000E-04
 Iteration #         19
  pAp =   4.722350498921581E-007  rzold =   2.457922233956807E-007  alpha = 
  0.520487040197061     
 delta_qm =   0.103104E-04 delta_en =   0.183692E-03 tol =   0.100000E-04
 Iteration #         20
  pAp =   1.879113300751899E-007  rzold =   8.095079155420662E-008  alpha = 
  0.430792499429467     
 delta_qm =   0.574396E-05 delta_en =   0.570120E-04 tol =   0.100000E-04
 Iteration #         21
  pAp =   6.247879193727139E-008  rzold =   2.516084952029289E-008  alpha = 
  0.402710243590407     
 delta_qm =   0.343023E-05 delta_en =   0.203324E-04 tol =   0.100000E-04
 Iteration #         22
  pAp =   1.100782528118417E-008  rzold =   4.918319887788004E-009  alpha = 
  0.446802139582916     
 delta_qm =   0.218196E-05 delta_en =   0.822695E-05 tol =   0.100000E-04
 Charges are converged, EXIT

%%%% ELECTRONS %%%%%%%%%%%%%%%%%%%%%%%%%%%%%%%%%%%%%%%%%%%%%%%%%%%%%%%%%%%%%%%%%
 number of electrons        =         23
 total electronic charge    =     24.0000000
 number of spin components  =  1

%%%% BOUNDARY %%%%%%%%%%%%%%%%%%%%%%%%%%%%%%%%%%%%%%%%%%%%%%%%%%%%%%%%%%%%%%%%%%
 boundary mode              = full                 
 boundary is built as a function of a smooth density
 function type              =  2 
 using the modified SCCS function with parameters 
 rhomax                     =      0.0050000 
 rhomin                     =      0.0001000 
 volume of the QM region    =    714.0054163 
 surface of the QM region   =    412.5102436 

%%%% DIELECTRIC %%%%%%%%%%%%%%%%%%%%%%%%%%%%%%%%%%%%%%%%%%%%%%%%%%%%%%%%%%%%%%%%%
 dielectric build on homogeneous background
 environment bulk permitt.  =    100.0000000 
 dielectric flags
 need gradient              =  F 
 need factor depend. sqrt   =  T 
 total dielectric charge    =     -0.0002631
