
     Program PWSCF v.6.3MaX starts on 21Apr2019 at 23:29:31 

     This program is part of the open-source Quantum ESPRESSO suite
     for quantum simulation of materials; please cite
         "P. Giannozzi et al., J. Phys.:Condens. Matter 21 395502 (2009);
         "P. Giannozzi et al., J. Phys.:Condens. Matter 29 465901 (2017);
          URL http://www.quantum-espresso.org", 
     in publications or presentations arising from this work. More details at
     http://www.quantum-espresso.org/quote

     Parallel version (MPI), running on     1 processors

     MPI processes distributed on     1 nodes
     Reading input from slab.in

     Current dimensions of program PWSCF are:
     Max number of different atomic species (ntypx) = 10
     Max number of k-points (npk) =  40000
     Max angular momentum in pseudopotentials (lmaxx) =  3
               file C.pbe-rrkjus.UPF: wavefunction(s)  2S 2P renormalized
               file O.pbe-rrkjus.UPF: wavefunction(s)  2S renormalized

     gamma-point specific algorithms are used

     Subspace diagonalization in iterative solution of the eigenvalue problem:
     a serial algorithm will be used

 
     G-vector sticks info
     --------------------
     sticks:   dense  smooth     PW     G-vecs:    dense   smooth      PW
     Sum        2357    1099    269               366833   116965   14571
 


     bravais-lattice index     =            8
     lattice parameter (alat)  =      10.6881  a.u.
     unit-cell volume          =    4181.1215 (a.u.)^3
     number of atoms/cell      =           10
     number of atomic types    =            3
     number of electrons       =        89.00
     number of Kohn-Sham states=           80
     kinetic-energy cutoff     =      35.0000  Ry
     charge density cutoff     =     300.0000  Ry
     convergence threshold     =      5.0E-03
     mixing beta               =       0.7000
     number of iterations used =            8  plain     mixing
     Exchange-correlation      = PBE ( 1  4  3  4 0 0)
 

     Environ Module
     ==============

     Plese cite
         O. Andreussi, I. Dabo and N. Marzari, J. Chem. Phys. 136, 064102 (2012)         
     in publications or presentations arising from this work.

     compensation onset threshold      =               0.1000E+03 
     static permittivity               =                   100.00 
     epsilon calculation mode          =                     full 

     Electrostatic Setup
     -------------------
     electrostatic problem to solve    = generalized              
     numerical solver adopted          = cg                       
     type of auxiliary density adopted = none                     
     type of core tool for poisson     = fft                      
     type of core tool for s(r) deriv  = analytic                 



     celldm(1)=  10.688100  celldm(2)=   0.866025  celldm(3)=   3.954220
     celldm(4)=   0.000000  celldm(5)=   0.000000  celldm(6)=   0.000000

     crystal axes: (cart. coord. in units of alat)
               a(1) = (   1.000000   0.000000   0.000000 )  
               a(2) = (   0.000000   0.866025   0.000000 )  
               a(3) = (   0.000000   0.000000   3.954220 )  

     reciprocal axes: (cart. coord. in units 2 pi/alat)
               b(1) = (  1.000000  0.000000  0.000000 )  
               b(2) = (  0.000000  1.154701  0.000000 )  
               b(3) = (  0.000000  0.000000  0.252894 )  


     PseudoPot. # 1 for C  read from file:
     /home/fnattino/Programs/quantumespresso/q-e-qe-6.3-develop/Environ/tests/../..//pseudo/C.pbe-rrkjus.UPF
     MD5 check sum: c9ac5a99bc85b198593446162950cd17
     Pseudo is Ultrasoft, Zval =  4.0
     Generated by new atomic code, or converted to UPF format
     Using radial grid of  627 points,  4 beta functions with: 
                l(1) =   0
                l(2) =   0
                l(3) =   1
                l(4) =   1
     Q(r) pseudized with 0 coefficients 


     PseudoPot. # 2 for O  read from file:
     /home/fnattino/Programs/quantumespresso/q-e-qe-6.3-develop/Environ/tests/../..//pseudo/O.pbe-rrkjus.UPF
     MD5 check sum: fadcf19ee70a498d3030e2e79cf929a4
     Pseudo is Ultrasoft, Zval =  6.0
     Generated by new atomic code, or converted to UPF format
     Using radial grid of 1269 points,  4 beta functions with: 
                l(1) =   0
                l(2) =   0
                l(3) =   1
                l(4) =   1
     Q(r) pseudized with 0 coefficients 


     PseudoPot. # 3 for Pt read from file:
     /home/fnattino/Programs/quantumespresso/q-e-qe-6.3-develop/Environ/tests/../..//pseudo/Pt.pbe-n-rrkjus_psl.0.1.UPF
     MD5 check sum: 957548fe13c2a9232dd96292d902c87c
     Pseudo is Ultrasoft + core correction, Zval = 10.0
     Generated using "atomic" code by A. Dal Corso v.5.0.2 svn rev. 9415
     Using radial grid of 1277 points,  6 beta functions with: 
                l(1) =   0
                l(2) =   0
                l(3) =   1
                l(4) =   1
                l(5) =   2
                l(6) =   2
     Q(r) pseudized with 0 coefficients 


     atomic species   valence    mass     pseudopotential
        C              4.00     1.00000     C ( 1.00)
        O              6.00     1.00000     O ( 1.00)
        Pt            10.00     1.00000     Pt( 1.00)

     No symmetry found



   Cartesian axes

     site n.     atom                  positions (alat units)
         1           C   tau(   1) = (   0.4991611   0.4347567   0.7762281  )
         2           O   tau(   2) = (   0.4991542   0.4322212   0.9800832  )
         3           Pt  tau(   3) = (   0.7542339   0.0091745   0.4105048  )
         4           Pt  tau(   4) = (   0.2441023   0.0091745   0.4105046  )
         5           Pt  tau(   5) = (   0.0000034   0.4416918   0.4083168  )
         6           Pt  tau(   6) = (   0.4991682   0.4417635   0.4468119  )
         7           Pt  tau(   7) = (   0.0000038   0.7300598   0.0000000  )
         8           Pt  tau(   8) = (   0.4991683   0.7202168   0.0139279  )
         9           Pt  tau(   9) = (   0.2524172   0.2949237   0.0078392  )
        10           Pt  tau(  10) = (   0.7459196   0.2949237   0.0078394  )

     number of k points=     1  Marzari-Vanderbilt smearing, width (Ry)=  0.0300
                       cart. coord. in units 2pi/alat
        k(    1) = (   0.0000000   0.0000000   0.0000000), wk =   2.0000000

     Dense  grid:   183417 G-vectors     FFT dimensions: (  60,  54, 240)

     Smooth grid:    58483 G-vectors     FFT dimensions: (  45,  36, 160)

     Estimated max dynamical RAM per process >     774.12 MB

     Initial potential from superposition of free atoms
     Check: negative starting charge=   -0.003083

     starting charge   89.99859, renormalised to   89.00000

     negative rho (up, down):  3.049E-03 0.000E+00
     Starting wfcs are   80 randomized atomic wfcs

     total cpu time spent up to now is        6.9 secs

     Self-consistent Calculation

     iteration #  1     ecut=    35.00 Ry     beta= 0.70
     Davidson diagonalization with overlap
     ethr =  1.00E-02,  avg # of iterations =  5.0

     negative rho (up, down):  2.886E-03 0.000E+00

     add environment contribution to local potential
     polarization accuracy = 3.6E-06, # of iterations =  25

     total cpu time spent up to now is       10.9 secs

     total energy              =    -622.68849484 Ry
     Harris-Foulkes estimate   =    -624.21151040 Ry
     estimated scf accuracy    <       1.86637819 Ry
     electrostatic embedding   =       0.03381190 Ry
     correction to one-el term =       0.00000000 Ry

     iteration #  2     ecut=    35.00 Ry     beta= 0.70
     Davidson diagonalization with overlap
     ethr =  2.10E-03,  avg # of iterations =  8.0

     negative rho (up, down):  2.058E-02 0.000E+00

     add environment contribution to local potential
     polarization accuracy = 5.6E-06, # of iterations =  50

     total cpu time spent up to now is       16.0 secs

     total energy              =    -618.07188058 Ry
     Harris-Foulkes estimate   =    -607.34369882 Ry
     estimated scf accuracy    <      45.74915394 Ry
     electrostatic embedding   =       0.01313308 Ry
     correction to one-el term =     -19.48161435 Ry

     iteration #  3     ecut=    35.00 Ry     beta= 0.70
     Davidson diagonalization with overlap
     ethr =  2.10E-03,  avg # of iterations =  5.0

     negative rho (up, down):  7.638E-03 0.000E+00

     add environment contribution to local potential
     polarization accuracy = 4.9E-06, # of iterations =  29

     total cpu time spent up to now is       20.4 secs

     total energy              =    -623.81075922 Ry
     Harris-Foulkes estimate   =    -601.96536500 Ry
     estimated scf accuracy    <       0.59990045 Ry
     electrostatic embedding   =       0.26892202 Ry
     correction to one-el term =     -22.38153780 Ry

     iteration #  4     ecut=    35.00 Ry     beta= 0.70
     Davidson diagonalization with overlap
     ethr =  6.74E-04,  avg # of iterations =  5.0

     negative rho (up, down):  8.686E-03 0.000E+00

     add environment contribution to local potential
     polarization accuracy = 7.7E-06, # of iterations =  30

     total cpu time spent up to now is       24.5 secs

     total energy              =    -623.59558391 Ry
     Harris-Foulkes estimate   =    -602.08560471 Ry
     estimated scf accuracy    <       1.01433728 Ry
     electrostatic embedding   =       0.22789779 Ry
     correction to one-el term =     -21.93671115 Ry

     iteration #  5     ecut=    35.00 Ry     beta= 0.70
     Davidson diagonalization with overlap
     ethr =  6.74E-04,  avg # of iterations =  1.0

     negative rho (up, down):  4.842E-03 0.000E+00

     add environment contribution to local potential
     polarization accuracy = 3.9E-06, # of iterations =  30

     total cpu time spent up to now is       28.2 secs

     total energy              =    -623.67336393 Ry
     Harris-Foulkes estimate   =    -601.82479227 Ry
     estimated scf accuracy    <       0.08560236 Ry
     electrostatic embedding   =       0.21891595 Ry
     correction to one-el term =     -22.09655341 Ry

     iteration #  6     ecut=    35.00 Ry     beta= 0.70
     Davidson diagonalization with overlap
     ethr =  9.62E-05,  avg # of iterations =  6.0

     negative rho (up, down):  4.831E-03 0.000E+00

     add environment contribution to local potential
     polarization accuracy = 3.5E-06, # of iterations =  30

     total cpu time spent up to now is       32.2 secs

     total energy              =    -623.67454263 Ry
     Harris-Foulkes estimate   =    -601.39645391 Ry
     estimated scf accuracy    <       0.24600247 Ry
     electrostatic embedding   =       0.21080703 Ry
     correction to one-el term =     -22.52195546 Ry

     iteration #  7     ecut=    35.00 Ry     beta= 0.70
     Davidson diagonalization with overlap
     ethr =  9.62E-05,  avg # of iterations =  4.0

     negative rho (up, down):  4.087E-03 0.000E+00

     add environment contribution to local potential
     polarization accuracy = 7.2E-06, # of iterations =  29

     total cpu time spent up to now is       36.0 secs

     total energy              =    -623.68690755 Ry
     Harris-Foulkes estimate   =    -601.17558392 Ry
     estimated scf accuracy    <       0.05133787 Ry
     electrostatic embedding   =       0.21142354 Ry
     correction to one-el term =     -22.73235751 Ry

     iteration #  8     ecut=    35.00 Ry     beta= 0.70
     Davidson diagonalization with overlap
     ethr =  5.77E-05,  avg # of iterations =  1.0

     negative rho (up, down):  4.006E-03 0.000E+00

     add environment contribution to local potential
     polarization accuracy = 7.3E-06, # of iterations =  29

     total cpu time spent up to now is       39.8 secs

     total energy              =    -623.69179730 Ry
     Harris-Foulkes estimate   =    -600.95390758 Ry
     estimated scf accuracy    <       0.03058656 Ry
     electrostatic embedding   =       0.20616729 Ry
     correction to one-el term =     -22.94951961 Ry

     iteration #  9     ecut=    35.00 Ry     beta= 0.70
     Davidson diagonalization with overlap
     ethr =  3.44E-05,  avg # of iterations =  1.0

     negative rho (up, down):  3.765E-03 0.000E+00

     add environment contribution to local potential
     polarization accuracy = 7.1E-06, # of iterations =  29

     total cpu time spent up to now is       43.5 secs

     total energy              =    -623.69386988 Ry
     Harris-Foulkes estimate   =    -600.91856694 Ry
     estimated scf accuracy    <       0.00888124 Ry
     electrostatic embedding   =       0.20528293 Ry
     correction to one-el term =     -22.98213480 Ry

     iteration # 10     ecut=    35.00 Ry     beta= 0.70
     Davidson diagonalization with overlap
     ethr =  9.98E-06,  avg # of iterations =  5.0

     negative rho (up, down):  3.558E-03 0.000E+00

     the potential shift due to the Gaussian-smeared nuclei is    -0.4600 ev

     total cpu time spent up to now is       46.2 secs

     End of self-consistent calculation

          k = 0.0000 0.0000 0.0000 (  7286 PWs)   bands (ev):

   -24.8693 -11.3708  -9.6790  -8.5144  -8.2203  -7.7096  -7.6975  -7.5086
    -7.3369  -6.5021  -6.3552  -6.2521  -6.0369  -5.9720  -5.9122  -5.7656
    -5.1076  -5.0650  -5.0071  -4.8016  -4.7437  -4.7026  -4.6608  -4.6140
    -4.6046  -4.4191  -4.4055  -4.3132  -4.2121  -3.9670  -3.8564  -3.1220
    -2.9875  -2.7189  -2.4614  -2.4424  -2.3841  -2.2053  -2.0521  -1.9231
    -1.7475  -1.7367  -1.5334  -1.4895  -1.4466  -1.2842  -1.1598  -0.0662
     0.2633   0.3217   0.9141   1.5995   1.7194   2.6755   3.0096   3.0955
     4.4439   4.6173   4.6949   5.0330   5.4990   5.8933   6.1286   6.1350
     6.9996   7.2014   7.4183   7.5723   7.7108   8.0262   8.9287   9.3051
     9.3080   9.3581   9.6634   9.9722  10.0609  10.1650  10.3003  10.3650

     the Fermi energy is    -1.3649 ev

!    total energy              =    -623.69356979 Ry
     Harris-Foulkes estimate   =    -600.88130453 Ry
     estimated scf accuracy    <       0.00219497 Ry

     The total energy is the sum of the following terms:

     one-electron contribution =   -3916.08646715 Ry
     hartree contribution      =    2004.75884777 Ry
     xc contribution           =    -262.75428307 Ry
     ewald contribution        =    1573.20467954 Ry
     smearing contrib. (-TS)   =      -0.00209198 Ry
     electrostatic embedding   =       0.20314008 Ry
     correction to one-el term =     -23.01739496 Ry

     convergence has been achieved in  10 iterations

     negative rho (up, down):  3.558E-03 0.000E+00

     Forces acting on atoms (cartesian axes, Ry/au):

     atom    1 type  1   force =     0.00001574   -0.00385029    0.07731115
     atom    2 type  2   force =    -0.00009586    0.00115251   -0.02541980
     atom    3 type  3   force =     0.00411420    0.01487462    0.03587076
     atom    4 type  3   force =    -0.00315988    0.01503824    0.03637975
     atom    5 type  3   force =    -0.00186572    0.00992632   -0.00186195
     atom    6 type  3   force =     0.00088857    0.00608210    0.05172846
     atom    7 type  3   force =    -0.00146188   -0.01113946   -0.04870917
     atom    8 type  3   force =     0.00047899   -0.01932957   -0.03329820
     atom    9 type  3   force =     0.01574847   -0.00653213   -0.04623573
     atom   10 type  3   force =    -0.01466264   -0.00622233   -0.04576527

     Total force =     0.145949     Total SCF correction =     0.160562
     SCF correction compared to forces is large: reduce conv_thr to get better values

     Writing output data file pwscf.save/
 
     init_run     :      5.62s CPU      5.97s WALL (       1 calls)
     electrons    :     33.96s CPU     39.29s WALL (       1 calls)
     forces       :      3.36s CPU      3.61s WALL (       1 calls)

     Called by init_run:
     wfcinit      :      0.28s CPU      0.30s WALL (       1 calls)
     potinit      :      1.49s CPU      1.53s WALL (       1 calls)
     hinit0       :      3.40s CPU      3.43s WALL (       1 calls)

     Called by electrons:
     c_bands      :      8.50s CPU      8.85s WALL (      10 calls)
     sum_band     :      6.60s CPU      8.68s WALL (      10 calls)
     v_of_rho     :      2.60s CPU      2.75s WALL (      11 calls)
     newd         :      4.51s CPU      7.01s WALL (      11 calls)
     mix_rho      :      0.22s CPU      0.23s WALL (      10 calls)

     Called by c_bands:
     init_us_2    :      0.10s CPU      0.10s WALL (      21 calls)
     regterg      :      7.86s CPU      8.20s WALL (      10 calls)

     Called by sum_band:
     sum_band:bec :      0.00s CPU      0.00s WALL (      10 calls)
     addusdens    :      5.20s CPU      7.24s WALL (      10 calls)

     Called by *egterg:
     h_psi        :      6.10s CPU      6.14s WALL (      52 calls)
     s_psi        :      0.29s CPU      0.30s WALL (      52 calls)
     g_psi        :      0.06s CPU      0.05s WALL (      41 calls)
     rdiaghg      :      0.39s CPU      0.39s WALL (      51 calls)

     Called by h_psi:
     h_psi:pot    :      6.08s CPU      6.11s WALL (      52 calls)
     h_psi:calbec :      0.28s CPU      0.29s WALL (      52 calls)
     vloc_psi     :      5.49s CPU      5.53s WALL (      52 calls)
     add_vuspsi   :      0.31s CPU      0.28s WALL (      52 calls)

     General routines
     calbec       :      0.41s CPU      0.42s WALL (      66 calls)
     fft          :      5.54s CPU      5.60s WALL (     868 calls)
     ffts         :      0.04s CPU      0.05s WALL (      21 calls)
     fftw         :      5.64s CPU      5.58s WALL (    2488 calls)
     interpolate  :      0.13s CPU      0.15s WALL (      11 calls)
 
     Parallel routines
 
     Environ routines
     calc_eelect  :      0.01s CPU      0.02s WALL (      20 calls)
     calc_velect  :      8.98s CPU      9.19s WALL (      18 calls)
     dielectric   :      0.24s CPU      0.25s WALL (      13 calls)
     calc_felect  :      0.04s CPU      0.04s WALL (       1 calls)
 
     PWSCF        :    43.84s CPU        49.81s WALL

 
   This run was terminated on:  23:30:21  21Apr2019            

=------------------------------------------------------------------------------=
   JOB DONE.
=------------------------------------------------------------------------------=

%%%% IONS %%%%%%%%%%%%%%%%%%%%%%%%%%%%%%%%%%%%%%%%%%%%%%%%%%%%%%%%%%%%%%%%%%%%%%
 number of ions             =         10
 ionic center of charge     =      0.3882415     0.3750182     0.2893651
 total ionic charge         =    -90.0000000
 ionic dipole               =      0.0000000     0.0000000     0.0000000
 ionic quadrupole (pc)      =   -730.5101255  -614.6110457  -876.7220256
 ionic quadrupole (gauss)   =   -741.7601255  -625.8610457  -887.9720256
 ion   1 type =  1 coordinates =      5.3350841     4.6467234     8.2964034
 ion   2 type =  2 coordinates =      5.3350096     4.6196233    10.4752278
 ion   3 type =  3 coordinates =      8.0613271     0.0980580     4.3875164
 ion   4 type =  3 coordinates =      2.6089894     0.0980583     4.3875141
 ion   5 type =  3 coordinates =      0.0000366     4.7208463     4.3641304
 ion   6 type =  3 coordinates =      5.3351596     4.7216127     4.7755699
 ion   7 type =  3 coordinates =      0.0000411     7.8029520     0.0000000
 ion   8 type =  3 coordinates =      5.3351612     7.6977491     0.1488629
 ion   9 type =  3 coordinates =      2.6978606     3.1521739     0.0837858
 ion  10 type =  3 coordinates =      7.9724637     3.1521745     0.0837887

%%%% SYSTEM %%%%%%%%%%%%%%%%%%%%%%%%%%%%%%%%%%%%%%%%%%%%%%%%%%%%%%%%%%%%%%%%%%%%
 system is built from all present ionic types
 system defined dimension   =  0 
 system defined axis        =  3 
 system center              =      0.3882415     0.3750182     0.2893651 
 system width               =      0.7019013 

%%%% ELECTRONS %%%%%%%%%%%%%%%%%%%%%%%%%%%%%%%%%%%%%%%%%%%%%%%%%%%%%%%%%%%%%%%%%
 number of electrons        =         89
 total electronic charge    =     89.0000000
 number of spin components  =  1

%%%% BOUNDARY %%%%%%%%%%%%%%%%%%%%%%%%%%%%%%%%%%%%%%%%%%%%%%%%%%%%%%%%%%%%%%%%%%
 boundary label             = solvent              
 boundary mode              = full                 
 boundary is built as a function of a smooth density
 function type              =  2 
 using the modified SCCS function with parameters 
 rhomax                     =      0.0050000 
 rhomin                     =      0.0001000 
 volume of the QM region    =   1610.6630766 
 surface of the QM region   =    255.0494111 

%%%% DIELECTRIC %%%%%%%%%%%%%%%%%%%%%%%%%%%%%%%%%%%%%%%%%%%%%%%%%%%%%%%%%%%%%%%%%
 dielectric build on homogeneous background
 environment bulk permitt.  =    100.0000000 
 dielectric flags
 need gradient              =  F 
 need factor depend. sqrt   =  T 
 total dielectric charge    =      0.0000000

%%%% DENSITY %%%%%%%%%%%%%%%%%%%%%%%%%%%%%%%%%%%%%%%%%%%%%%%%%%%%%%%%%%%%%%%%%%%
 density label              = vreference                                                                      
 integral of density        =      0.000000000    

%%%% DENSITY %%%%%%%%%%%%%%%%%%%%%%%%%%%%%%%%%%%%%%%%%%%%%%%%%%%%%%%%%%%%%%%%%%%
 density label              = velectrostatic                                                                  
 integral of density        =      0.000000000    

%%%% CHARGES %%%%%%%%%%%%%%%%%%%%%%%%%%%%%%%%%%%%%%%%%%%%%%%%%%%%%%%%%%%%%%%%%%%
 total number of charges    =         99
 total charge               =     -1.0000000

%%%% DENSITY %%%%%%%%%%%%%%%%%%%%%%%%%%%%%%%%%%%%%%%%%%%%%%%%%%%%%%%%%%%%%%%%%%%
 density label              = vsoftcavity                                                                     
 integral of density        =      0.000000000    

%%%% ELECTRONS %%%%%%%%%%%%%%%%%%%%%%%%%%%%%%%%%%%%%%%%%%%%%%%%%%%%%%%%%%%%%%%%%
 number of electrons        =         89
 total electronic charge    =     89.0000000
 number of spin components  =  1

%%%% BOUNDARY %%%%%%%%%%%%%%%%%%%%%%%%%%%%%%%%%%%%%%%%%%%%%%%%%%%%%%%%%%%%%%%%%%
 boundary label             = solvent              
 boundary mode              = full                 
 boundary is built as a function of a smooth density
 function type              =  2 
 using the modified SCCS function with parameters 
 rhomax                     =      0.0050000 
 rhomin                     =      0.0001000 
 volume of the QM region    =   1500.3584888 
 surface of the QM region   =    259.8000326 

%%%% DIELECTRIC %%%%%%%%%%%%%%%%%%%%%%%%%%%%%%%%%%%%%%%%%%%%%%%%%%%%%%%%%%%%%%%%%
 dielectric build on homogeneous background
 environment bulk permitt.  =    100.0000000 
 dielectric flags
 need gradient              =  F 
 need factor depend. sqrt   =  T 
 total dielectric charge    =      0.0000000

%%%% DENSITY %%%%%%%%%%%%%%%%%%%%%%%%%%%%%%%%%%%%%%%%%%%%%%%%%%%%%%%%%%%%%%%%%%%
 density label              = vreference                                                                      
 integral of density        =     0.1686656723E-13

%%%% COMPUTE ELECTROSTATIC POTENTIAL %%%%%%%%%%%%%%%%%%%%%%%%%%%%%%%%%%%%%%%%%%%
 Iteration #          1
  pAp =    1283.82356395434       rzold =    1273.24891791848       alpha = 
  0.991763162530458     
 delta_qm =   0.183319E+00 delta_en =   0.261319E+05 tol =   0.100000E-04
 Iteration #          2
  pAp =    5130.46280498764       rzold =    225.752286335310       alpha = 
  4.400232394548147E-002
 delta_qm =   0.210559E-01 delta_en =   0.344751E+03 tol =   0.100000E-04
 Iteration #          3
  pAp =    12.1096600109809       rzold =    1.23575554377539       alpha = 
  0.102047088246476     
 delta_qm =   0.332695E-01 delta_en =   0.860694E+03 tol =   0.100000E-04
 Iteration #          4
  pAp =   0.226384934108432       rzold =   0.115055695570508       alpha = 
  0.508230355626932     
 delta_qm =   0.240253E-01 delta_en =   0.448842E+03 tol =   0.100000E-04
 Iteration #          5
  pAp =   0.144255685576182       rzold =   0.112191047410629       alpha = 
  0.777723574377801     
 delta_qm =   0.145251E-01 delta_en =   0.164057E+03 tol =   0.100000E-04
 Iteration #          6
  pAp =   0.546218062012999       rzold =   0.170104105258100       alpha = 
  0.311421604461795     
 delta_qm =   0.113185E-01 delta_en =   0.996170E+02 tol =   0.100000E-04
 Iteration #          7
  pAp =   9.618353767841598E-002  rzold =   5.208963801452465E-002  alpha = 
  0.541565004488432     
 delta_qm =   0.947758E-02 delta_en =   0.698475E+02 tol =   0.100000E-04
 Iteration #          8
  pAp =   2.438385027578434E-002  rzold =   1.457626604101977E-002  alpha = 
  0.597783609895911     
 delta_qm =   0.654651E-02 delta_en =   0.333255E+02 tol =   0.100000E-04
 Iteration #          9
  pAp =   8.820510141765948E-003  rzold =   7.141685827449082E-003  alpha = 
  0.809668115864697     
 delta_qm =   0.470991E-02 delta_en =   0.172497E+02 tol =   0.100000E-04
 Iteration #         10
  pAp =   1.019415780152170E-002  rzold =   8.180221896059253E-003  alpha = 
  0.802442149251228     
 delta_qm =   0.369770E-02 delta_en =   0.106321E+02 tol =   0.100000E-04
 Iteration #         11
  pAp =   1.315148854402773E-002  rzold =   6.281566003976048E-003  alpha = 
  0.477631561092648     
 delta_qm =   0.416795E-02 delta_en =   0.135083E+02 tol =   0.100000E-04
 Iteration #         12
  pAp =   6.867512931543604E-003  rzold =   2.988133740037508E-003  alpha = 
  0.435111483563798     
 delta_qm =   0.391058E-02 delta_en =   0.118915E+02 tol =   0.100000E-04
 Iteration #         13
  pAp =   8.965331627758965E-004  rzold =   1.545145545130261E-003  alpha = 
   1.72346725061022     
 delta_qm =   0.229589E-02 delta_en =   0.409881E+01 tol =   0.100000E-04
 Iteration #         14
  pAp =   1.227320188665125E-002  rzold =   2.516420001897542E-003  alpha = 
  0.205033700670604     
 delta_qm =   0.224320E-02 delta_en =   0.391284E+01 tol =   0.100000E-04
 Iteration #         15
  pAp =   4.952718134174023E-002  rzold =   5.542138244780845E-003  alpha = 
  0.111900941960331     
 delta_qm =   0.201803E-02 delta_en =   0.316672E+01 tol =   0.100000E-04
 Iteration #         16
  pAp =   1.413476089032409E-003  rzold =   5.798669325469854E-004  alpha = 
  0.410241769950231     
 delta_qm =   0.128709E-02 delta_en =   0.128817E+01 tol =   0.100000E-04
 Iteration #         17
  pAp =   7.467465884169039E-004  rzold =   2.509085870339086E-004  alpha = 
  0.336002321170067     
 delta_qm =   0.681611E-03 delta_en =   0.361268E+00 tol =   0.100000E-04
 Iteration #         18
  pAp =   8.190588744545277E-005  rzold =   4.307341965501691E-005  alpha = 
  0.525889175960675     
 delta_qm =   0.287387E-03 delta_en =   0.642231E-01 tol =   0.100000E-04
 Iteration #         19
  pAp =   1.532162605008204E-005  rzold =   9.244943399600564E-006  alpha = 
  0.603391792057936     
 delta_qm =   0.139135E-03 delta_en =   0.150533E-01 tol =   0.100000E-04
 Iteration #         20
  pAp =   3.506688759822093E-006  rzold =   2.306580045695622E-006  alpha = 
  0.657765830866793     
 delta_qm =   0.715332E-04 delta_en =   0.397897E-02 tol =   0.100000E-04
 Iteration #         21
  pAp =   1.089928775816653E-006  rzold =   6.020384764075941E-007  alpha = 
  0.552364970781236     
 delta_qm =   0.340725E-04 delta_en =   0.902744E-03 tol =   0.100000E-04
 Iteration #         22
  pAp =   1.807961909217176E-007  rzold =   7.624997649127153E-008  alpha = 
  0.421745480933759     
 delta_qm =   0.196228E-04 delta_en =   0.299420E-03 tol =   0.100000E-04
 Iteration #         23
  pAp =   6.244433738046789E-007  rzold =   1.018051572263502E-007  alpha = 
  0.163033449464057     
 delta_qm =   0.115728E-04 delta_en =   0.104144E-03 tol =   0.100000E-04
 Iteration #         24
  pAp =   2.722421839547605E-008  rzold =   1.471535984927577E-008  alpha = 
  0.540524603333372     
 delta_qm =   0.457481E-05 delta_en =   0.162743E-04 tol =   0.100000E-04
 Iteration #         25
  pAp =   4.465039930487344E-009  rzold =   2.637493094199474E-009  alpha = 
  0.590698657853123     
 delta_qm =   0.215975E-05 delta_en =   0.362713E-05 tol =   0.100000E-04
 Charges are converged, EXIT

%%%% DENSITY %%%%%%%%%%%%%%%%%%%%%%%%%%%%%%%%%%%%%%%%%%%%%%%%%%%%%%%%%%%%%%%%%%%
 density label              = velectrostatic                                                                  
 integral of density        =     0.5004501645E-11

%%%% CHARGES %%%%%%%%%%%%%%%%%%%%%%%%%%%%%%%%%%%%%%%%%%%%%%%%%%%%%%%%%%%%%%%%%%%
 total number of charges    =         99
 total charge               =     -1.0000000

%%%% DENSITY %%%%%%%%%%%%%%%%%%%%%%%%%%%%%%%%%%%%%%%%%%%%%%%%%%%%%%%%%%%%%%%%%%%
 density label              = vsoftcavity                                                                     
 integral of density        =      81.73607844    

%%%% ELECTRONS %%%%%%%%%%%%%%%%%%%%%%%%%%%%%%%%%%%%%%%%%%%%%%%%%%%%%%%%%%%%%%%%%
 number of electrons        =         89
 total electronic charge    =     89.0000000
 number of spin components  =  1

%%%% BOUNDARY %%%%%%%%%%%%%%%%%%%%%%%%%%%%%%%%%%%%%%%%%%%%%%%%%%%%%%%%%%%%%%%%%%
 boundary label             = solvent              
 boundary mode              = full                 
 boundary is built as a function of a smooth density
 function type              =  2 
 using the modified SCCS function with parameters 
 rhomax                     =      0.0050000 
 rhomin                     =      0.0001000 
 volume of the QM region    =   1509.9840464 
 surface of the QM region   =    349.2461106 

%%%% DIELECTRIC %%%%%%%%%%%%%%%%%%%%%%%%%%%%%%%%%%%%%%%%%%%%%%%%%%%%%%%%%%%%%%%%%
 dielectric build on homogeneous background
 environment bulk permitt.  =    100.0000000 
 dielectric flags
 need gradient              =  F 
 need factor depend. sqrt   =  T 
 total dielectric charge    =      0.0141866

%%%% DENSITY %%%%%%%%%%%%%%%%%%%%%%%%%%%%%%%%%%%%%%%%%%%%%%%%%%%%%%%%%%%%%%%%%%%
 density label              = vreference                                                                      
 integral of density        =    -0.1324385496E-11

%%%% COMPUTE ELECTROSTATIC POTENTIAL %%%%%%%%%%%%%%%%%%%%%%%%%%%%%%%%%%%%%%%%%%%
 Warning: bad guess with residual norm =   0.122819E+05, reset to no guess
 Iteration #          1
  pAp =    1275.41462533883       rzold =    1274.14077637898       alpha = 
  0.999001227573731     
 delta_qm =   0.125552E+00 delta_en =   0.122575E+05 tol =   0.100000E-04
 Iteration #          2
  pAp =    673.603656171643       rzold =    25.5788313326742       alpha = 
  3.797311831418621E-002
 delta_qm =   0.115050E+00 delta_en =   0.102927E+05 tol =   0.100000E-04
 Iteration #          3
  pAp =    16.1640470177893       rzold =    1.99368831868407       alpha = 
  0.123340913107338     
 delta_qm =   0.719290E-01 delta_en =   0.402313E+04 tol =   0.100000E-04
 Iteration #          4
  pAp =   0.352831989421144       rzold =   0.120348430423204       alpha = 
  0.341092741110713     
 delta_qm =   0.666830E-01 delta_en =   0.345769E+04 tol =   0.100000E-04
 Iteration #          5
  pAp =    1.25605769569291       rzold =   0.276162172155835       alpha = 
  0.219864241191157     
 delta_qm =   0.285404E-01 delta_en =   0.633397E+03 tol =   0.100000E-04
 Iteration #          6
  pAp =   0.118679698154630       rzold =   0.125367197822359       alpha = 
   1.05634914624585     
 delta_qm =   0.398433E-01 delta_en =   0.123443E+04 tol =   0.100000E-04
 Iteration #          7
  pAp =   0.362683508056928       rzold =   0.211492947921507       alpha = 
  0.583133622630315     
 delta_qm =   0.493333E-01 delta_en =   0.189251E+04 tol =   0.100000E-04
 Iteration #          8
  pAp =   0.134803608410898       rzold =   8.711872193626542E-002  alpha = 
  0.646264020401569     
 delta_qm =   0.468940E-01 delta_en =   0.170998E+04 tol =   0.100000E-04
 Iteration #          9
  pAp =   4.515632688240380E-002  rzold =   7.357165590603415E-002  alpha = 
   1.62926573052830     
 delta_qm =   0.590755E-01 delta_en =   0.271375E+04 tol =   0.100000E-04
 Iteration #         10
  pAp =   0.306646394242978       rzold =   0.204588519774702       alpha = 
  0.667180581985228     
 delta_qm =   0.685862E-01 delta_en =   0.365788E+04 tol =   0.100000E-04
 Iteration #         11
  pAp =   0.340232502836011       rzold =   0.221165446990404       alpha = 
  0.650042089297399     
 delta_qm =   0.654991E-01 delta_en =   0.333601E+04 tol =   0.100000E-04
 Iteration #         12
  pAp =   0.240711132219152       rzold =   0.149469432123645       alpha = 
  0.620949395840833     
 delta_qm =   0.609275E-01 delta_en =   0.288657E+04 tol =   0.100000E-04
 Iteration #         13
  pAp =   0.173744619407252       rzold =   0.127682164484417       alpha = 
  0.734884135808167     
 delta_qm =   0.647738E-01 delta_en =   0.326254E+04 tol =   0.100000E-04
 Iteration #         14
  pAp =   0.186351466251182       rzold =   0.193217758703863       alpha = 
   1.03684592662891     
 delta_qm =   0.122955E+00 delta_en =   0.117556E+05 tol =   0.100000E-04
 Iteration #         15
  pAp =    28.3457208470091       rzold =    1.83075432533585       alpha = 
  6.458662085952988E-002
 delta_qm =   0.137201E+00 delta_en =   0.146377E+05 tol =   0.100000E-04
 Iteration #         16
  pAp =   0.767726544587126       rzold =   0.713950513836652       alpha = 
  0.929954185992886     
 delta_qm =   0.246705E+00 delta_en =   0.473275E+05 tol =   0.100000E-04
 Iteration #         17
  pAp =   -1.45719534412956       rzold =    2.27918542727189       alpha = 
  -1.56409052256019     
 delta_qm =   0.404092E+00 delta_en =   0.126975E+06 tol =   0.100000E-04
 Iteration #         18
  pAp =    29.0615261381384       rzold =    6.08395122695675       alpha = 
  0.209347272336554     
 delta_qm =   0.173282E+00 delta_en =   0.233487E+05 tol =   0.100000E-04
 Iteration #         19
  pAp =    3.30040316919951       rzold =    1.26241133304668       alpha = 
  0.382502157563033     
 delta_qm =   0.782937E-01 delta_en =   0.476661E+04 tol =   0.100000E-04
 Iteration #         20
  pAp =   0.423308555496052       rzold =   0.222987365021266       alpha = 
  0.526772639310253     
 delta_qm =   0.562554E-01 delta_en =   0.246084E+04 tol =   0.100000E-04
 Iteration #         21
  pAp =   0.223292420975941       rzold =   0.135063816332199       alpha = 
  0.604874163403653     
 delta_qm =   0.376141E-01 delta_en =   0.110016E+04 tol =   0.100000E-04
 Iteration #         22
  pAp =   0.128733093734634       rzold =   5.888416540587869E-002  alpha = 
  0.457412804257313     
 delta_qm =   0.277238E-01 delta_en =   0.597670E+03 tol =   0.100000E-04
 Iteration #         23
  pAp =   0.334809651855313       rzold =   4.815968678308029E-002  alpha = 
  0.143841990564514     
 delta_qm =   0.234386E-01 delta_en =   0.427190E+03 tol =   0.100000E-04
 Iteration #         24
  pAp =   9.835716548555185E-002  rzold =   3.093881428591110E-002  alpha = 
  0.314555773676254     
 delta_qm =   0.135861E-01 delta_en =   0.143531E+03 tol =   0.100000E-04
 Iteration #         25
  pAp =   1.173392572944869E-002  rzold =   6.841962780300966E-003  alpha = 
  0.583092388520038     
 delta_qm =   0.100934E-01 delta_en =   0.792199E+02 tol =   0.100000E-04
 Iteration #         26
  pAp =   7.457027717419801E-003  rzold =   4.117772110719682E-003  alpha = 
  0.552200188434390     
 delta_qm =   0.819579E-02 delta_en =   0.522322E+02 tol =   0.100000E-04
 Iteration #         27
  pAp =   5.008884870600196E-003  rzold =   2.383537698178739E-003  alpha = 
  0.475861945274284     
 delta_qm =   0.623750E-02 delta_en =   0.302536E+02 tol =   0.100000E-04
 Iteration #         28
  pAp =   9.615068421874644E-002  rzold =   4.937246109694742E-003  alpha = 
  5.134904810934388E-002
 delta_qm =   0.574818E-02 delta_en =   0.256932E+02 tol =   0.100000E-04
 Iteration #         29
  pAp =   3.118574924517193E-003  rzold =   1.400456019203947E-003  alpha = 
  0.449069223315441     
 delta_qm =   0.407373E-02 delta_en =   0.129045E+02 tol =   0.100000E-04
 Iteration #         30
  pAp =   1.292510403137263E-003  rzold =   7.867082382334741E-004  alpha = 
  0.608666851983494     
 delta_qm =   0.310932E-02 delta_en =   0.751774E+01 tol =   0.100000E-04
 Iteration #         31
  pAp =   3.195174299514845E-004  rzold =   2.686301859129881E-004  alpha = 
  0.840737189059692     
 delta_qm =   0.211123E-02 delta_en =   0.346598E+01 tol =   0.100000E-04
 Iteration #         32
  pAp =   1.813336243889876E-004  rzold =   1.362103938614094E-004  alpha = 
  0.751159054589996     
 delta_qm =   0.134253E-02 delta_en =   0.140153E+01 tol =   0.100000E-04
 Iteration #         33
  pAp =   1.310410119624744E-004  rzold =   7.208037025886708E-005  alpha = 
  0.550059627740882     
 delta_qm =   0.972717E-03 delta_en =   0.735749E+00 tol =   0.100000E-04
 Iteration #         34
  pAp =   3.082591385289876E-004  rzold =   8.189290443860906E-005  alpha = 
  0.265662535843712     
 delta_qm =   0.874327E-03 delta_en =   0.594434E+00 tol =   0.100000E-04
 Iteration #         35
  pAp =   4.768923784051169E-005  rzold =   3.205658161004052E-005  alpha = 
  0.672197398441303     
 delta_qm =   0.681911E-03 delta_en =   0.361586E+00 tol =   0.100000E-04
 Iteration #         36
  pAp =   1.304864780756683E-005  rzold =   1.223675438403319E-005  alpha = 
  0.937779497499900     
 delta_qm =   0.473591E-03 delta_en =   0.174406E+00 tol =   0.100000E-04
 Iteration #         37
  pAp =   1.395684032672399E-005  rzold =   9.062157653151927E-006  alpha = 
  0.649298655068804     
 delta_qm =   0.376808E-03 delta_en =   0.110407E+00 tol =   0.100000E-04
 Iteration #         38
  pAp =   5.704000432998462E-006  rzold =   4.423041196291351E-006  alpha = 
  0.775427920850676     
 delta_qm =   0.254256E-03 delta_en =   0.502689E-01 tol =   0.100000E-04
 Iteration #         39
  pAp =   9.917797208212356E-006  rzold =   2.020352803808009E-006  alpha = 
  0.203709832071891     
 delta_qm =   0.223249E-03 delta_en =   0.387556E-01 tol =   0.100000E-04
 Iteration #         40
  pAp =   5.622925921564748E-005  rzold =   7.191736088066489E-006  alpha = 
  0.127900246035345     
 delta_qm =   0.150317E-03 delta_en =   0.175699E-01 tol =   0.100000E-04
 Iteration #         41
  pAp =   1.838496448313019E-006  rzold =   9.193594674684893E-007  alpha = 
  0.500060507765507     
 delta_qm =   0.124998E-03 delta_en =   0.121496E-01 tol =   0.100000E-04
 Iteration #         42
  pAp =   1.140198147856995E-005  rzold =   1.481751490786926E-006  alpha = 
  0.129955612853071     
 delta_qm =   0.113095E-03 delta_en =   0.994592E-02 tol =   0.100000E-04
 Iteration #         43
  pAp =   1.024732727127221E-006  rzold =   5.939745562054122E-007  alpha = 
  0.579638514981936     
 delta_qm =   0.946197E-04 delta_en =   0.696177E-02 tol =   0.100000E-04
 Iteration #         44
  pAp =   3.427382187426966E-007  rzold =   2.596396398521141E-007  alpha = 
  0.757545046492271     
 delta_qm =   0.617956E-04 delta_en =   0.296942E-02 tol =   0.100000E-04
 Iteration #         45
  pAp =   1.598863896607034E-007  rzold =   1.331590140970608E-007  alpha = 
  0.832835204920437     
 delta_qm =   0.415922E-04 delta_en =   0.134518E-02 tol =   0.100000E-04
 Iteration #         46
  pAp =   5.874223148549441E-008  rzold =   4.443709491048254E-008  alpha = 
  0.756476112444854     
 delta_qm =   0.250081E-04 delta_en =   0.486316E-03 tol =   0.100000E-04
 Iteration #         47
  pAp =   2.879061439251434E-008  rzold =   1.966212768401376E-008  alpha = 
  0.682935328018772     
 delta_qm =   0.138525E-04 delta_en =   0.149215E-03 tol =   0.100000E-04
 Iteration #         48
  pAp =   6.700097970065710E-009  rzold =   5.186761789021718E-009  alpha = 
  0.774132230930774     
 delta_qm =   0.785534E-05 delta_en =   0.479829E-04 tol =   0.100000E-04
 Iteration #         49
  pAp =   3.500723752472705E-009  rzold =   2.068814672849769E-009  alpha = 
  0.590967702432527     
 delta_qm =   0.468558E-05 delta_en =   0.170719E-04 tol =   0.100000E-04
 Iteration #         50
  pAp =   1.159714037139521E-009  rzold =   6.942452969240489E-010  alpha = 
  0.598634900234916     
 delta_qm =   0.267471E-05 delta_en =   0.556301E-05 tol =   0.100000E-04
 Charges are converged, EXIT

%%%% DENSITY %%%%%%%%%%%%%%%%%%%%%%%%%%%%%%%%%%%%%%%%%%%%%%%%%%%%%%%%%%%%%%%%%%%
 density label              = velectrostatic                                                                  
 integral of density        =    -0.3959617387E-11

%%%% CHARGES %%%%%%%%%%%%%%%%%%%%%%%%%%%%%%%%%%%%%%%%%%%%%%%%%%%%%%%%%%%%%%%%%%%
 total number of charges    =         99
 total charge               =     -1.0000000

%%%% DENSITY %%%%%%%%%%%%%%%%%%%%%%%%%%%%%%%%%%%%%%%%%%%%%%%%%%%%%%%%%%%%%%%%%%%
 density label              = vsoftcavity                                                                     
 integral of density        =      1451.617818    

%%%% ELECTRONS %%%%%%%%%%%%%%%%%%%%%%%%%%%%%%%%%%%%%%%%%%%%%%%%%%%%%%%%%%%%%%%%%
 number of electrons        =         89
 total electronic charge    =     89.0000000
 number of spin components  =  1

%%%% BOUNDARY %%%%%%%%%%%%%%%%%%%%%%%%%%%%%%%%%%%%%%%%%%%%%%%%%%%%%%%%%%%%%%%%%%
 boundary label             = solvent              
 boundary mode              = full                 
 boundary is built as a function of a smooth density
 function type              =  2 
 using the modified SCCS function with parameters 
 rhomax                     =      0.0050000 
 rhomin                     =      0.0001000 
 volume of the QM region    =   1485.4790164 
 surface of the QM region   =    274.8915574 

%%%% DIELECTRIC %%%%%%%%%%%%%%%%%%%%%%%%%%%%%%%%%%%%%%%%%%%%%%%%%%%%%%%%%%%%%%%%%
 dielectric build on homogeneous background
 environment bulk permitt.  =    100.0000000 
 dielectric flags
 need gradient              =  F 
 need factor depend. sqrt   =  T 
 total dielectric charge    =      0.0883773

%%%% DENSITY %%%%%%%%%%%%%%%%%%%%%%%%%%%%%%%%%%%%%%%%%%%%%%%%%%%%%%%%%%%%%%%%%%%
 density label              = vreference                                                                      
 integral of density        =    -0.2857797272E-11

%%%% COMPUTE ELECTROSTATIC POTENTIAL %%%%%%%%%%%%%%%%%%%%%%%%%%%%%%%%%%%%%%%%%%%
 Warning: bad guess with residual norm =   0.356062E+04, reset to no guess
 Iteration #          1
  pAp =    1271.95436613681       rzold =    1271.10523021748       alpha = 
  0.999332416364972     
 delta_qm =   0.676233E-01 delta_en =   0.355590E+04 tol =   0.100000E-04
 Iteration #          2
  pAp =    295.302997890238       rzold =    13.8340026902093       alpha = 
  4.684680747924976E-002
 delta_qm =   0.611442E-01 delta_en =   0.290714E+04 tol =   0.100000E-04
 Iteration #          3
  pAp =    15.9662129673071       rzold =    1.85316114098196       alpha = 
  0.116067670196843     
 delta_qm =   0.430061E-01 delta_en =   0.143819E+04 tol =   0.100000E-04
 Iteration #          4
  pAp =   5.023904565457733E-002  rzold =   7.503264998631694E-002  alpha = 
   1.49351264556676     
 delta_qm =   0.142384E-01 delta_en =   0.157645E+03 tol =   0.100000E-04
 Iteration #          5
  pAp =    1.40394098510383       rzold =   0.269090177684170       alpha = 
  0.191667727161814     
 delta_qm =   0.140647E-01 delta_en =   0.153822E+03 tol =   0.100000E-04
 Iteration #          6
  pAp =   0.632022809331790       rzold =   0.199379853553199       alpha = 
  0.315463066537100     
 delta_qm =   0.151043E-01 delta_en =   0.177400E+03 tol =   0.100000E-04
 Iteration #          7
  pAp =   0.100504949527426       rzold =   4.654756920236359E-002  alpha = 
  0.463137083509123     
 delta_qm =   0.111081E-01 delta_en =   0.959484E+02 tol =   0.100000E-04
 Iteration #          8
  pAp =   2.967399540263161E-002  rzold =   1.706451526542193E-002  alpha = 
  0.575066317625316     
 delta_qm =   0.913535E-02 delta_en =   0.648944E+02 tol =   0.100000E-04
 Iteration #          9
  pAp =   6.474659078051466E-003  rzold =   7.535655451429512E-003  alpha = 
   1.16386907180561     
 delta_qm =   0.638658E-02 delta_en =   0.317170E+02 tol =   0.100000E-04
 Iteration #         10
  pAp =   1.281192829514369E-002  rzold =   8.782154412887423E-003  alpha = 
  0.685467028114438     
 delta_qm =   0.502768E-02 delta_en =   0.196558E+02 tol =   0.100000E-04
 Iteration #         11
  pAp =   1.155554650054082E-002  rzold =   3.867121806051532E-003  alpha = 
  0.334655033915578     
 delta_qm =   0.479315E-02 delta_en =   0.178648E+02 tol =   0.100000E-04
 Iteration #         12
  pAp =   2.672676928062763E-003  rzold =   1.638171227411269E-003  alpha = 
  0.612932753005304     
 delta_qm =   0.427507E-02 delta_en =   0.142116E+02 tol =   0.100000E-04
 Iteration #         13
  pAp =   2.077891113007100E-003  rzold =   1.876271716173819E-003  alpha = 
  0.902969219334357     
 delta_qm =   0.499159E-02 delta_en =   0.193747E+02 tol =   0.100000E-04
 Iteration #         14
  pAp =   4.874834929626819E-003  rzold =   2.644465639142092E-003  alpha = 
  0.542472858531136     
 delta_qm =   0.572764E-02 delta_en =   0.255098E+02 tol =   0.100000E-04
 Iteration #         15
  pAp =   0.109593593481663       rzold =   7.042876144777325E-003  alpha = 
  6.426357527874781E-002
 delta_qm =   0.543158E-02 delta_en =   0.229408E+02 tol =   0.100000E-04
 Iteration #         16
  pAp =   7.500124638659416E-003  rzold =   2.393508273549639E-003  alpha = 
  0.319129133029642     
 delta_qm =   0.419806E-02 delta_en =   0.137042E+02 tol =   0.100000E-04
 Iteration #         17
  pAp =   1.764543801337931E-003  rzold =   8.926344647803000E-004  alpha = 
  0.505872659042795     
 delta_qm =   0.194400E-02 delta_en =   0.293865E+01 tol =   0.100000E-04
 Iteration #         18
  pAp =   7.074928986679438E-004  rzold =   3.427557830231166E-004  alpha = 
  0.484465333388436     
 delta_qm =   0.977473E-03 delta_en =   0.742960E+00 tol =   0.100000E-04
 Iteration #         19
  pAp =   9.639098717749760E-005  rzold =   6.528436176281807E-005  alpha = 
  0.677286992015148     
 delta_qm =   0.615199E-03 delta_en =   0.294298E+00 tol =   0.100000E-04
 Iteration #         20
  pAp =   3.647271901304045E-005  rzold =   2.107878142693148E-005  alpha = 
  0.577932822046938     
 delta_qm =   0.308606E-03 delta_en =   0.740567E-01 tol =   0.100000E-04
 Iteration #         21
  pAp =   1.514025993044408E-005  rzold =   7.763769438826313E-006  alpha = 
  0.512789706021817     
 delta_qm =   0.159444E-03 delta_en =   0.197684E-01 tol =   0.100000E-04
 Iteration #         22
  pAp =   2.755841843767342E-006  rzold =   1.671240662721922E-006  alpha = 
  0.606435622022950     
 delta_qm =   0.688379E-04 delta_en =   0.368477E-02 tol =   0.100000E-04
 Iteration #         23
  pAp =   1.516909641891936E-006  rzold =   5.576934041068968E-007  alpha = 
  0.367651037810878     
 delta_qm =   0.474104E-04 delta_en =   0.174784E-02 tol =   0.100000E-04
 Iteration #         24
  pAp =   4.349140060990734E-006  rzold =   5.828262826555452E-007  alpha = 
  0.134009545446273     
 delta_qm =   0.336196E-04 delta_en =   0.878902E-03 tol =   0.100000E-04
 Iteration #         25
  pAp =   1.480879165459062E-007  rzold =   7.894755924891444E-008  alpha = 
  0.533112769024887     
 delta_qm =   0.172572E-04 delta_en =   0.231578E-03 tol =   0.100000E-04
 Iteration #         26
  pAp =   4.826834687938854E-008  rzold =   2.275760842841260E-008  alpha = 
  0.471480999448326     
 delta_qm =   0.965997E-05 delta_en =   0.725617E-04 tol =   0.100000E-04
 Iteration #         27
  pAp =   1.422110340063634E-007  rzold =   1.348461606007042E-008  alpha = 
  9.482116598257097E-002
 delta_qm =   0.811863E-05 delta_en =   0.512532E-04 tol =   0.100000E-04
 Iteration #         28
  pAp =   6.405927372298300E-008  rzold =   1.557031058174936E-008  alpha = 
  0.243060991435547     
 delta_qm =   0.425386E-05 delta_en =   0.140709E-04 tol =   0.100000E-04
 Iteration #         29
  pAp =   2.718254748337547E-009  rzold =   1.537651353386517E-009  alpha = 
  0.565675955988646     
 delta_qm =   0.250492E-05 delta_en =   0.487916E-05 tol =   0.100000E-04
 Charges are converged, EXIT

%%%% DENSITY %%%%%%%%%%%%%%%%%%%%%%%%%%%%%%%%%%%%%%%%%%%%%%%%%%%%%%%%%%%%%%%%%%%
 density label              = velectrostatic                                                                  
 integral of density        =     0.3284296249E-11

%%%% CHARGES %%%%%%%%%%%%%%%%%%%%%%%%%%%%%%%%%%%%%%%%%%%%%%%%%%%%%%%%%%%%%%%%%%%
 total number of charges    =         99
 total charge               =     -1.0000000

%%%% DENSITY %%%%%%%%%%%%%%%%%%%%%%%%%%%%%%%%%%%%%%%%%%%%%%%%%%%%%%%%%%%%%%%%%%%
 density label              = vsoftcavity                                                                     
 integral of density        =      72.37248990    

%%%% ELECTRONS %%%%%%%%%%%%%%%%%%%%%%%%%%%%%%%%%%%%%%%%%%%%%%%%%%%%%%%%%%%%%%%%%
 number of electrons        =         89
 total electronic charge    =     89.0000000
 number of spin components  =  1

%%%% BOUNDARY %%%%%%%%%%%%%%%%%%%%%%%%%%%%%%%%%%%%%%%%%%%%%%%%%%%%%%%%%%%%%%%%%%
 boundary label             = solvent              
 boundary mode              = full                 
 boundary is built as a function of a smooth density
 function type              =  2 
 using the modified SCCS function with parameters 
 rhomax                     =      0.0050000 
 rhomin                     =      0.0001000 
 volume of the QM region    =   1477.2167773 
 surface of the QM region   =    281.1905449 

%%%% DIELECTRIC %%%%%%%%%%%%%%%%%%%%%%%%%%%%%%%%%%%%%%%%%%%%%%%%%%%%%%%%%%%%%%%%%
 dielectric build on homogeneous background
 environment bulk permitt.  =    100.0000000 
 dielectric flags
 need gradient              =  F 
 need factor depend. sqrt   =  T 
 total dielectric charge    =      0.0169287

%%%% DENSITY %%%%%%%%%%%%%%%%%%%%%%%%%%%%%%%%%%%%%%%%%%%%%%%%%%%%%%%%%%%%%%%%%%%
 density label              = vreference                                                                      
 integral of density        =    -0.2380099840E-12

%%%% COMPUTE ELECTROSTATIC POTENTIAL %%%%%%%%%%%%%%%%%%%%%%%%%%%%%%%%%%%%%%%%%%%
 Warning: bad guess with residual norm =   0.361022E+04, reset to no guess
 Iteration #          1
  pAp =    1270.75637929778       rzold =    1269.96956660507       alpha = 
  0.999380831207670     
 delta_qm =   0.680960E-01 delta_en =   0.360578E+04 tol =   0.100000E-04
 Iteration #          2
  pAp =    233.145915315084       rzold =    11.5061668595061       alpha = 
  4.935178402742368E-002
 delta_qm =   0.631835E-01 delta_en =   0.310430E+04 tol =   0.100000E-04
 Iteration #          3
  pAp =    21.3559386684114       rzold =    2.20942158603507       alpha = 
  0.103457011201438     
 delta_qm =   0.438712E-01 delta_en =   0.149663E+04 tol =   0.100000E-04
 Iteration #          4
  pAp =   8.203116783582597E-002  rzold =   7.826766276769481E-002  alpha = 
  0.954121035120903     
 delta_qm =   0.173915E-01 delta_en =   0.235196E+03 tol =   0.100000E-04
 Iteration #          5
  pAp =    1.85993868890013       rzold =   0.353088844069733       alpha = 
  0.189838969519222     
 delta_qm =   0.165116E-01 delta_en =   0.211999E+03 tol =   0.100000E-04
 Iteration #          6
  pAp =   0.432069896366244       rzold =   0.184799172453647       alpha = 
  0.427706660445055     
 delta_qm =   0.127250E-01 delta_en =   0.125913E+03 tol =   0.100000E-04
 Iteration #          7
  pAp =   0.114423290376346       rzold =   5.250811651436189E-002  alpha = 
  0.458893607600857     
 delta_qm =   0.100056E-01 delta_en =   0.778472E+02 tol =   0.100000E-04
 Iteration #          8
  pAp =   3.400409448755228E-002  rzold =   1.795067076818460E-002  alpha = 
  0.527897332327309     
 delta_qm =   0.901355E-02 delta_en =   0.631753E+02 tol =   0.100000E-04
 Iteration #          9
  pAp =   6.935396379387760E-003  rzold =   6.315855158635014E-003  alpha = 
  0.910669673820801     
 delta_qm =   0.667994E-02 delta_en =   0.346978E+02 tol =   0.100000E-04
 Iteration #         10
  pAp =   1.097254310754022E-002  rzold =   6.894094307678497E-003  alpha = 
  0.628304144272712     
 delta_qm =   0.355756E-02 delta_en =   0.984151E+01 tol =   0.100000E-04
 Iteration #         11
  pAp =   7.998694401491707E-003  rzold =   2.789662878789083E-003  alpha = 
  0.348764778195405     
 delta_qm =   0.275939E-02 delta_en =   0.592083E+01 tol =   0.100000E-04
 Iteration #         12
  pAp =   2.535932070653118E-003  rzold =   7.965072100477089E-004  alpha = 
  0.314088543327019     
 delta_qm =   0.222921E-02 delta_en =   0.386420E+01 tol =   0.100000E-04
 Iteration #         13
  pAp =   3.546399055524130E-004  rzold =   2.592184157610297E-004  alpha = 
  0.730934143909305     
 delta_qm =   0.147656E-02 delta_en =   0.169534E+01 tol =   0.100000E-04
 Iteration #         14
  pAp =   3.335721835438685E-004  rzold =   2.362072695322317E-004  alpha = 
  0.708114408769842     
 delta_qm =   0.181547E-02 delta_en =   0.256292E+01 tol =   0.100000E-04
 Iteration #         15
  pAp =   6.782264375099423E-004  rzold =   3.649994484169038E-004  alpha = 
  0.538167532597184     
 delta_qm =   0.232742E-02 delta_en =   0.421218E+01 tol =   0.100000E-04
 Iteration #         16
  pAp =   4.429915122667915E-003  rzold =   4.280476893965801E-004  alpha = 
  9.662661192000187E-002
 delta_qm =   0.239244E-02 delta_en =   0.445081E+01 tol =   0.100000E-04
 Iteration #         17
  pAp =   1.549489443695543E-003  rzold =   5.543318635018077E-004  alpha = 
  0.357751300441081     
 delta_qm =   0.169513E-02 delta_en =   0.223440E+01 tol =   0.100000E-04
 Iteration #         18
  pAp =   4.898588436286999E-004  rzold =   2.614485993106491E-004  alpha = 
  0.533722321667056     
 delta_qm =   0.828469E-03 delta_en =   0.533714E+00 tol =   0.100000E-04
 Iteration #         19
  pAp =   1.353115323497528E-004  rzold =   8.089248833384756E-005  alpha = 
  0.597824050390302     
 delta_qm =   0.599631E-03 delta_en =   0.279592E+00 tol =   0.100000E-04
 Iteration #         20
  pAp =   6.472295141354526E-005  rzold =   3.418432300373783E-005  alpha = 
  0.528163846937668     
 delta_qm =   0.397456E-03 delta_en =   0.122838E+00 tol =   0.100000E-04
 Iteration #         21
  pAp =   1.312920647474267E-005  rzold =   8.712898606809765E-006  alpha = 
  0.663627205769916     
 delta_qm =   0.178241E-03 delta_en =   0.247044E-01 tol =   0.100000E-04
 Iteration #         22
  pAp =   3.509901182280487E-006  rzold =   2.113288820005962E-006  alpha = 
  0.602093537753931     
 delta_qm =   0.743799E-04 delta_en =   0.430197E-02 tol =   0.100000E-04
 Iteration #         23
  pAp =   1.565278207527165E-006  rzold =   6.646054282857211E-007  alpha = 
  0.424592526165472     
 delta_qm =   0.466903E-04 delta_en =   0.169516E-02 tol =   0.100000E-04
 Iteration #         24
  pAp =   5.787262739868853E-006  rzold =   7.081213306177646E-007  alpha = 
  0.122358593768254     
 delta_qm =   0.397339E-04 delta_en =   0.122766E-02 tol =   0.100000E-04
 Iteration #         25
  pAp =   2.129716629568775E-007  rzold =   1.136469581085545E-007  alpha = 
  0.533624786183717     
 delta_qm =   0.218146E-04 delta_en =   0.370042E-03 tol =   0.100000E-04
 Iteration #         26
  pAp =   6.530495584769137E-008  rzold =   3.544385315977160E-008  alpha = 
  0.542743696855659     
 delta_qm =   0.116422E-04 delta_en =   0.105397E-03 tol =   0.100000E-04
 Iteration #         27
  pAp =   3.286504648001716E-008  rzold =   1.793813147358750E-008  alpha = 
  0.545811839471895     
 delta_qm =   0.836744E-05 delta_en =   0.544429E-04 tol =   0.100000E-04
 Iteration #         28
  pAp =   2.831327886287311E-008  rzold =   6.330851748307129E-009  alpha = 
  0.223600091637875     
 delta_qm =   0.797415E-05 delta_en =   0.494453E-04 tol =   0.100000E-04
 Iteration #         29
  pAp =   1.782206030408802E-007  rzold =   2.033755430004951E-008  alpha = 
  0.114114496040531     
 delta_qm =   0.524357E-05 delta_en =   0.213801E-04 tol =   0.100000E-04
 Iteration #         30
  pAp =   3.170336243217795E-009  rzold =   1.908527440528318E-009  alpha = 
  0.601995275615062     
 delta_qm =   0.314008E-05 delta_en =   0.766723E-05 tol =   0.100000E-04
 Charges are converged, EXIT

%%%% DENSITY %%%%%%%%%%%%%%%%%%%%%%%%%%%%%%%%%%%%%%%%%%%%%%%%%%%%%%%%%%%%%%%%%%%
 density label              = velectrostatic                                                                  
 integral of density        =    -0.5910887113E-11

%%%% CHARGES %%%%%%%%%%%%%%%%%%%%%%%%%%%%%%%%%%%%%%%%%%%%%%%%%%%%%%%%%%%%%%%%%%%
 total number of charges    =         99
 total charge               =     -1.0000000

%%%% DENSITY %%%%%%%%%%%%%%%%%%%%%%%%%%%%%%%%%%%%%%%%%%%%%%%%%%%%%%%%%%%%%%%%%%%
 density label              = vsoftcavity                                                                     
 integral of density        =      67.29889987    

%%%% ELECTRONS %%%%%%%%%%%%%%%%%%%%%%%%%%%%%%%%%%%%%%%%%%%%%%%%%%%%%%%%%%%%%%%%%
 number of electrons        =         89
 total electronic charge    =     89.0000000
 number of spin components  =  1

%%%% BOUNDARY %%%%%%%%%%%%%%%%%%%%%%%%%%%%%%%%%%%%%%%%%%%%%%%%%%%%%%%%%%%%%%%%%%
 boundary label             = solvent              
 boundary mode              = full                 
 boundary is built as a function of a smooth density
 function type              =  2 
 using the modified SCCS function with parameters 
 rhomax                     =      0.0050000 
 rhomin                     =      0.0001000 
 volume of the QM region    =   1468.0445523 
 surface of the QM region   =    270.9123588 

%%%% DIELECTRIC %%%%%%%%%%%%%%%%%%%%%%%%%%%%%%%%%%%%%%%%%%%%%%%%%%%%%%%%%%%%%%%%%
 dielectric build on homogeneous background
 environment bulk permitt.  =    100.0000000 
 dielectric flags
 need gradient              =  F 
 need factor depend. sqrt   =  T 
 total dielectric charge    =      0.0123332

%%%% DENSITY %%%%%%%%%%%%%%%%%%%%%%%%%%%%%%%%%%%%%%%%%%%%%%%%%%%%%%%%%%%%%%%%%%%
 density label              = vreference                                                                      
 integral of density        =     0.9231445825E-12

%%%% COMPUTE ELECTROSTATIC POTENTIAL %%%%%%%%%%%%%%%%%%%%%%%%%%%%%%%%%%%%%%%%%%%
 Warning: bad guess with residual norm =   0.290308E+04, reset to no guess
 Iteration #          1
  pAp =    1270.19886657913       rzold =    1269.26821682632       alpha = 
  0.999267319647896     
 delta_qm =   0.610570E-01 delta_en =   0.289886E+04 tol =   0.100000E-04
 Iteration #          2
  pAp =    313.731698181903       rzold =    14.8040938336934       alpha = 
  4.718711535839103E-002
 delta_qm =   0.475037E-01 delta_en =   0.175474E+04 tol =   0.100000E-04
 Iteration #          3
  pAp =    20.5407069480876       rzold =    2.20283751010374       alpha = 
  0.107242536280322     
 delta_qm =   0.354144E-01 delta_en =   0.975251E+03 tol =   0.100000E-04
 Iteration #          4
  pAp =   0.358500254160351       rzold =   9.999003471961271E-002  alpha = 
  0.278912033002043     
 delta_qm =   0.240357E-01 delta_en =   0.449232E+03 tol =   0.100000E-04
 Iteration #          5
  pAp =   0.356874957350308       rzold =   0.194348368714287       alpha = 
  0.544583935385287     
 delta_qm =   0.148149E-01 delta_en =   0.170669E+03 tol =   0.100000E-04
 Iteration #          6
  pAp =   0.338788336643637       rzold =   0.162210922648036       alpha = 
  0.478797246254263     
 delta_qm =   0.803718E-02 delta_en =   0.502300E+02 tol =   0.100000E-04
 Iteration #          7
  pAp =   9.914126004514440E-002  rzold =   4.271120726892372E-002  alpha = 
  0.430811624236720     
 delta_qm =   0.776999E-02 delta_en =   0.469458E+02 tol =   0.100000E-04
 Iteration #          8
  pAp =   2.322194972932779E-002  rzold =   1.378775979674707E-002  alpha = 
  0.593738250123505     
 delta_qm =   0.703143E-02 delta_en =   0.384453E+02 tol =   0.100000E-04
 Iteration #          9
  pAp =   6.549499356336297E-003  rzold =   5.912641521456406E-003  alpha = 
  0.902762363925761     
 delta_qm =   0.516680E-02 delta_en =   0.207587E+02 tol =   0.100000E-04
 Iteration #         10
  pAp =   8.729340329202081E-003  rzold =   6.175022032137331E-003  alpha = 
  0.707387018865579     
 delta_qm =   0.279238E-02 delta_en =   0.606323E+01 tol =   0.100000E-04
 Iteration #         11
  pAp =   6.251083934651318E-003  rzold =   2.912368281127883E-003  alpha = 
  0.465898124481084     
 delta_qm =   0.264772E-02 delta_en =   0.545129E+01 tol =   0.100000E-04
 Iteration #         12
  pAp =   1.477073155316046E-003  rzold =   7.920878978167454E-004  alpha = 
  0.536255022282403     
 delta_qm =   0.237544E-02 delta_en =   0.438777E+01 tol =   0.100000E-04
 Iteration #         13
  pAp =   1.255312614323405E-003  rzold =   8.542492427473157E-004  alpha = 
  0.680507176459581     
 delta_qm =   0.204652E-02 delta_en =   0.325677E+01 tol =   0.100000E-04
 Iteration #         14
  pAp =   1.311155408093631E-003  rzold =   1.143196206424941E-003  alpha = 
  0.871899852121347     
 delta_qm =   0.253638E-02 delta_en =   0.500248E+01 tol =   0.100000E-04
 Iteration #         15
  pAp =   1.185648735166782E-002  rzold =   1.519660665227169E-003  alpha = 
  0.128171238255772     
 delta_qm =   0.244447E-02 delta_en =   0.464648E+01 tol =   0.100000E-04
 Iteration #         16
  pAp =   1.771575421230666E-002  rzold =   2.475310658186132E-003  alpha = 
  0.139723696125034     
 delta_qm =   0.224892E-02 delta_en =   0.393281E+01 tol =   0.100000E-04
 Iteration #         17
  pAp =   9.381793223196639E-004  rzold =   4.086873075893723E-004  alpha = 
  0.435617475110074     
 delta_qm =   0.141640E-02 delta_en =   0.156001E+01 tol =   0.100000E-04
 Iteration #         18
  pAp =   6.224819130845540E-004  rzold =   2.501309694839017E-004  alpha = 
  0.401828493689785     
 delta_qm =   0.652684E-03 delta_en =   0.331255E+00 tol =   0.100000E-04
 Iteration #         19
  pAp =   1.123592069892360E-004  rzold =   6.359255521988841E-005  alpha = 
  0.565975472094428     
 delta_qm =   0.415143E-03 delta_en =   0.134014E+00 tol =   0.100000E-04
 Iteration #         20
  pAp =   3.826858367274029E-005  rzold =   2.167519911481678E-005  alpha = 
  0.566396689780202     
 delta_qm =   0.297747E-03 delta_en =   0.689370E-01 tol =   0.100000E-04
 Iteration #         21
  pAp =   9.599252581039733E-006  rzold =   6.147807318132376E-006  alpha = 
  0.640446458328997     
 delta_qm =   0.120386E-03 delta_en =   0.112696E-01 tol =   0.100000E-04
 Iteration #         22
  pAp =   3.946760382914262E-006  rzold =   1.409514417286965E-006  alpha = 
  0.357131997014267     
 delta_qm =   0.655247E-04 delta_en =   0.333861E-02 tol =   0.100000E-04
 Iteration #         23
  pAp =   9.224244043572331E-006  rzold =   1.319400174662848E-006  alpha = 
  0.143036130487271     
 delta_qm =   0.470992E-04 delta_en =   0.172498E-02 tol =   0.100000E-04
 Iteration #         24
  pAp =   9.135206922295151E-007  rzold =   4.027284365857714E-007  alpha = 
  0.440853108212451     
 delta_qm =   0.301086E-04 delta_en =   0.704915E-03 tol =   0.100000E-04
 Iteration #         25
  pAp =   1.978296393747721E-007  rzold =   1.326869389538600E-007  alpha = 
  0.670713141737551     
 delta_qm =   0.250551E-04 delta_en =   0.488146E-03 tol =   0.100000E-04
 Iteration #         26
  pAp =   8.488475203330606E-008  rzold =   5.465474326060595E-008  alpha = 
  0.643869976072513     
 delta_qm =   0.150765E-04 delta_en =   0.176749E-03 tol =   0.100000E-04
 Iteration #         27
  pAp =   3.861537971810300E-008  rzold =   2.455148626231698E-008  alpha = 
  0.635795541609220     
 delta_qm =   0.675681E-05 delta_en =   0.355009E-04 tol =   0.100000E-04
 Iteration #         28
  pAp =   4.480550418548901E-007  rzold =   2.340806541713083E-008  alpha = 
  5.224372728900551E-002
 delta_qm =   0.620842E-05 delta_en =   0.299722E-04 tol =   0.100000E-04
 Iteration #         29
  pAp =   1.430045228090444E-008  rzold =   6.446404007426339E-009  alpha = 
  0.450783225649044     
 delta_qm =   0.388711E-05 delta_en =   0.117492E-04 tol =   0.100000E-04
 Iteration #         30
  pAp =   2.894071166443386E-009  rzold =   1.503544477755166E-009  alpha = 
  0.519525744628774     
 delta_qm =   0.223094E-05 delta_en =   0.387020E-05 tol =   0.100000E-04
 Charges are converged, EXIT

%%%% DENSITY %%%%%%%%%%%%%%%%%%%%%%%%%%%%%%%%%%%%%%%%%%%%%%%%%%%%%%%%%%%%%%%%%%%
 density label              = velectrostatic                                                                  
 integral of density        =    -0.2770137566E-11

%%%% CHARGES %%%%%%%%%%%%%%%%%%%%%%%%%%%%%%%%%%%%%%%%%%%%%%%%%%%%%%%%%%%%%%%%%%%
 total number of charges    =         99
 total charge               =     -1.0000000

%%%% DENSITY %%%%%%%%%%%%%%%%%%%%%%%%%%%%%%%%%%%%%%%%%%%%%%%%%%%%%%%%%%%%%%%%%%%
 density label              = vsoftcavity                                                                     
 integral of density        =      58.05498596    

%%%% ELECTRONS %%%%%%%%%%%%%%%%%%%%%%%%%%%%%%%%%%%%%%%%%%%%%%%%%%%%%%%%%%%%%%%%%
 number of electrons        =         89
 total electronic charge    =     89.0000000
 number of spin components  =  1

%%%% BOUNDARY %%%%%%%%%%%%%%%%%%%%%%%%%%%%%%%%%%%%%%%%%%%%%%%%%%%%%%%%%%%%%%%%%%
 boundary label             = solvent              
 boundary mode              = full                 
 boundary is built as a function of a smooth density
 function type              =  2 
 using the modified SCCS function with parameters 
 rhomax                     =      0.0050000 
 rhomin                     =      0.0001000 
 volume of the QM region    =   1468.9941719 
 surface of the QM region   =    270.8074904 

%%%% DIELECTRIC %%%%%%%%%%%%%%%%%%%%%%%%%%%%%%%%%%%%%%%%%%%%%%%%%%%%%%%%%%%%%%%%%
 dielectric build on homogeneous background
 environment bulk permitt.  =    100.0000000 
 dielectric flags
 need gradient              =  F 
 need factor depend. sqrt   =  T 
 total dielectric charge    =      0.0071616

%%%% DENSITY %%%%%%%%%%%%%%%%%%%%%%%%%%%%%%%%%%%%%%%%%%%%%%%%%%%%%%%%%%%%%%%%%%%
 density label              = vreference                                                                      
 integral of density        =     0.1920737503E-12

%%%% COMPUTE ELECTROSTATIC POTENTIAL %%%%%%%%%%%%%%%%%%%%%%%%%%%%%%%%%%%%%%%%%%%
 Warning: bad guess with residual norm =   0.321074E+04, reset to no guess
 Iteration #          1
  pAp =    1270.81254455490       rzold =    1269.70833309813       alpha = 
  0.999131098082485     
 delta_qm =   0.642024E-01 delta_en =   0.320522E+04 tol =   0.100000E-04
 Iteration #          2
  pAp =    422.311268201047       rzold =    19.0262207950860       alpha = 
  4.505260036307691E-002
 delta_qm =   0.478838E-01 delta_en =   0.178293E+04 tol =   0.100000E-04
 Iteration #          3
  pAp =    19.0274229612258       rzold =    2.15523221175709       alpha = 
  0.113269790457123     
 delta_qm =   0.360300E-01 delta_en =   0.100945E+04 tol =   0.100000E-04
 Iteration #          4
  pAp =   0.391086519799243       rzold =   0.102585336493690       alpha = 
  0.262308546319497     
 delta_qm =   0.246047E-01 delta_en =   0.470754E+03 tol =   0.100000E-04
 Iteration #          5
  pAp =   0.314285446815933       rzold =   0.184969331204620       alpha = 
  0.588539281976205     
 delta_qm =   0.142953E-01 delta_en =   0.158907E+03 tol =   0.100000E-04
 Iteration #          6
  pAp =   0.327726598879293       rzold =   0.156942757705723       alpha = 
  0.478883185687128     
 delta_qm =   0.888005E-02 delta_en =   0.613178E+02 tol =   0.100000E-04
 Iteration #          7
  pAp =   9.708698556062080E-002  rzold =   4.229112785112746E-002  alpha = 
  0.435600380493027     
 delta_qm =   0.856530E-02 delta_en =   0.570481E+02 tol =   0.100000E-04
 Iteration #          8
  pAp =   2.308655641831993E-002  rzold =   1.434531060562174E-002  alpha = 
  0.621370738263861     
 delta_qm =   0.759748E-02 delta_en =   0.448844E+02 tol =   0.100000E-04
 Iteration #          9
  pAp =   7.215306784578222E-003  rzold =   7.024506579692384E-003  alpha = 
  0.973556189558890     
 delta_qm =   0.569781E-02 delta_en =   0.252448E+02 tol =   0.100000E-04
 Iteration #         10
  pAp =   1.226697050400589E-002  rzold =   8.399302880356061E-003  alpha = 
  0.684708818498682     
 delta_qm =   0.359685E-02 delta_en =   0.100601E+02 tol =   0.100000E-04
 Iteration #         11
  pAp =   1.195280536093142E-002  rzold =   4.859505792062400E-003  alpha = 
  0.406557761573365     
 delta_qm =   0.365117E-02 delta_en =   0.103662E+02 tol =   0.100000E-04
 Iteration #         12
  pAp =   4.505085875502329E-003  rzold =   1.956538921344313E-003  alpha = 
  0.434295588455604     
 delta_qm =   0.347576E-02 delta_en =   0.939410E+01 tol =   0.100000E-04
 Iteration #         13
  pAp =   1.274181463841966E-003  rzold =   1.360912853341298E-003  alpha = 
   1.06806831833655     
 delta_qm =   0.289088E-02 delta_en =   0.649855E+01 tol =   0.100000E-04
 Iteration #         14
  pAp =   3.129976047587206E-003  rzold =   2.170907112616503E-003  alpha = 
  0.693585854847031     
 delta_qm =   0.287925E-02 delta_en =   0.644635E+01 tol =   0.100000E-04
 Iteration #         15
  pAp =   0.100994041101987       rzold =   6.238677190866509E-003  alpha = 
  6.177272562612378E-002
 delta_qm =   0.305376E-02 delta_en =   0.725149E+01 tol =   0.100000E-04
 Iteration #         16
  pAp =   8.216715164975448E-003  rzold =   2.142697220965795E-003  alpha = 
  0.260772970456522     
 delta_qm =   0.263669E-02 delta_en =   0.540596E+01 tol =   0.100000E-04
 Iteration #         17
  pAp =   1.401869914548906E-003  rzold =   5.962399250212878E-004  alpha = 
  0.425317583916583     
 delta_qm =   0.166046E-02 delta_en =   0.214393E+01 tol =   0.100000E-04
 Iteration #         18
  pAp =   5.348239934321409E-004  rzold =   2.630327030789394E-004  alpha = 
  0.491811710598420     
 delta_qm =   0.660061E-03 delta_en =   0.338785E+00 tol =   0.100000E-04
 Iteration #         19
  pAp =   1.220409598120483E-004  rzold =   6.982942755473611E-005  alpha = 
  0.572180255401780     
 delta_qm =   0.438671E-03 delta_en =   0.149635E+00 tol =   0.100000E-04
 Iteration #         20
  pAp =   4.297146469496560E-005  rzold =   2.451927852261024E-005  alpha = 
  0.570594432762792     
 delta_qm =   0.316140E-03 delta_en =   0.777167E-01 tol =   0.100000E-04
 Iteration #         21
  pAp =   1.034145610606455E-005  rzold =   6.895707680223733E-006  alpha = 
  0.666802393154275     
 delta_qm =   0.126822E-03 delta_en =   0.125067E-01 tol =   0.100000E-04
 Iteration #         22
  pAp =   2.477960230192510E-006  rzold =   1.408292184391601E-006  alpha = 
  0.568327193968804     
 delta_qm =   0.619256E-04 delta_en =   0.298192E-02 tol =   0.100000E-04
 Iteration #         23
  pAp =   6.269937824145584E-006  rzold =   9.914413403520053E-007  alpha = 
  0.158126183729280     
 delta_qm =   0.506364E-04 delta_en =   0.199380E-02 tol =   0.100000E-04
 Iteration #         24
  pAp =   1.572896724844923E-006  rzold =   6.344250999054838E-007  alpha = 
  0.403348223620997     
 delta_qm =   0.421243E-04 delta_en =   0.137982E-02 tol =   0.100000E-04
 Iteration #         25
  pAp =   2.911105186256680E-007  rzold =   1.922030615299189E-007  alpha = 
  0.660240868098168     
 delta_qm =   0.297941E-04 delta_en =   0.690268E-03 tol =   0.100000E-04
 Iteration #         26
  pAp =   1.276310061013049E-007  rzold =   7.504618040464475E-008  alpha = 
  0.587993330907994     
 delta_qm =   0.159990E-04 delta_en =   0.199042E-03 tol =   0.100000E-04
 Iteration #         27
  pAp =   9.071857894398521E-008  rzold =   3.678347137471725E-008  alpha = 
  0.405467896465061     
 delta_qm =   0.844231E-05 delta_en =   0.554215E-04 tol =   0.100000E-04
 Iteration #         28
  pAp =   1.256336987845149E-006  rzold =   6.452099889525930E-008  alpha = 
  5.135644299219811E-002
 delta_qm =   0.717936E-05 delta_en =   0.400800E-04 tol =   0.100000E-04
 Iteration #         29
  pAp =   1.372807589331348E-008  rzold =   6.664761419683374E-009  alpha = 
  0.485484016221791     
 delta_qm =   0.451217E-05 delta_en =   0.158317E-04 tol =   0.100000E-04
 Iteration #         30
  pAp =   3.154989735929440E-009  rzold =   1.717685920267430E-009  alpha = 
  0.544434709471855     
 delta_qm =   0.212115E-05 delta_en =   0.349865E-05 tol =   0.100000E-04
 Charges are converged, EXIT

%%%% DENSITY %%%%%%%%%%%%%%%%%%%%%%%%%%%%%%%%%%%%%%%%%%%%%%%%%%%%%%%%%%%%%%%%%%%
 density label              = velectrostatic                                                                  
 integral of density        =     0.8458418108E-11

%%%% CHARGES %%%%%%%%%%%%%%%%%%%%%%%%%%%%%%%%%%%%%%%%%%%%%%%%%%%%%%%%%%%%%%%%%%%
 total number of charges    =         99
 total charge               =     -1.0000000

%%%% DENSITY %%%%%%%%%%%%%%%%%%%%%%%%%%%%%%%%%%%%%%%%%%%%%%%%%%%%%%%%%%%%%%%%%%%
 density label              = vsoftcavity                                                                     
 integral of density        =      60.40339935    

%%%% ELECTRONS %%%%%%%%%%%%%%%%%%%%%%%%%%%%%%%%%%%%%%%%%%%%%%%%%%%%%%%%%%%%%%%%%
 number of electrons        =         89
 total electronic charge    =     89.0000000
 number of spin components  =  1

%%%% BOUNDARY %%%%%%%%%%%%%%%%%%%%%%%%%%%%%%%%%%%%%%%%%%%%%%%%%%%%%%%%%%%%%%%%%%
 boundary label             = solvent              
 boundary mode              = full                 
 boundary is built as a function of a smooth density
 function type              =  2 
 using the modified SCCS function with parameters 
 rhomax                     =      0.0050000 
 rhomin                     =      0.0001000 
 volume of the QM region    =   1469.9418628 
 surface of the QM region   =    270.4879071 

%%%% DIELECTRIC %%%%%%%%%%%%%%%%%%%%%%%%%%%%%%%%%%%%%%%%%%%%%%%%%%%%%%%%%%%%%%%%%
 dielectric build on homogeneous background
 environment bulk permitt.  =    100.0000000 
 dielectric flags
 need gradient              =  F 
 need factor depend. sqrt   =  T 
 total dielectric charge    =      0.0092379

%%%% DENSITY %%%%%%%%%%%%%%%%%%%%%%%%%%%%%%%%%%%%%%%%%%%%%%%%%%%%%%%%%%%%%%%%%%%
 density label              = vreference                                                                      
 integral of density        =    -0.1196627249E-11

%%%% COMPUTE ELECTROSTATIC POTENTIAL %%%%%%%%%%%%%%%%%%%%%%%%%%%%%%%%%%%%%%%%%%%
 Warning: bad guess with residual norm =   0.329085E+04, reset to no guess
 Iteration #          1
  pAp =    1271.30193128919       rzold =    1270.08406049940       alpha = 
  0.999042028679560     
 delta_qm =   0.649926E-01 delta_en =   0.328461E+04 tol =   0.100000E-04
 Iteration #          2
  pAp =    479.965615713217       rzold =    21.4443404629478       alpha = 
  4.467890982374236E-002
 delta_qm =   0.461865E-01 delta_en =   0.165877E+04 tol =   0.100000E-04
 Iteration #          3
  pAp =    18.8971981337050       rzold =    2.17933809597331       alpha = 
  0.115325990686749     
 delta_qm =   0.351549E-01 delta_en =   0.961012E+03 tol =   0.100000E-04
 Iteration #          4
  pAp =   0.480762014091254       rzold =   0.111532028448285       alpha = 
  0.231990101503975     
 delta_qm =   0.247133E-01 delta_en =   0.474918E+03 tol =   0.100000E-04
 Iteration #          5
  pAp =   0.256653504144199       rzold =   0.166405325316219       alpha = 
  0.648365686145963     
 delta_qm =   0.143817E-01 delta_en =   0.160833E+03 tol =   0.100000E-04
 Iteration #          6
  pAp =   0.322825386655085       rzold =   0.156989964458350       alpha = 
  0.486299934726268     
 delta_qm =   0.814207E-02 delta_en =   0.515497E+02 tol =   0.100000E-04
 Iteration #          7
  pAp =   9.619120563950918E-002  rzold =   4.099235733417083E-002  alpha = 
  0.426154938610456     
 delta_qm =   0.786408E-02 delta_en =   0.480897E+02 tol =   0.100000E-04
 Iteration #          8
  pAp =   2.100206750120199E-002  rzold =   1.314165533899693E-002  alpha = 
  0.625731506588330     
 delta_qm =   0.696647E-02 delta_en =   0.377383E+02 tol =   0.100000E-04
 Iteration #          9
  pAp =   7.188065704436705E-003  rzold =   6.442732469178231E-003  alpha = 
  0.896309624048312     
 delta_qm =   0.509941E-02 delta_en =   0.202207E+02 tol =   0.100000E-04
 Iteration #         10
  pAp =   1.131229941223279E-002  rzold =   7.147853964616826E-003  alpha = 
  0.631865698046088     
 delta_qm =   0.308307E-02 delta_en =   0.739132E+01 tol =   0.100000E-04
 Iteration #         11
  pAp =   1.293335548208823E-002  rzold =   4.797198489353941E-003  alpha = 
  0.370916773763600     
 delta_qm =   0.300062E-02 delta_en =   0.700128E+01 tol =   0.100000E-04
 Iteration #         12
  pAp =   3.537435951044358E-003  rzold =   1.645927207149437E-003  alpha = 
  0.465288200246710     
 delta_qm =   0.300987E-02 delta_en =   0.704452E+01 tol =   0.100000E-04
 Iteration #         13
  pAp =   8.070400944344620E-004  rzold =   9.204871585080642E-004  alpha = 
   1.14057178181847     
 delta_qm =   0.235366E-02 delta_en =   0.430769E+01 tol =   0.100000E-04
 Iteration #         14
  pAp =   2.164311925406779E-003  rzold =   1.603692989784579E-003  alpha = 
  0.740971285589145     
 delta_qm =   0.237010E-02 delta_en =   0.436806E+01 tol =   0.100000E-04
 Iteration #         15
  pAp =   1.011367988138063E-002  rzold =   2.019771051580122E-003  alpha = 
  0.199706840167894     
 delta_qm =   0.240832E-02 delta_en =   0.451009E+01 tol =   0.100000E-04
 Iteration #         16
  pAp =   4.882471580672417E-002  rzold =   3.640510738993480E-003  alpha = 
  7.456286593463604E-002
 delta_qm =   0.218558E-02 delta_en =   0.371442E+01 tol =   0.100000E-04
 Iteration #         17
  pAp =   1.033851131854042E-003  rzold =   4.639227990617148E-004  alpha = 
  0.448732689618229     
 delta_qm =   0.140564E-02 delta_en =   0.153640E+01 tol =   0.100000E-04
 Iteration #         18
  pAp =   3.629730484597700E-004  rzold =   1.923738793531857E-004  alpha = 
  0.529994940862689     
 delta_qm =   0.587950E-03 delta_en =   0.268805E+00 tol =   0.100000E-04
 Iteration #         19
  pAp =   1.007870181349387E-004  rzold =   5.760097831683453E-005  alpha = 
  0.571511881021378     
 delta_qm =   0.387106E-03 delta_en =   0.116524E+00 tol =   0.100000E-04
 Iteration #         20
  pAp =   3.394808651894155E-005  rzold =   1.934379450580531E-005  alpha = 
  0.569805149253768     
 delta_qm =   0.274271E-03 delta_en =   0.584948E-01 tol =   0.100000E-04
 Iteration #         21
  pAp =   7.783427615520973E-006  rzold =   5.188628613059112E-006  alpha = 
  0.666625151458008     
 delta_qm =   0.104852E-03 delta_en =   0.854888E-02 tol =   0.100000E-04
 Iteration #         22
  pAp =   1.778159689348761E-006  rzold =   1.061527903315923E-006  alpha = 
  0.596981198974711     
 delta_qm =   0.499113E-04 delta_en =   0.193711E-02 tol =   0.100000E-04
 Iteration #         23
  pAp =   6.245109198742516E-007  rzold =   3.861962566873799E-007  alpha = 
  0.618397924515303     
 delta_qm =   0.419845E-04 delta_en =   0.137067E-02 tol =   0.100000E-04
 Iteration #         24
  pAp =   2.667505545606688E-006  rzold =   3.949683516038043E-007  alpha = 
  0.148066553133997     
 delta_qm =   0.355412E-04 delta_en =   0.982245E-03 tol =   0.100000E-04
 Iteration #         25
  pAp =   4.160066772079840E-007  rzold =   2.052268927360876E-007  alpha = 
  0.493325958403989     
 delta_qm =   0.254947E-04 delta_en =   0.505426E-03 tol =   0.100000E-04
 Iteration #         26
  pAp =   7.369986445636956E-008  rzold =   4.904451373596143E-008  alpha = 
  0.665462739961969     
 delta_qm =   0.110551E-04 delta_en =   0.950345E-04 tol =   0.100000E-04
 Iteration #         27
  pAp =   4.390823762575011E-008  rzold =   1.941022681064367E-008  alpha = 
  0.442063445499359     
 delta_qm =   0.546576E-05 delta_en =   0.232304E-04 tol =   0.100000E-04
 Iteration #         28
  pAp =   3.540679712418258E-007  rzold =   1.851064772764974E-008  alpha = 
  5.227992710757536E-002
 delta_qm =   0.486034E-05 delta_en =   0.183692E-04 tol =   0.100000E-04
 Iteration #         29
  pAp =   1.072062821751700E-008  rzold =   4.170543056937520E-009  alpha = 
  0.389020398088523     
 delta_qm =   0.304272E-05 delta_en =   0.719913E-05 tol =   0.100000E-04
 Charges are converged, EXIT

%%%% DENSITY %%%%%%%%%%%%%%%%%%%%%%%%%%%%%%%%%%%%%%%%%%%%%%%%%%%%%%%%%%%%%%%%%%%
 density label              = velectrostatic                                                                  
 integral of density        =    -0.1404497810E-11

%%%% CHARGES %%%%%%%%%%%%%%%%%%%%%%%%%%%%%%%%%%%%%%%%%%%%%%%%%%%%%%%%%%%%%%%%%%%
 total number of charges    =         99
 total charge               =     -1.0000000

%%%% DENSITY %%%%%%%%%%%%%%%%%%%%%%%%%%%%%%%%%%%%%%%%%%%%%%%%%%%%%%%%%%%%%%%%%%%
 density label              = vsoftcavity                                                                     
 integral of density        =      59.54711544    

%%%% ELECTRONS %%%%%%%%%%%%%%%%%%%%%%%%%%%%%%%%%%%%%%%%%%%%%%%%%%%%%%%%%%%%%%%%%
 number of electrons        =         89
 total electronic charge    =     89.0000000
 number of spin components  =  1

%%%% BOUNDARY %%%%%%%%%%%%%%%%%%%%%%%%%%%%%%%%%%%%%%%%%%%%%%%%%%%%%%%%%%%%%%%%%%
 boundary label             = solvent              
 boundary mode              = full                 
 boundary is built as a function of a smooth density
 function type              =  2 
 using the modified SCCS function with parameters 
 rhomax                     =      0.0050000 
 rhomin                     =      0.0001000 
 volume of the QM region    =   1469.9645133 
 surface of the QM region   =    270.9019700 

%%%% DIELECTRIC %%%%%%%%%%%%%%%%%%%%%%%%%%%%%%%%%%%%%%%%%%%%%%%%%%%%%%%%%%%%%%%%%
 dielectric build on homogeneous background
 environment bulk permitt.  =    100.0000000 
 dielectric flags
 need gradient              =  F 
 need factor depend. sqrt   =  T 
 total dielectric charge    =      0.0043096

%%%% DENSITY %%%%%%%%%%%%%%%%%%%%%%%%%%%%%%%%%%%%%%%%%%%%%%%%%%%%%%%%%%%%%%%%%%%
 density label              = vreference                                                                      
 integral of density        =    -0.2410867267E-11

%%%% COMPUTE ELECTROSTATIC POTENTIAL %%%%%%%%%%%%%%%%%%%%%%%%%%%%%%%%%%%%%%%%%%%
 Warning: bad guess with residual norm =   0.329013E+04, reset to no guess
 Iteration #          1
  pAp =    1271.30129578446       rzold =    1270.04726169885       alpha = 
  0.999013582311473     
 delta_qm =   0.649837E-01 delta_en =   0.328371E+04 tol =   0.100000E-04
 Iteration #          2
  pAp =    502.875943878059       rzold =    22.3583528811489       alpha = 
  4.446097124616200E-002
 delta_qm =   0.453228E-01 delta_en =   0.159731E+04 tol =   0.100000E-04
 Iteration #          3
  pAp =    18.4747500566949       rzold =    2.14542689488413       alpha = 
  0.116127519360224     
 delta_qm =   0.349638E-01 delta_en =   0.950593E+03 tol =   0.100000E-04
 Iteration #          4
  pAp =   0.547749131863858       rzold =   0.117318339497210       alpha = 
  0.214182611477637     
 delta_qm =   0.248475E-01 delta_en =   0.480089E+03 tol =   0.100000E-04
 Iteration #          5
  pAp =   0.224359774395272       rzold =   0.154047817139209       alpha = 
  0.686610679451885     
 delta_qm =   0.144156E-01 delta_en =   0.161592E+03 tol =   0.100000E-04
 Iteration #          6
  pAp =   0.316064983213464       rzold =   0.155853900335459       alpha = 
  0.493107141293783     
 delta_qm =   0.828388E-02 delta_en =   0.533610E+02 tol =   0.100000E-04
 Iteration #          7
  pAp =   9.664258419705193E-002  rzold =   4.125952549022902E-002  alpha = 
  0.426929037887706     
 delta_qm =   0.803255E-02 delta_en =   0.501722E+02 tol =   0.100000E-04
 Iteration #          8
  pAp =   2.067704564599860E-002  rzold =   1.320672524981417E-002  alpha = 
  0.638714324856652     
 delta_qm =   0.708136E-02 delta_en =   0.389932E+02 tol =   0.100000E-04
 Iteration #          9
  pAp =   7.768292647311371E-003  rzold =   6.900957657458269E-003  alpha = 
  0.888349341453648     
 delta_qm =   0.530038E-02 delta_en =   0.218460E+02 tol =   0.100000E-04
 Iteration #         10
  pAp =   1.331231151623709E-002  rzold =   8.160675109398401E-003  alpha = 
  0.613017138266693     
 delta_qm =   0.335946E-02 delta_en =   0.877598E+01 tol =   0.100000E-04
 Iteration #         11
  pAp =   1.511414717615261E-002  rzold =   5.822302262004170E-003  alpha = 
  0.385222017103996     
 delta_qm =   0.329023E-02 delta_en =   0.841800E+01 tol =   0.100000E-04
 Iteration #         12
  pAp =   4.060780054481448E-003  rzold =   1.991520012193771E-003  alpha = 
  0.490427943763156     
 delta_qm =   0.328461E-02 delta_en =   0.838927E+01 tol =   0.100000E-04
 Iteration #         13
  pAp =   9.572547977447036E-004  rzold =   1.134066820364584E-003  alpha = 
   1.18470737679921     
 delta_qm =   0.254983E-02 delta_en =   0.505567E+01 tol =   0.100000E-04
 Iteration #         14
  pAp =   2.306476008249965E-003  rzold =   1.885012426276559E-003  alpha = 
  0.817269470627102     
 delta_qm =   0.252198E-02 delta_en =   0.494582E+01 tol =   0.100000E-04
 Iteration #         15
  pAp =   7.330480694243670E-003  rzold =   1.725581270109702E-003  alpha = 
  0.235398105811087     
 delta_qm =   0.234919E-02 delta_en =   0.429133E+01 tol =   0.100000E-04
 Iteration #         16
  pAp =   4.451370969036097E-002  rzold =   2.956827625494816E-003  alpha = 
  6.642510017840840E-002
 delta_qm =   0.212841E-02 delta_en =   0.352262E+01 tol =   0.100000E-04
 Iteration #         17
  pAp =   1.397055793579837E-003  rzold =   5.132956429848476E-004  alpha = 
  0.367412414982777     
 delta_qm =   0.139949E-02 delta_en =   0.152298E+01 tol =   0.100000E-04
 Iteration #         18
  pAp =   3.974588591387844E-004  rzold =   2.036803158613006E-004  alpha = 
  0.512456349073804     
 delta_qm =   0.593063E-03 delta_en =   0.273500E+00 tol =   0.100000E-04
 Iteration #         19
  pAp =   1.043362647758484E-004  rzold =   5.991588222588358E-005  alpha = 
  0.574257496706484     
 delta_qm =   0.390027E-03 delta_en =   0.118289E+00 tol =   0.100000E-04
 Iteration #         20
  pAp =   3.479463221234333E-005  rzold =   1.995733013470470E-005  alpha = 
  0.573574970211206     
 delta_qm =   0.275628E-03 delta_en =   0.590749E-01 tol =   0.100000E-04
 Iteration #         21
  pAp =   7.968012222954601E-006  rzold =   5.354077107040105E-006  alpha = 
  0.671946397323017     
 delta_qm =   0.109522E-03 delta_en =   0.932731E-02 tol =   0.100000E-04
 Iteration #         22
  pAp =   2.300762115964402E-006  rzold =   1.204833051845824E-006  alpha = 
  0.523666937788046     
 delta_qm =   0.609428E-04 delta_en =   0.288803E-02 tol =   0.100000E-04
 Iteration #         23
  pAp =   9.081131532625305E-006  rzold =   1.260523133070275E-006  alpha = 
  0.138806835749671     
 delta_qm =   0.492181E-04 delta_en =   0.188368E-02 tol =   0.100000E-04
 Iteration #         24
  pAp =   8.975553151740139E-007  rzold =   4.878787510076449E-007  alpha = 
  0.543563992947952     
 delta_qm =   0.418133E-04 delta_en =   0.135952E-02 tol =   0.100000E-04
 Iteration #         25
  pAp =   2.559803365410733E-007  rzold =   1.790387622472398E-007  alpha = 
  0.699423888047402     
 delta_qm =   0.264720E-04 delta_en =   0.544916E-03 tol =   0.100000E-04
 Iteration #         26
  pAp =   7.766131409851105E-008  rzold =   5.213830616692740E-008  alpha = 
  0.671354930986508     
 delta_qm =   0.107225E-04 delta_en =   0.894021E-04 tol =   0.100000E-04
 Iteration #         27
  pAp =   3.805322619366220E-008  rzold =   1.854248816707715E-008  alpha = 
  0.487277690272827     
 delta_qm =   0.515756E-05 delta_en =   0.206845E-04 tol =   0.100000E-04
 Iteration #         28
  pAp =   2.535899960717167E-008  rzold =   4.468891911414173E-009  alpha = 
  0.176225086976631     
 delta_qm =   0.439691E-05 delta_en =   0.150332E-04 tol =   0.100000E-04
 Iteration #         29
  pAp =   8.940054409484406E-008  rzold =   1.015341178163894E-008  alpha = 
  0.113572147512517     
 delta_qm =   0.305493E-05 delta_en =   0.725702E-05 tol =   0.100000E-04
 Charges are converged, EXIT

%%%% DENSITY %%%%%%%%%%%%%%%%%%%%%%%%%%%%%%%%%%%%%%%%%%%%%%%%%%%%%%%%%%%%%%%%%%%
 density label              = velectrostatic                                                                  
 integral of density        =    -0.3896828316E-11

%%%% CHARGES %%%%%%%%%%%%%%%%%%%%%%%%%%%%%%%%%%%%%%%%%%%%%%%%%%%%%%%%%%%%%%%%%%%
 total number of charges    =         99
 total charge               =     -1.0000000

%%%% DENSITY %%%%%%%%%%%%%%%%%%%%%%%%%%%%%%%%%%%%%%%%%%%%%%%%%%%%%%%%%%%%%%%%%%%
 density label              = vsoftcavity                                                                     
 integral of density        =      59.74169634    

%%%% ELECTRONS %%%%%%%%%%%%%%%%%%%%%%%%%%%%%%%%%%%%%%%%%%%%%%%%%%%%%%%%%%%%%%%%%
 number of electrons        =         89
 total electronic charge    =     89.0000000
 number of spin components  =  1

%%%% BOUNDARY %%%%%%%%%%%%%%%%%%%%%%%%%%%%%%%%%%%%%%%%%%%%%%%%%%%%%%%%%%%%%%%%%%
 boundary label             = solvent              
 boundary mode              = full                 
 boundary is built as a function of a smooth density
 function type              =  2 
 using the modified SCCS function with parameters 
 rhomax                     =      0.0050000 
 rhomin                     =      0.0001000 
 volume of the QM region    =   1469.8517300 
 surface of the QM region   =    271.3097461 

%%%% DIELECTRIC %%%%%%%%%%%%%%%%%%%%%%%%%%%%%%%%%%%%%%%%%%%%%%%%%%%%%%%%%%%%%%%%%
 dielectric build on homogeneous background
 environment bulk permitt.  =    100.0000000 
 dielectric flags
 need gradient              =  F 
 need factor depend. sqrt   =  T 
 total dielectric charge    =      0.0051790

%%%% DENSITY %%%%%%%%%%%%%%%%%%%%%%%%%%%%%%%%%%%%%%%%%%%%%%%%%%%%%%%%%%%%%%%%%%%
 density label              = vreference                                                                      
 integral of density        =    -0.4923263460E-11

%%%% COMPUTE ELECTROSTATIC POTENTIAL %%%%%%%%%%%%%%%%%%%%%%%%%%%%%%%%%%%%%%%%%%%
 Warning: bad guess with residual norm =   0.328023E+04, reset to no guess
 Iteration #          1
  pAp =    1271.19234077880       rzold =    1269.92477387115       alpha = 
  0.999002851994162     
 delta_qm =   0.648852E-01 delta_en =   0.327377E+04 tol =   0.100000E-04
 Iteration #          2
  pAp =    508.572994533236       rzold =    22.6265232432798       alpha = 
  4.449021770030526E-002
 delta_qm =   0.447801E-01 delta_en =   0.155929E+04 tol =   0.100000E-04
 Iteration #          3
  pAp =    18.5421371519215       rzold =    2.14666051016229       alpha = 
  0.115772011207448     
 delta_qm =   0.348726E-01 delta_en =   0.945639E+03 tol =   0.100000E-04
 Iteration #          4
  pAp =   0.620908760756828       rzold =   0.124065400888795       alpha = 
  0.199812611336924     
 delta_qm =   0.251009E-01 delta_en =   0.489931E+03 tol =   0.100000E-04
 Iteration #          5
  pAp =   0.199014070687007       rzold =   0.143923642090507       alpha = 
  0.723183248268199     
 delta_qm =   0.145992E-01 delta_en =   0.165735E+03 tol =   0.100000E-04
 Iteration #          6
  pAp =   0.312110062104795       rzold =   0.155521387978479       alpha = 
  0.498290208683694     
 delta_qm =   0.794340E-02 delta_en =   0.490647E+02 tol =   0.100000E-04
 Iteration #          7
  pAp =   9.786661385770411E-002  rzold =   4.131226798301275E-002  alpha = 
  0.422128306626404     
 delta_qm =   0.779136E-02 delta_en =   0.472045E+02 tol =   0.100000E-04
 Iteration #          8
  pAp =   2.002200588113831E-002  rzold =   1.281478198324684E-002  alpha = 
  0.640034872595806     
 delta_qm =   0.686080E-02 delta_en =   0.366021E+02 tol =   0.100000E-04
 Iteration #          9
  pAp =   7.627733539460246E-003  rzold =   6.646023651313568E-003  alpha = 
  0.871297301738709     
 delta_qm =   0.514350E-02 delta_en =   0.205719E+02 tol =   0.100000E-04
 Iteration #         10
  pAp =   1.300184649908982E-002  rzold =   7.768210766104872E-003  alpha = 
  0.597469810664868     
 delta_qm =   0.321024E-02 delta_en =   0.801367E+01 tol =   0.100000E-04
 Iteration #         11
  pAp =   1.428533666597267E-002  rzold =   5.591188771218504E-003  alpha = 
  0.391393559840741     
 delta_qm =   0.305793E-02 delta_en =   0.727130E+01 tol =   0.100000E-04
 Iteration #         12
  pAp =   3.808412013062693E-003  rzold =   1.869146520404514E-003  alpha = 
  0.490794198210020     
 delta_qm =   0.309600E-02 delta_en =   0.745345E+01 tol =   0.100000E-04
 Iteration #         13
  pAp =   8.848637242418944E-004  rzold =   1.021289324415072E-003  alpha = 
   1.15417696130561     
 delta_qm =   0.242718E-02 delta_en =   0.458099E+01 tol =   0.100000E-04
 Iteration #         14
  pAp =   2.290209871808618E-003  rzold =   1.721890805368130E-003  alpha = 
  0.751848477540760     
 delta_qm =   0.245833E-02 delta_en =   0.469932E+01 tol =   0.100000E-04
 Iteration #         15
  pAp =   6.394224249247608E-002  rzold =   4.138296725657947E-003  alpha = 
  6.471929297983083E-002
 delta_qm =   0.230246E-02 delta_en =   0.412231E+01 tol =   0.100000E-04
 Iteration #         16
  pAp =   7.246507120601207E-003  rzold =   1.777741569403237E-003  alpha = 
  0.245323925005092     
 delta_qm =   0.201926E-02 delta_en =   0.317060E+01 tol =   0.100000E-04
 Iteration #         17
  pAp =   1.165110271773036E-003  rzold =   4.606409211294449E-004  alpha = 
  0.395362509703440     
 delta_qm =   0.135363E-02 delta_en =   0.142480E+01 tol =   0.100000E-04
 Iteration #         18
  pAp =   3.435774570990013E-004  rzold =   1.840941525073221E-004  alpha = 
  0.535815574344494     
 delta_qm =   0.574784E-03 delta_en =   0.256901E+00 tol =   0.100000E-04
 Iteration #         19
  pAp =   9.829602757182810E-005  rzold =   5.724580034122657E-005  alpha = 
  0.582381625741643     
 delta_qm =   0.374481E-03 delta_en =   0.109048E+00 tol =   0.100000E-04
 Iteration #         20
  pAp =   3.281943096430725E-005  rzold =   1.882248331783198E-005  alpha = 
  0.573516443301603     
 delta_qm =   0.268080E-03 delta_en =   0.558837E-01 tol =   0.100000E-04
 Iteration #         21
  pAp =   7.406828059245606E-006  rzold =   5.000790236776241E-006  alpha = 
  0.675159487539876     
 delta_qm =   0.104023E-03 delta_en =   0.841426E-02 tol =   0.100000E-04
 Iteration #         22
  pAp =   1.824218346425024E-006  rzold =   1.111493881368580E-006  alpha = 
  0.609298707880451     
 delta_qm =   0.531711E-04 delta_en =   0.219840E-02 tol =   0.100000E-04
 Iteration #         23
  pAp =   1.628087444648293E-006  rzold =   5.204208428842186E-007  alpha = 
  0.319651652983935     
 delta_qm =   0.503445E-04 delta_en =   0.197088E-02 tol =   0.100000E-04
 Iteration #         24
  pAp =   3.975171060554308E-006  rzold =   8.606184562764866E-007  alpha = 
  0.216498470925294     
 delta_qm =   0.414064E-04 delta_en =   0.133319E-02 tol =   0.100000E-04
 Iteration #         25
  pAp =   2.819566316947853E-007  rzold =   1.875900629769863E-007  alpha = 
  0.665315307001008     
 delta_qm =   0.260862E-04 delta_en =   0.529151E-03 tol =   0.100000E-04
 Iteration #         26
  pAp =   7.929589484129040E-008  rzold =   4.975243387548967E-008  alpha = 
  0.627427611165350     
 delta_qm =   0.109477E-04 delta_en =   0.931972E-04 tol =   0.100000E-04
 Iteration #         27
  pAp =   1.990442870603366E-007  rzold =   2.380649851498917E-008  alpha = 
  0.119604028161696     
 delta_qm =   0.892107E-05 delta_en =   0.618857E-04 tol =   0.100000E-04
 Iteration #         28
  pAp =   2.240356124428354E-007  rzold =   3.699769731097534E-008  alpha = 
  0.165142036605522     
 delta_qm =   0.453777E-05 delta_en =   0.160118E-04 tol =   0.100000E-04
 Iteration #         29
  pAp =   6.893367330066462E-009  rzold =   3.281464289950646E-009  alpha = 
  0.476032123754387     
 delta_qm =   0.302445E-05 delta_en =   0.711295E-05 tol =   0.100000E-04
 Charges are converged, EXIT

%%%% DENSITY %%%%%%%%%%%%%%%%%%%%%%%%%%%%%%%%%%%%%%%%%%%%%%%%%%%%%%%%%%%%%%%%%%%
 density label              = velectrostatic                                                                  
 integral of density        =    -0.8276559574E-11

%%%% CHARGES %%%%%%%%%%%%%%%%%%%%%%%%%%%%%%%%%%%%%%%%%%%%%%%%%%%%%%%%%%%%%%%%%%%
 total number of charges    =         99
 total charge               =     -1.0000000

%%%% DENSITY %%%%%%%%%%%%%%%%%%%%%%%%%%%%%%%%%%%%%%%%%%%%%%%%%%%%%%%%%%%%%%%%%%%
 density label              = vsoftcavity                                                                     
 integral of density        =      59.19389796    

%%%% ELECTRONS %%%%%%%%%%%%%%%%%%%%%%%%%%%%%%%%%%%%%%%%%%%%%%%%%%%%%%%%%%%%%%%%%
 number of electrons        =         89
 total electronic charge    =     89.0000000
 number of spin components  =  1

%%%% BOUNDARY %%%%%%%%%%%%%%%%%%%%%%%%%%%%%%%%%%%%%%%%%%%%%%%%%%%%%%%%%%%%%%%%%%
 boundary label             = solvent              
 boundary mode              = full                 
 boundary is built as a function of a smooth density
 function type              =  2 
 using the modified SCCS function with parameters 
 rhomax                     =      0.0050000 
 rhomin                     =      0.0001000 
 volume of the QM region    =   1469.8517300 
 surface of the QM region   =    271.3097461 

%%%% DIELECTRIC %%%%%%%%%%%%%%%%%%%%%%%%%%%%%%%%%%%%%%%%%%%%%%%%%%%%%%%%%%%%%%%%%
 dielectric build on homogeneous background
 environment bulk permitt.  =    100.0000000 
 dielectric flags
 need gradient              =  F 
 need factor depend. sqrt   =  T 
 total dielectric charge    =      0.0037160

%%%% DENSITY %%%%%%%%%%%%%%%%%%%%%%%%%%%%%%%%%%%%%%%%%%%%%%%%%%%%%%%%%%%%%%%%%%%
 density label              = vreference                                                                      
 integral of density        =    -0.4923263460E-11

%%%% DENSITY %%%%%%%%%%%%%%%%%%%%%%%%%%%%%%%%%%%%%%%%%%%%%%%%%%%%%%%%%%%%%%%%%%%
 density label              = velectrostatic                                                                  
 integral of density        =    -0.8276559574E-11

%%%% CHARGES %%%%%%%%%%%%%%%%%%%%%%%%%%%%%%%%%%%%%%%%%%%%%%%%%%%%%%%%%%%%%%%%%%%
 total number of charges    =         99
 total charge               =     -1.0000000

%%%% DENSITY %%%%%%%%%%%%%%%%%%%%%%%%%%%%%%%%%%%%%%%%%%%%%%%%%%%%%%%%%%%%%%%%%%%
 density label              = vsoftcavity                                                                     
 integral of density        =      59.19389796    
