
     Program PWSCF v.6.4.1 starts on 24Apr2019 at 16:30:26 

     This program is part of the open-source Quantum ESPRESSO suite
     for quantum simulation of materials; please cite
         "P. Giannozzi et al., J. Phys.:Condens. Matter 21 395502 (2009);
         "P. Giannozzi et al., J. Phys.:Condens. Matter 29 465901 (2017);
          URL http://www.quantum-espresso.org", 
     in publications or presentations arising from this work. More details at
     http://www.quantum-espresso.org/quote

     Parallel version (MPI), running on     1 processors

     MPI processes distributed on     1 nodes
     Reading input from isolated.in

     Current dimensions of program PWSCF are:
     Max number of different atomic species (ntypx) = 10
     Max number of k-points (npk) =  40000
     Max angular momentum in pseudopotentials (lmaxx) =  3
               file C.pbe-rrkjus.UPF: wavefunction(s)  2S 2P renormalized
               file H.pbe-rrkjus.UPF: wavefunction(s)  1S renormalized
               file N.pbe-rrkjus.UPF: wavefunction(s)  2S renormalized
               file O.pbe-rrkjus.UPF: wavefunction(s)  2S renormalized

     gamma-point specific algorithms are used

     Subspace diagonalization in iterative solution of the eigenvalue problem:
     a serial algorithm will be used

 
     G-vector sticks info
     --------------------
     sticks:   dense  smooth     PW     G-vecs:    dense   smooth      PW
     Sum        9549    3809    949               701475   177509   22119
 


     bravais-lattice index     =            1
     lattice parameter (alat)  =      20.0000  a.u.
     unit-cell volume          =    8000.0000 (a.u.)^3
     number of atoms/cell      =           10
     number of atomic types    =            4
     number of electrons       =        24.00
     number of Kohn-Sham states=           12
     kinetic-energy cutoff     =      30.0000  Ry
     charge density cutoff     =     300.0000  Ry
     convergence threshold     =      5.0E-06
     mixing beta               =       0.7000
     number of iterations used =            8  plain     mixing
     Exchange-correlation      = SLA PW PBE PBE ( 1  4  3  4 0 0)
 

     Environ Module
     ==============

     Plese cite
         O. Andreussi, I. Dabo and N. Marzari, J. Chem. Phys. 136, 064102 (2012)         
     in publications or presentations arising from this work.

     compensation onset threshold      =               0.1000E+03 
     static permittivity               =                   100.00 
     epsilon calculation mode          =                     full 

     Electrostatic Setup
     -------------------
     electrostatic problem to solve    = generalized              
     numerical solver adopted          = cg                       
     type of auxiliary density adopted = none                     
     type of core tool for poisson     = fft                      
     type of core tool for s(r) deriv  = analytic                 



     celldm(1)=  20.000000  celldm(2)=   0.000000  celldm(3)=   0.000000
     celldm(4)=   0.000000  celldm(5)=   0.000000  celldm(6)=   0.000000

     crystal axes: (cart. coord. in units of alat)
               a(1) = (   1.000000   0.000000   0.000000 )  
               a(2) = (   0.000000   1.000000   0.000000 )  
               a(3) = (   0.000000   0.000000   1.000000 )  

     reciprocal axes: (cart. coord. in units 2 pi/alat)
               b(1) = (  1.000000  0.000000  0.000000 )  
               b(2) = (  0.000000  1.000000  0.000000 )  
               b(3) = (  0.000000  0.000000  1.000000 )  


     PseudoPot. # 1 for C  read from file:
     /home/fnattino/Programs/quantumespresso/q-e-qe-6.4.1-develop/Environ/tests/../..//pseudo/C.pbe-rrkjus.UPF
     MD5 check sum: c9ac5a99bc85b198593446162950cd17
     Pseudo is Ultrasoft, Zval =  4.0
     Generated by new atomic code, or converted to UPF format
     Using radial grid of  627 points,  4 beta functions with: 
                l(1) =   0
                l(2) =   0
                l(3) =   1
                l(4) =   1
     Q(r) pseudized with 0 coefficients 


     PseudoPot. # 2 for H  read from file:
     /home/fnattino/Programs/quantumespresso/q-e-qe-6.4.1-develop/Environ/tests/../..//pseudo/H.pbe-rrkjus.UPF
     MD5 check sum: 2d52a7f45632fd764c17cc6affed14c8
     Pseudo is Ultrasoft, Zval =  1.0
     Generated by new atomic code, or converted to UPF format
     Using radial grid of 1061 points,  2 beta functions with: 
                l(1) =   0
                l(2) =   0
     Q(r) pseudized with 0 coefficients 


     PseudoPot. # 3 for N  read from file:
     /home/fnattino/Programs/quantumespresso/q-e-qe-6.4.1-develop/Environ/tests/../..//pseudo/N.pbe-rrkjus.UPF
     MD5 check sum: 28c76d763763edb36c62a6ca2be9aebd
     Pseudo is Ultrasoft, Zval =  5.0
     Generated by new atomic code, or converted to UPF format
     Using radial grid of 1257 points,  4 beta functions with: 
                l(1) =   0
                l(2) =   0
                l(3) =   1
                l(4) =   1
     Q(r) pseudized with 0 coefficients 


     PseudoPot. # 4 for O  read from file:
     /home/fnattino/Programs/quantumespresso/q-e-qe-6.4.1-develop/Environ/tests/../..//pseudo/O.pbe-rrkjus.UPF
     MD5 check sum: fadcf19ee70a498d3030e2e79cf929a4
     Pseudo is Ultrasoft, Zval =  6.0
     Generated by new atomic code, or converted to UPF format
     Using radial grid of 1269 points,  4 beta functions with: 
                l(1) =   0
                l(2) =   0
                l(3) =   1
                l(4) =   1
     Q(r) pseudized with 0 coefficients 


     atomic species   valence    mass     pseudopotential
        C              4.00    12.00000     C ( 1.00)
        H              1.00     1.00000     H ( 1.00)
        N              5.00    14.00000     N ( 1.00)
        O              6.00    16.00000     O ( 1.00)

     No symmetry found



   Cartesian axes

     site n.     atom                  positions (alat units)
         1           C   tau(   1) = (   0.0000000   0.0000000   0.0000000  )
         2           C   tau(   2) = (   0.0000000   0.0000000   0.1455089  )
         3           N   tau(   3) = (   0.1170969   0.0000000  -0.0545024  )
         4           H   tau(   4) = (   0.0476617  -0.0825466   0.1792090  )
         5           H   tau(   5) = (  -0.0953183  -0.0000030   0.1792090  )
         6           H   tau(   6) = (   0.0476566   0.0825496   0.1792090  )
         7           O   tau(   7) = (  -0.0984002  -0.0000019  -0.0641310  )
         8           H   tau(   8) = (   0.1263131  -0.0000015  -0.1475548  )
         9           H   tau(   9) = (   0.1944645   0.0000134  -0.0025716  )
        10           H   tau(  10) = (  -0.0770366  -0.0000045  -0.1522861  )

     number of k points=     1
                       cart. coord. in units 2pi/alat
        k(    1) = (   0.0000000   0.0000000   0.0000000), wk =   2.0000000

     Dense  grid:   350738 G-vectors     FFT dimensions: ( 120, 120, 120)

     Smooth grid:    88755 G-vectors     FFT dimensions: (  72,  72,  72)

     Estimated max dynamical RAM per process >     691.80 MB

     Initial potential from superposition of free atoms

     starting charge   24.42266, renormalised to   24.00000

     negative rho (up, down):  4.438E-04 0.000E+00
     Starting wfcs are   22 randomized atomic wfcs

     total cpu time spent up to now is        6.1 secs

     Self-consistent Calculation

     iteration #  1     ecut=    30.00 Ry     beta= 0.70
     Davidson diagonalization with overlap
     ethr =  1.00E-02,  avg # of iterations =  2.0

     negative rho (up, down):  1.277E-04 0.000E+00

     add environment contribution to local potential
     polarization accuracy = 8.3E-06, # of iterations =  14

     total cpu time spent up to now is       10.7 secs

     total energy              =     -80.23414911 Ry
     Harris-Foulkes estimate   =     -83.01882218 Ry
     estimated scf accuracy    <       3.73443027 Ry
     electrostatic embedding   =       0.00490874 Ry
     correction to one-el term =       0.00000000 Ry

     iteration #  2     ecut=    30.00 Ry     beta= 0.70
     Davidson diagonalization with overlap
     ethr =  1.00E-02,  avg # of iterations =  3.0

     negative rho (up, down):  5.315E-04 0.000E+00

     add environment contribution to local potential
     polarization accuracy = 9.7E-06, # of iterations =  17

     total cpu time spent up to now is       15.4 secs

     total energy              =     -81.20587210 Ry
     Harris-Foulkes estimate   =     -76.34191424 Ry
     estimated scf accuracy    <       1.06171147 Ry
     electrostatic embedding   =      -0.05500775 Ry
     correction to one-el term =      -5.38159298 Ry

     iteration #  3     ecut=    30.00 Ry     beta= 0.70
     Davidson diagonalization with overlap
     ethr =  4.42E-03,  avg # of iterations =  3.0

     negative rho (up, down):  1.171E-04 0.000E+00

     add environment contribution to local potential
     polarization accuracy = 5.5E-06, # of iterations =  22

     total cpu time spent up to now is       20.4 secs

     total energy              =     -81.36104569 Ry
     Harris-Foulkes estimate   =     -76.84669436 Ry
     estimated scf accuracy    <       0.04362775 Ry
     electrostatic embedding   =      -0.09364147 Ry
     correction to one-el term =      -4.44605033 Ry

     iteration #  4     ecut=    30.00 Ry     beta= 0.70
     Davidson diagonalization with overlap
     ethr =  1.82E-04,  avg # of iterations =  3.0

     negative rho (up, down):  1.998E-04 0.000E+00

     add environment contribution to local potential
     polarization accuracy = 8.2E-06, # of iterations =  22

     total cpu time spent up to now is       25.3 secs

     total energy              =     -81.34826419 Ry
     Harris-Foulkes estimate   =     -77.31716809 Ry
     estimated scf accuracy    <       0.01893836 Ry
     electrostatic embedding   =      -0.10097278 Ry
     correction to one-el term =      -3.93983285 Ry

     iteration #  5     ecut=    30.00 Ry     beta= 0.70
     Davidson diagonalization with overlap
     ethr =  7.89E-05,  avg # of iterations =  3.0

     negative rho (up, down):  7.407E-05 0.000E+00

     add environment contribution to local potential
     polarization accuracy = 7.2E-06, # of iterations =  22

     total cpu time spent up to now is       30.3 secs

     total energy              =     -81.35260722 Ry
     Harris-Foulkes estimate   =     -77.34956506 Ry
     estimated scf accuracy    <       0.00127234 Ry
     electrostatic embedding   =      -0.10126213 Ry
     correction to one-el term =      -3.90238456 Ry

     iteration #  6     ecut=    30.00 Ry     beta= 0.70
     Davidson diagonalization with overlap
     ethr =  5.30E-06,  avg # of iterations =  4.0

     negative rho (up, down):  1.089E-04 0.000E+00

     add environment contribution to local potential
     polarization accuracy = 8.8E-06, # of iterations =  22

     total cpu time spent up to now is       35.3 secs

     total energy              =     -81.35313845 Ry
     Harris-Foulkes estimate   =     -77.36731227 Ry
     estimated scf accuracy    <       0.00024499 Ry
     electrostatic embedding   =      -0.10171504 Ry
     correction to one-el term =      -3.88419999 Ry

     iteration #  7     ecut=    30.00 Ry     beta= 0.70
     Davidson diagonalization with overlap
     ethr =  1.02E-06,  avg # of iterations =  3.0

     negative rho (up, down):  2.629E-04 0.000E+00

     add environment contribution to local potential
     polarization accuracy = 9.0E-06, # of iterations =  22

     total cpu time spent up to now is       40.2 secs

     total energy              =     -81.35331973 Ry
     Harris-Foulkes estimate   =     -77.37920756 Ry
     estimated scf accuracy    <       0.00001978 Ry
     electrostatic embedding   =      -0.10287341 Ry
     correction to one-el term =      -3.87123574 Ry

     iteration #  8     ecut=    30.00 Ry     beta= 0.70
     Davidson diagonalization with overlap
     ethr =  8.24E-08,  avg # of iterations =  4.0

     negative rho (up, down):  3.094E-04 0.000E+00

     add environment contribution to local potential
     polarization accuracy = 8.7E-06, # of iterations =  22

     total cpu time spent up to now is       45.3 secs

     total energy              =     -81.35340043 Ry
     Harris-Foulkes estimate   =     -77.37807972 Ry
     estimated scf accuracy    <       0.00000735 Ry
     electrostatic embedding   =      -0.10446540 Ry
     correction to one-el term =      -3.87085837 Ry

     iteration #  9     ecut=    30.00 Ry     beta= 0.70
     Davidson diagonalization with overlap
     ethr =  3.06E-08,  avg # of iterations =  4.0

     negative rho (up, down):  2.784E-04 0.000E+00

     the potential shift due to the Gaussian-smeared nuclei is    -0.0668 ev

     total cpu time spent up to now is       47.6 secs

     End of self-consistent calculation

          k = 0.0000 0.0000 0.0000 ( 11060 PWs)   bands (ev):

   -28.7814 -23.0004 -18.5797 -15.8872 -14.5317 -13.2785 -11.6014 -10.8716
    -9.6070  -9.5882  -9.2182  -7.3008

     highest occupied level (ev):    -7.3008

!    total energy              =     -81.35346214 Ry
     Harris-Foulkes estimate   =     -77.36611916 Ry
     estimated scf accuracy    <       0.00000166 Ry

     The total energy is the sum of the following terms:

     one-electron contribution =    -241.89736012 Ry
     hartree contribution      =     123.19241227 Ry
     xc contribution           =     -22.96901077 Ry
     ewald contribution        =      64.30784006 Ry
     electrostatic embedding   =      -0.10671357 Ry
     correction to one-el term =      -3.88062999 Ry

     convergence has been achieved in   9 iterations
 WARNING: Unphysical forces due to core electrons are non-negligible 
 atom type   4 is subject to a spurious force of     0.000094 
 WARNING: Unphysical forces due to core electrons are non-negligible 
 atom type   5 is subject to a spurious force of     0.000061 
 WARNING: Unphysical forces due to core electrons are non-negligible 
 atom type   6 is subject to a spurious force of     0.000119 
 WARNING: Unphysical forces due to core electrons are non-negligible 
 atom type   8 is subject to a spurious force of     0.005038 
 WARNING: Unphysical forces due to core electrons are non-negligible 
 atom type   9 is subject to a spurious force of     0.006015 
 WARNING: Unphysical forces due to core electrons are non-negligible 
 atom type  10 is subject to a spurious force of     0.503209 

     Forces acting on atoms (cartesian axes, Ry/au):

     atom    1 type  1   force =     0.20966554   -0.00297773    0.09159815
     atom    2 type  1   force =    -0.03466119   -0.00297556   -0.08034055
     atom    3 type  3   force =    -0.13929341   -0.00298097    0.04282744
     atom    4 type  2   force =     0.01381379   -0.03091441    0.00816755
     atom    5 type  2   force =    -0.03555564   -0.00297725    0.01086173
     atom    6 type  2   force =     0.01381001    0.02496010    0.00816659
     atom    7 type  4   force =    -0.09707534   -0.00298746    0.00426953
     atom    8 type  2   force =     0.00148096   -0.00257223   -0.05034416
     atom    9 type  2   force =     0.03766021   -0.00274199    0.03771806
     atom   10 type  2   force =     0.03015507    0.02616751   -0.07292436

     Total force =     0.326357     Total SCF correction =     0.001559

     Writing output data file pwscf.save/
 
     init_run     :      5.06s CPU      5.48s WALL (       1 calls)
     electrons    :     34.61s CPU     41.49s WALL (       1 calls)
     forces       :      2.25s CPU      2.61s WALL (       1 calls)

     Called by init_run:
     wfcinit      :      0.20s CPU      0.21s WALL (       1 calls)
     potinit      :      1.47s CPU      1.53s WALL (       1 calls)
     hinit0       :      2.98s CPU      3.04s WALL (       1 calls)

     Called by electrons:
     c_bands      :      2.41s CPU      2.44s WALL (       9 calls)
     sum_band     :      3.95s CPU      5.46s WALL (       9 calls)
     v_of_rho     :      4.36s CPU      4.78s WALL (      10 calls)
     newd         :      2.74s CPU      4.52s WALL (      10 calls)
     mix_rho      :      0.53s CPU      0.54s WALL (       9 calls)

     Called by c_bands:
     init_us_2    :      0.08s CPU      0.09s WALL (      19 calls)
     regterg      :      2.29s CPU      2.31s WALL (       9 calls)

     Called by sum_band:
     sum_band:bec :      0.00s CPU      0.00s WALL (       9 calls)
     addusdens    :      3.23s CPU      4.73s WALL (       9 calls)

     Called by *egterg:
     h_psi        :      2.28s CPU      2.28s WALL (      39 calls)
     s_psi        :      0.03s CPU      0.04s WALL (      39 calls)
     g_psi        :      0.01s CPU      0.02s WALL (      29 calls)
     rdiaghg      :      0.02s CPU      0.01s WALL (      38 calls)

     Called by h_psi:
     h_psi:pot    :      2.27s CPU      2.27s WALL (      39 calls)
     h_psi:calbec :      0.05s CPU      0.04s WALL (      39 calls)
     vloc_psi     :      2.16s CPU      2.18s WALL (      39 calls)
     add_vuspsi   :      0.06s CPU      0.04s WALL (      39 calls)

     General routines
     calbec       :      0.07s CPU      0.06s WALL (      52 calls)
     fft          :     11.05s CPU     11.27s WALL (     595 calls)
     ffts         :      0.06s CPU      0.06s WALL (      19 calls)
     fftw         :      1.98s CPU      1.98s WALL (     438 calls)
     interpolate  :      0.26s CPU      0.29s WALL (      10 calls)
 
     Parallel routines
 
     Environ routines
     calc_eelect  :      0.04s CPU      0.04s WALL (      18 calls)
     calc_velect  :     14.25s CPU     16.85s WALL (      16 calls)
     dielectric   :      0.55s CPU      0.61s WALL (      12 calls)
     calc_felect  :      0.10s CPU      0.10s WALL (       1 calls)
 
     PWSCF        :     42.56s CPU     50.26s WALL

 
   This run was terminated on:  16:31:16  24Apr2019            

=------------------------------------------------------------------------------=
   JOB DONE.
=------------------------------------------------------------------------------=

%%%% IONS %%%%%%%%%%%%%%%%%%%%%%%%%%%%%%%%%%%%%%%%%%%%%%%%%%%%%%%%%%%%%%%%%%%%%%
 number of ions             =         10
 ionic center of charge     =      0.0095530    -0.0000002     0.0063981
 total ionic charge         =    -25.0000000
 ionic dipole               =      0.0000000     0.0000000     0.0000000
 ionic quadrupole (pc)      =    -79.0828058    -5.4513517  -105.8059629
 ionic quadrupole (gauss)   =    -82.2078058    -8.5763517  -108.9309629
 ion   1 type =  1 coordinates =      0.0000000     0.0000000     0.0000000
 ion   2 type =  1 coordinates =      0.0000000     0.0000000     2.9101782
 ion   3 type =  3 coordinates =      2.3419379     0.0000000    -1.0900479
 ion   4 type =  2 coordinates =      0.9532347    -1.6509323     3.5841800
 ion   5 type =  2 coordinates =     -1.9063663    -0.0000596     3.5841809
 ion   6 type =  2 coordinates =      0.9531315     1.6509919     3.5841800
 ion   7 type =  4 coordinates =     -1.9680045    -0.0000375    -1.2826193
 ion   8 type =  2 coordinates =      2.5262613    -0.0000303    -2.9510950
 ion   9 type =  2 coordinates =      3.8892907     0.0002681    -0.0514326
 ion  10 type =  2 coordinates =     -1.5407317    -0.0000890    -3.0457220

%%%% SYSTEM %%%%%%%%%%%%%%%%%%%%%%%%%%%%%%%%%%%%%%%%%%%%%%%%%%%%%%%%%%%%%%%%%%%%
 system is built from all present ionic types
 system defined dimension   =  0 
 system defined axis        =  3 
 system center              =      0.0095530    -0.0000002     0.0063981 
 system width               =      0.2021425 

%%%% ELECTRONS %%%%%%%%%%%%%%%%%%%%%%%%%%%%%%%%%%%%%%%%%%%%%%%%%%%%%%%%%%%%%%%%%
 number of electrons        =         24
 total electronic charge    =     24.0000000

%%%% BOUNDARY %%%%%%%%%%%%%%%%%%%%%%%%%%%%%%%%%%%%%%%%%%%%%%%%%%%%%%%%%%%%%%%%%%
 boundary label             = solvent              
 boundary mode              = full                 
 boundary is built as a function of a smooth density
 function type              =  2 
 using the modified SCCS function with parameters 
 rhomax                     =      0.0050000 
 rhomin                     =      0.0001000 
 volume of the QM region    =   2771.6247532 
 surface of the QM region   =    905.6004067 

%%%% DIELECTRIC %%%%%%%%%%%%%%%%%%%%%%%%%%%%%%%%%%%%%%%%%%%%%%%%%%%%%%%%%%%%%%%%%
 dielectric build on homogeneous background
 environment bulk permitt.  =    100.0000000 
 dielectric flags
 need gradient              =  F 
 need factor depend. sqrt   =  T 
 total dielectric charge    =      0.0000000

%%%% DENSITY %%%%%%%%%%%%%%%%%%%%%%%%%%%%%%%%%%%%%%%%%%%%%%%%%%%%%%%%%%%%%%%%%%%
 density label              = vreference                                                                      
 integral of density        =      0.000000000    

%%%% DENSITY %%%%%%%%%%%%%%%%%%%%%%%%%%%%%%%%%%%%%%%%%%%%%%%%%%%%%%%%%%%%%%%%%%%
 density label              = velectrostatic                                                                  
 integral of density        =      0.000000000    

%%%% CHARGES %%%%%%%%%%%%%%%%%%%%%%%%%%%%%%%%%%%%%%%%%%%%%%%%%%%%%%%%%%%%%%%%%%%
 total number of charges    =         34
 total charge               =     -1.0000000

%%%% DENSITY %%%%%%%%%%%%%%%%%%%%%%%%%%%%%%%%%%%%%%%%%%%%%%%%%%%%%%%%%%%%%%%%%%%
 density label              = vsoftcavity                                                                     
 integral of density        =      0.000000000    

%%%% ELECTRONS %%%%%%%%%%%%%%%%%%%%%%%%%%%%%%%%%%%%%%%%%%%%%%%%%%%%%%%%%%%%%%%%%
 number of electrons        =         24
 total electronic charge    =     24.0000000

%%%% BOUNDARY %%%%%%%%%%%%%%%%%%%%%%%%%%%%%%%%%%%%%%%%%%%%%%%%%%%%%%%%%%%%%%%%%%
 boundary label             = solvent              
 boundary mode              = full                 
 boundary is built as a function of a smooth density
 function type              =  2 
 using the modified SCCS function with parameters 
 rhomax                     =      0.0050000 
 rhomin                     =      0.0001000 
 volume of the QM region    =    989.6663966 
 surface of the QM region   =    490.3840420 

%%%% DIELECTRIC %%%%%%%%%%%%%%%%%%%%%%%%%%%%%%%%%%%%%%%%%%%%%%%%%%%%%%%%%%%%%%%%%
 dielectric build on homogeneous background
 environment bulk permitt.  =    100.0000000 
 dielectric flags
 need gradient              =  F 
 need factor depend. sqrt   =  T 
 total dielectric charge    =      0.0000000

%%%% DENSITY %%%%%%%%%%%%%%%%%%%%%%%%%%%%%%%%%%%%%%%%%%%%%%%%%%%%%%%%%%%%%%%%%%%
 density label              = vreference                                                                      
 integral of density        =    -0.2329659099E-12

%%%% COMPUTE ELECTROSTATIC POTENTIAL %%%%%%%%%%%%%%%%%%%%%%%%%%%%%%%%%%%%%%%%%%%
 Iteration #          1
  pAp =    91.2614240861686       rzold =    89.3236069816261       alpha = 
  0.978766306531522     
 delta_qm =   0.113586E-01 delta_en =   0.222942E+03 tol =   0.100000E-04
 Iteration #          2
  pAp =    74.5805936098888       rzold =    10.2496379938369       alpha = 
  0.137430362212589     
 delta_qm =   0.471223E-02 delta_en =   0.383705E+02 tol =   0.100000E-04
 Iteration #          3
  pAp =   0.892073690945992       rzold =   0.260105517181293       alpha = 
  0.291574025577939     
 delta_qm =   0.221675E-02 delta_en =   0.849134E+01 tol =   0.100000E-04
 Iteration #          4
  pAp =   0.379771212080096       rzold =   7.925427277449222E-002  alpha = 
  0.208689522147816     
 delta_qm =   0.140998E-02 delta_en =   0.343536E+01 tol =   0.100000E-04
 Iteration #          5
  pAp =   2.804408432628924E-002  rzold =   9.846277057466041E-003  alpha = 
  0.351099966142802     
 delta_qm =   0.853249E-03 delta_en =   0.125804E+01 tol =   0.100000E-04
 Iteration #          6
  pAp =   6.798091425359634E-003  rzold =   2.302517605566050E-003  alpha = 
  0.338700594254547     
 delta_qm =   0.489136E-03 delta_en =   0.413430E+00 tol =   0.100000E-04
 Iteration #          7
  pAp =   1.165424268890263E-003  rzold =   4.850183026098046E-004  alpha = 
  0.416173161617483     
 delta_qm =   0.279123E-03 delta_en =   0.134628E+00 tol =   0.100000E-04
 Iteration #          8
  pAp =   1.077595075575633E-003  rzold =   2.931777489418403E-004  alpha = 
  0.272066711872481     
 delta_qm =   0.171834E-03 delta_en =   0.510223E-01 tol =   0.100000E-04
 Iteration #          9
  pAp =   1.672760177900289E-004  rzold =   8.947217719845829E-005  alpha = 
  0.534877493979843     
 delta_qm =   0.576181E-04 delta_en =   0.573669E-02 tol =   0.100000E-04
 Iteration #         10
  pAp =   4.833410160929487E-005  rzold =   2.076796438606375E-005  alpha = 
  0.429675191936742     
 delta_qm =   0.292080E-04 delta_en =   0.147417E-02 tol =   0.100000E-04
 Iteration #         11
  pAp =   9.661303194036644E-006  rzold =   4.190945131534207E-006  alpha = 
  0.433786731185606     
 delta_qm =   0.153945E-04 delta_en =   0.409520E-03 tol =   0.100000E-04
 Iteration #         12
  pAp =   9.570419997964423E-007  rzold =   5.350345255672654E-007  alpha = 
  0.559050204359960     
 delta_qm =   0.815479E-05 delta_en =   0.114913E-03 tol =   0.100000E-04
 Iteration #         13
  pAp =   4.679495487707215E-007  rzold =   2.013251885361513E-007  alpha = 
  0.430228406171182     
 delta_qm =   0.421770E-05 delta_en =   0.307394E-04 tol =   0.100000E-04
 Iteration #         14
  pAp =   1.953043950223662E-007  rzold =   8.020852959166948E-008  alpha = 
  0.410684713892301     
 delta_qm =   0.219764E-05 delta_en =   0.834561E-05 tol =   0.100000E-04
 Charges are converged, EXIT

%%%% DENSITY %%%%%%%%%%%%%%%%%%%%%%%%%%%%%%%%%%%%%%%%%%%%%%%%%%%%%%%%%%%%%%%%%%%
 density label              = velectrostatic                                                                  
 integral of density        =     0.6404095361E-12

%%%% CHARGES %%%%%%%%%%%%%%%%%%%%%%%%%%%%%%%%%%%%%%%%%%%%%%%%%%%%%%%%%%%%%%%%%%%
 total number of charges    =         34
 total charge               =     -1.0000000

%%%% DENSITY %%%%%%%%%%%%%%%%%%%%%%%%%%%%%%%%%%%%%%%%%%%%%%%%%%%%%%%%%%%%%%%%%%%
 density label              = vsoftcavity                                                                     
 integral of density        =      409.6751205    

%%%% ELECTRONS %%%%%%%%%%%%%%%%%%%%%%%%%%%%%%%%%%%%%%%%%%%%%%%%%%%%%%%%%%%%%%%%%
 number of electrons        =         24
 total electronic charge    =     24.0000000

%%%% BOUNDARY %%%%%%%%%%%%%%%%%%%%%%%%%%%%%%%%%%%%%%%%%%%%%%%%%%%%%%%%%%%%%%%%%%
 boundary label             = solvent              
 boundary mode              = full                 
 boundary is built as a function of a smooth density
 function type              =  2 
 using the modified SCCS function with parameters 
 rhomax                     =      0.0050000 
 rhomin                     =      0.0001000 
 volume of the QM region    =    839.6498476 
 surface of the QM region   =    449.0126179 

%%%% DIELECTRIC %%%%%%%%%%%%%%%%%%%%%%%%%%%%%%%%%%%%%%%%%%%%%%%%%%%%%%%%%%%%%%%%%
 dielectric build on homogeneous background
 environment bulk permitt.  =    100.0000000 
 dielectric flags
 need gradient              =  F 
 need factor depend. sqrt   =  T 
 total dielectric charge    =     -0.0006637

%%%% DENSITY %%%%%%%%%%%%%%%%%%%%%%%%%%%%%%%%%%%%%%%%%%%%%%%%%%%%%%%%%%%%%%%%%%%
 density label              = vreference                                                                      
 integral of density        =     0.2738879082E-12

%%%% COMPUTE ELECTROSTATIC POTENTIAL %%%%%%%%%%%%%%%%%%%%%%%%%%%%%%%%%%%%%%%%%%%
 Warning: bad guess with residual norm =   0.371303E+03, reset to no guess
 Iteration #          1
  pAp =    94.8832861599609       rzold =    93.2150257075179       alpha = 
  0.982417762706589     
 delta_qm =   0.144556E-01 delta_en =   0.361089E+03 tol =   0.100000E-04
 Iteration #          2
  pAp =    105.126167095533       rzold =    12.0378684329461       alpha = 
  0.114508773272470     
 delta_qm =   0.514843E-02 delta_en =   0.458030E+02 tol =   0.100000E-04
 Iteration #          3
  pAp =   0.707409149596378       rzold =   0.143512556915420       alpha = 
  0.202870654128948     
 delta_qm =   0.349855E-02 delta_en =   0.211505E+02 tol =   0.100000E-04
 Iteration #          4
  pAp =   0.182463163278269       rzold =   4.095899352275485E-002  alpha = 
  0.224478151024322     
 delta_qm =   0.255274E-02 delta_en =   0.112605E+02 tol =   0.100000E-04
 Iteration #          5
  pAp =   2.000595438809532E-002  rzold =   8.270450590190442E-003  alpha = 
  0.413399452470602     
 delta_qm =   0.132833E-02 delta_en =   0.304901E+01 tol =   0.100000E-04
 Iteration #          6
  pAp =   7.612647164056270E-003  rzold =   3.265172127165132E-003  alpha = 
  0.428914155194517     
 delta_qm =   0.758098E-03 delta_en =   0.993104E+00 tol =   0.100000E-04
 Iteration #          7
  pAp =   5.257177416351025E-003  rzold =   1.703603302963360E-003  alpha = 
  0.324052845860740     
 delta_qm =   0.437083E-03 delta_en =   0.330120E+00 tol =   0.100000E-04
 Iteration #          8
  pAp =   3.848622682777838E-003  rzold =   1.138408130116912E-003  alpha = 
  0.295796242954957     
 delta_qm =   0.273966E-03 delta_en =   0.129699E+00 tol =   0.100000E-04
 Iteration #          9
  pAp =   1.196042691659124E-003  rzold =   4.009426442253368E-004  alpha = 
  0.335224358646561     
 delta_qm =   0.192715E-03 delta_en =   0.641762E-01 tol =   0.100000E-04
 Iteration #         10
  pAp =   3.247563222120796E-004  rzold =   1.124612687556489E-004  alpha = 
  0.346294316888485     
 delta_qm =   0.125412E-03 delta_en =   0.271781E-01 tol =   0.100000E-04
 Iteration #         11
  pAp =   3.592189192504127E-005  rzold =   1.751249102445780E-005  alpha = 
  0.487515831877713     
 delta_qm =   0.673404E-04 delta_en =   0.783601E-02 tol =   0.100000E-04
 Iteration #         12
  pAp =   8.124211598741100E-006  rzold =   4.608703979819757E-006  alpha = 
  0.567280150671347     
 delta_qm =   0.314201E-04 delta_en =   0.170592E-02 tol =   0.100000E-04
 Iteration #         13
  pAp =   6.991236234740420E-006  rzold =   2.663846859928126E-006  alpha = 
  0.381026583923899     
 delta_qm =   0.188345E-04 delta_en =   0.612990E-03 tol =   0.100000E-04
 Iteration #         14
  pAp =   2.273536233366052E-006  rzold =   8.537170016043022E-007  alpha = 
  0.375501823580064     
 delta_qm =   0.139460E-04 delta_en =   0.336081E-03 tol =   0.100000E-04
 Iteration #         15
  pAp =   6.618594418359119E-007  rzold =   2.662253810127274E-007  alpha = 
  0.402238548224458     
 delta_qm =   0.904223E-05 delta_en =   0.141285E-03 tol =   0.100000E-04
 Iteration #         16
  pAp =   2.464644662143497E-007  rzold =   8.712664540841568E-008  alpha = 
  0.353505909986399     
 delta_qm =   0.540218E-05 delta_en =   0.504292E-04 tol =   0.100000E-04
 Iteration #         17
  pAp =   1.072197765787309E-007  rzold =   4.114584789127781E-008  alpha = 
  0.383752412140727     
 delta_qm =   0.237356E-05 delta_en =   0.973519E-05 tol =   0.100000E-04
 Charges are converged, EXIT

%%%% DENSITY %%%%%%%%%%%%%%%%%%%%%%%%%%%%%%%%%%%%%%%%%%%%%%%%%%%%%%%%%%%%%%%%%%%
 density label              = velectrostatic                                                                  
 integral of density        =     0.1380952965E-12

%%%% CHARGES %%%%%%%%%%%%%%%%%%%%%%%%%%%%%%%%%%%%%%%%%%%%%%%%%%%%%%%%%%%%%%%%%%%
 total number of charges    =         34
 total charge               =     -1.0000000

%%%% DENSITY %%%%%%%%%%%%%%%%%%%%%%%%%%%%%%%%%%%%%%%%%%%%%%%%%%%%%%%%%%%%%%%%%%%
 density label              = vsoftcavity                                                                     
 integral of density        =      190.3735148    

%%%% ELECTRONS %%%%%%%%%%%%%%%%%%%%%%%%%%%%%%%%%%%%%%%%%%%%%%%%%%%%%%%%%%%%%%%%%
 number of electrons        =         24
 total electronic charge    =     24.0000000

%%%% BOUNDARY %%%%%%%%%%%%%%%%%%%%%%%%%%%%%%%%%%%%%%%%%%%%%%%%%%%%%%%%%%%%%%%%%%
 boundary label             = solvent              
 boundary mode              = full                 
 boundary is built as a function of a smooth density
 function type              =  2 
 using the modified SCCS function with parameters 
 rhomax                     =      0.0050000 
 rhomin                     =      0.0001000 
 volume of the QM region    =    716.1314494 
 surface of the QM region   =    412.6364810 

%%%% DIELECTRIC %%%%%%%%%%%%%%%%%%%%%%%%%%%%%%%%%%%%%%%%%%%%%%%%%%%%%%%%%%%%%%%%%
 dielectric build on homogeneous background
 environment bulk permitt.  =    100.0000000 
 dielectric flags
 need gradient              =  F 
 need factor depend. sqrt   =  T 
 total dielectric charge    =      0.0000210

%%%% DENSITY %%%%%%%%%%%%%%%%%%%%%%%%%%%%%%%%%%%%%%%%%%%%%%%%%%%%%%%%%%%%%%%%%%%
 density label              = vreference                                                                      
 integral of density        =    -0.6303435140E-12

%%%% COMPUTE ELECTROSTATIC POTENTIAL %%%%%%%%%%%%%%%%%%%%%%%%%%%%%%%%%%%%%%%%%%%
 Warning: bad guess with residual norm =   0.130866E+04, reset to no guess
 Iteration #          1
  pAp =    95.3727058479040       rzold =    93.2028145041678       alpha = 
  0.977248298405242     
 delta_qm =   0.269393E-01 delta_en =   0.125405E+04 tol =   0.100000E-04
 Iteration #          2
  pAp =    231.629308094561       rzold =    20.8048168655990       alpha = 
  8.981944917396020E-002
 delta_qm =   0.880719E-02 delta_en =   0.134035E+03 tol =   0.100000E-04
 Iteration #          3
  pAp =    1.32778701762818       rzold =   0.213709224207153       alpha = 
  0.160951433753963     
 delta_qm =   0.703138E-02 delta_en =   0.854328E+02 tol =   0.100000E-04
 Iteration #          4
  pAp =   0.213511436944842       rzold =   3.932331222214207E-002  alpha = 
  0.184174266188376     
 delta_qm =   0.620172E-02 delta_en =   0.664613E+02 tol =   0.100000E-04
 Iteration #          5
  pAp =   3.159626455494757E-002  rzold =   1.212867194729935E-002  alpha = 
  0.383864109195786     
 delta_qm =   0.363522E-02 delta_en =   0.228353E+02 tol =   0.100000E-04
 Iteration #          6
  pAp =   2.118323461896024E-002  rzold =   9.510241119756785E-003  alpha = 
  0.448951318853097     
 delta_qm =   0.231660E-02 delta_en =   0.927355E+01 tol =   0.100000E-04
 Iteration #          7
  pAp =   1.833967045854616E-002  rzold =   6.459772266778805E-003  alpha = 
  0.352229462431185     
 delta_qm =   0.139049E-02 delta_en =   0.334102E+01 tol =   0.100000E-04
 Iteration #          8
  pAp =   1.681701844446964E-002  rzold =   5.012296479122959E-003  alpha = 
  0.298049056417089     
 delta_qm =   0.940071E-03 delta_en =   0.152709E+01 tol =   0.100000E-04
 Iteration #          9
  pAp =   1.486180981354916E-002  rzold =   3.544458924758399E-003  alpha = 
  0.238494434340493     
 delta_qm =   0.695836E-03 delta_en =   0.836677E+00 tol =   0.100000E-04
 Iteration #         10
  pAp =   3.132478369113535E-003  rzold =   1.012396749673086E-003  alpha = 
  0.323193532525361     
 delta_qm =   0.539174E-03 delta_en =   0.502345E+00 tol =   0.100000E-04
 Iteration #         11
  pAp =   4.844838875882420E-004  rzold =   1.705839000112093E-004  alpha = 
  0.352094062117060     
 delta_qm =   0.425492E-03 delta_en =   0.312843E+00 tol =   0.100000E-04
 Iteration #         12
  pAp =   2.707587079129343E-004  rzold =   1.025351278463689E-004  alpha = 
  0.378695587066180     
 delta_qm =   0.257470E-03 delta_en =   0.114551E+00 tol =   0.100000E-04
 Iteration #         13
  pAp =   1.030373750345841E-004  rzold =   5.668061634586809E-005  alpha = 
  0.550097635220651     
 delta_qm =   0.104636E-03 delta_en =   0.189192E-01 tol =   0.100000E-04
 Iteration #         14
  pAp =   6.309118066170791E-005  rzold =   2.324666245065349E-005  alpha = 
  0.368461363487570     
 delta_qm =   0.855797E-04 delta_en =   0.126557E-01 tol =   0.100000E-04
 Iteration #         15
  pAp =   1.453794232662219E-005  rzold =   5.815570265613961E-006  alpha = 
  0.400027055752200     
 delta_qm =   0.672519E-04 delta_en =   0.781543E-02 tol =   0.100000E-04
 Iteration #         16
  pAp =   6.599049075735127E-006  rzold =   2.297558538138073E-006  alpha = 
  0.348165093450548     
 delta_qm =   0.476575E-04 delta_en =   0.392469E-02 tol =   0.100000E-04
 Iteration #         17
  pAp =   4.305990746222025E-006  rzold =   1.410116060620319E-006  alpha = 
  0.327477726666626     
 delta_qm =   0.287830E-04 delta_en =   0.143158E-02 tol =   0.100000E-04
 Iteration #         18
  pAp =   2.332660171756664E-006  rzold =   7.588840652138170E-007  alpha = 
  0.325329884910892     
 delta_qm =   0.170230E-04 delta_en =   0.500742E-03 tol =   0.100000E-04
 Iteration #         19
  pAp =   3.609770778015413E-007  rzold =   1.923583290074549E-007  alpha = 
  0.532882392918062     
 delta_qm =   0.868966E-05 delta_en =   0.130482E-03 tol =   0.100000E-04
 Iteration #         20
  pAp =   1.352543081086751E-007  rzold =   5.876817386997942E-008  alpha = 
  0.434501308621977     
 delta_qm =   0.470446E-05 delta_en =   0.382440E-04 tol =   0.100000E-04
 Iteration #         21
  pAp =   4.584056291133776E-008  rzold =   1.770501703214950E-008  alpha = 
  0.386230358174125     
 delta_qm =   0.277579E-05 delta_en =   0.133143E-04 tol =   0.100000E-04
 Iteration #         22
  pAp =   8.854039940561158E-009  rzold =   3.680639911908877E-009  alpha = 
  0.415701751586587     
 delta_qm =   0.177639E-05 delta_en =   0.545283E-05 tol =   0.100000E-04
 Charges are converged, EXIT

%%%% DENSITY %%%%%%%%%%%%%%%%%%%%%%%%%%%%%%%%%%%%%%%%%%%%%%%%%%%%%%%%%%%%%%%%%%%
 density label              = velectrostatic                                                                  
 integral of density        =     0.5534996330E-12

%%%% CHARGES %%%%%%%%%%%%%%%%%%%%%%%%%%%%%%%%%%%%%%%%%%%%%%%%%%%%%%%%%%%%%%%%%%%
 total number of charges    =         34
 total charge               =     -1.0000000

%%%% DENSITY %%%%%%%%%%%%%%%%%%%%%%%%%%%%%%%%%%%%%%%%%%%%%%%%%%%%%%%%%%%%%%%%%%%
 density label              = vsoftcavity                                                                     
 integral of density        =      47.87063255    

%%%% ELECTRONS %%%%%%%%%%%%%%%%%%%%%%%%%%%%%%%%%%%%%%%%%%%%%%%%%%%%%%%%%%%%%%%%%
 number of electrons        =         24
 total electronic charge    =     24.0000000

%%%% BOUNDARY %%%%%%%%%%%%%%%%%%%%%%%%%%%%%%%%%%%%%%%%%%%%%%%%%%%%%%%%%%%%%%%%%%
 boundary label             = solvent              
 boundary mode              = full                 
 boundary is built as a function of a smooth density
 function type              =  2 
 using the modified SCCS function with parameters 
 rhomax                     =      0.0050000 
 rhomin                     =      0.0001000 
 volume of the QM region    =    714.0054859 
 surface of the QM region   =    412.5102805 

%%%% DIELECTRIC %%%%%%%%%%%%%%%%%%%%%%%%%%%%%%%%%%%%%%%%%%%%%%%%%%%%%%%%%%%%%%%%%
 dielectric build on homogeneous background
 environment bulk permitt.  =    100.0000000 
 dielectric flags
 need gradient              =  F 
 need factor depend. sqrt   =  T 
 total dielectric charge    =     -0.0005738

%%%% DENSITY %%%%%%%%%%%%%%%%%%%%%%%%%%%%%%%%%%%%%%%%%%%%%%%%%%%%%%%%%%%%%%%%%%%
 density label              = vreference                                                                      
 integral of density        =     0.2407950382E-12

%%%% COMPUTE ELECTROSTATIC POTENTIAL %%%%%%%%%%%%%%%%%%%%%%%%%%%%%%%%%%%%%%%%%%%
 Warning: bad guess with residual norm =   0.145455E+04, reset to no guess
 Iteration #          1
  pAp =    95.4273414792365       rzold =    93.2371958466439       alpha = 
  0.977049076306195     
 delta_qm =   0.283900E-01 delta_en =   0.139276E+04 tol =   0.100000E-04
 Iteration #          2
  pAp =    238.831174761327       rzold =    21.2128019570420       alpha = 
  8.881923383009244E-002
 delta_qm =   0.893748E-02 delta_en =   0.138030E+03 tol =   0.100000E-04
 Iteration #          3
  pAp =    1.50261771432427       rzold =   0.235264305367726       alpha = 
  0.156569633862945     
 delta_qm =   0.727242E-02 delta_en =   0.913906E+02 tol =   0.100000E-04
 Iteration #          4
  pAp =   0.228677170842111       rzold =   4.139894001924287E-002  alpha = 
  0.181036610986527     
 delta_qm =   0.650906E-02 delta_en =   0.732116E+02 tol =   0.100000E-04
 Iteration #          5
  pAp =   3.348243235377879E-002  rzold =   1.225306729153094E-002  alpha = 
  0.365955112282877     
 delta_qm =   0.389275E-02 delta_en =   0.261853E+02 tol =   0.100000E-04
 Iteration #          6
  pAp =   2.100350270511362E-002  rzold =   9.371093173873083E-003  alpha = 
  0.446168113263868     
 delta_qm =   0.248547E-02 delta_en =   0.106749E+02 tol =   0.100000E-04
 Iteration #          7
  pAp =   1.865403953524282E-002  rzold =   6.634486032519179E-003  alpha = 
  0.355659481689461     
 delta_qm =   0.148757E-02 delta_en =   0.382384E+01 tol =   0.100000E-04
 Iteration #          8
  pAp =   1.726723555900363E-002  rzold =   5.142883622009536E-003  alpha = 
  0.297840589736316     
 delta_qm =   0.978143E-03 delta_en =   0.165329E+01 tol =   0.100000E-04
 Iteration #          9
  pAp =   1.605054323249568E-002  rzold =   3.884457842980458E-003  alpha = 
  0.242014104240163     
 delta_qm =   0.692601E-03 delta_en =   0.828915E+00 tol =   0.100000E-04
 Iteration #         10
  pAp =   3.483372918995769E-003  rzold =   1.128073414251874E-003  alpha = 
  0.323845146782932     
 delta_qm =   0.555036E-03 delta_en =   0.532337E+00 tol =   0.100000E-04
 Iteration #         11
  pAp =   5.714419267442317E-004  rzold =   1.937001076333682E-004  alpha = 
  0.338967266082430     
 delta_qm =   0.439644E-03 delta_en =   0.333999E+00 tol =   0.100000E-04
 Iteration #         12
  pAp =   2.814944473309014E-004  rzold =   1.050760328254016E-004  alpha = 
  0.373279238087005     
 delta_qm =   0.283197E-03 delta_en =   0.138587E+00 tol =   0.100000E-04
 Iteration #         13
  pAp =   1.054890496541035E-004  rzold =   5.876874595910632E-005  alpha = 
  0.557107549568489     
 delta_qm =   0.119974E-03 delta_en =   0.248726E-01 tol =   0.100000E-04
 Iteration #         14
  pAp =   8.435507406490949E-005  rzold =   3.010285899267408E-005  alpha = 
  0.356858900621800     
 delta_qm =   0.947611E-04 delta_en =   0.155169E-01 tol =   0.100000E-04
 Iteration #         15
  pAp =   1.943883967991353E-005  rzold =   7.711074283552289E-006  alpha = 
  0.396683876739838     
 delta_qm =   0.769791E-04 delta_en =   0.102398E-01 tol =   0.100000E-04
 Iteration #         16
  pAp =   6.877967807054409E-006  rzold =   2.657205444260376E-006  alpha = 
  0.386335836224038     
 delta_qm =   0.537692E-04 delta_en =   0.499587E-02 tol =   0.100000E-04
 Iteration #         17
  pAp =   4.205067652721510E-006  rzold =   1.440803769830959E-006  alpha = 
  0.342635098605007     
 delta_qm =   0.330579E-04 delta_en =   0.188840E-02 tol =   0.100000E-04
 Iteration #         18
  pAp =   3.491288573938930E-006  rzold =   9.861178786097405E-007  alpha = 
  0.282450979838996     
 delta_qm =   0.199503E-04 delta_en =   0.687770E-03 tol =   0.100000E-04
 Iteration #         19
  pAp =   4.722360267685711E-007  rzold =   2.457927661382488E-007  alpha = 
  0.520487112811290     
 delta_qm =   0.103104E-04 delta_en =   0.183693E-03 tol =   0.100000E-04
 Iteration #         20
  pAp =   1.879113639770547E-007  rzold =   8.095090218117600E-008  alpha = 
  0.430793010427303     
 delta_qm =   0.574394E-05 delta_en =   0.570117E-04 tol =   0.100000E-04
 Iteration #         21
  pAp =   6.247892837578313E-008  rzold =   2.516088530637123E-008  alpha = 
  0.402709936941294     
 delta_qm =   0.343024E-05 delta_en =   0.203326E-04 tol =   0.100000E-04
 Iteration #         22
  pAp =   1.100794740467421E-008  rzold =   4.918345479426197E-009  alpha = 
  0.446799507539231     
 delta_qm =   0.218202E-05 delta_en =   0.822738E-05 tol =   0.100000E-04
 Charges are converged, EXIT

%%%% DENSITY %%%%%%%%%%%%%%%%%%%%%%%%%%%%%%%%%%%%%%%%%%%%%%%%%%%%%%%%%%%%%%%%%%%
 density label              = velectrostatic                                                                  
 integral of density        =    -0.1782146447E-11

%%%% CHARGES %%%%%%%%%%%%%%%%%%%%%%%%%%%%%%%%%%%%%%%%%%%%%%%%%%%%%%%%%%%%%%%%%%%
 total number of charges    =         34
 total charge               =     -1.0000000

%%%% DENSITY %%%%%%%%%%%%%%%%%%%%%%%%%%%%%%%%%%%%%%%%%%%%%%%%%%%%%%%%%%%%%%%%%%%
 density label              = vsoftcavity                                                                     
 integral of density        =      46.11562076    

%%%% ELECTRONS %%%%%%%%%%%%%%%%%%%%%%%%%%%%%%%%%%%%%%%%%%%%%%%%%%%%%%%%%%%%%%%%%
 number of electrons        =         24
 total electronic charge    =     24.0000000

%%%% BOUNDARY %%%%%%%%%%%%%%%%%%%%%%%%%%%%%%%%%%%%%%%%%%%%%%%%%%%%%%%%%%%%%%%%%%
 boundary label             = solvent              
 boundary mode              = full                 
 boundary is built as a function of a smooth density
 function type              =  2 
 using the modified SCCS function with parameters 
 rhomax                     =      0.0050000 
 rhomin                     =      0.0001000 
 volume of the QM region    =    716.3330996 
 surface of the QM region   =    413.5298854 

%%%% DIELECTRIC %%%%%%%%%%%%%%%%%%%%%%%%%%%%%%%%%%%%%%%%%%%%%%%%%%%%%%%%%%%%%%%%%
 dielectric build on homogeneous background
 environment bulk permitt.  =    100.0000000 
 dielectric flags
 need gradient              =  F 
 need factor depend. sqrt   =  T 
 total dielectric charge    =     -0.0002630

%%%% DENSITY %%%%%%%%%%%%%%%%%%%%%%%%%%%%%%%%%%%%%%%%%%%%%%%%%%%%%%%%%%%%%%%%%%%
 density label              = vreference                                                                      
 integral of density        =    -0.7954131181E-12

%%%% COMPUTE ELECTROSTATIC POTENTIAL %%%%%%%%%%%%%%%%%%%%%%%%%%%%%%%%%%%%%%%%%%%
 Warning: bad guess with residual norm =   0.142177E+04, reset to no guess
 Iteration #          1
  pAp =    95.5117866076798       rzold =    93.3325593670611       alpha = 
  0.977183682579721     
 delta_qm =   0.280728E-01 delta_en =   0.136180E+04 tol =   0.100000E-04
 Iteration #          2
  pAp =    235.258852145110       rzold =    20.9871043631929       alpha = 
  8.920856397891380E-002
 delta_qm =   0.801865E-02 delta_en =   0.111108E+03 tol =   0.100000E-04
 Iteration #          3
  pAp =    1.51383388214745       rzold =   0.241374778269629       alpha = 
  0.159446013935972     
 delta_qm =   0.661234E-02 delta_en =   0.755535E+02 tol =   0.100000E-04
 Iteration #          4
  pAp =   0.220720049769712       rzold =   3.974937666698251E-002  alpha = 
  0.180089560094133     
 delta_qm =   0.593769E-02 delta_en =   0.609226E+02 tol =   0.100000E-04
 Iteration #          5
  pAp =   3.529311811380148E-002  rzold =   1.251574558527382E-002  alpha = 
  0.354622834540071     
 delta_qm =   0.355581E-02 delta_en =   0.218485E+02 tol =   0.100000E-04
 Iteration #          6
  pAp =   2.126819234738973E-002  rzold =   9.288587678685163E-003  alpha = 
  0.436736114050857     
 delta_qm =   0.223006E-02 delta_en =   0.859367E+01 tol =   0.100000E-04
 Iteration #          7
  pAp =   1.771542546979215E-002  rzold =   6.372210920984664E-003  alpha = 
  0.359698440878565     
 delta_qm =   0.135806E-02 delta_en =   0.318701E+01 tol =   0.100000E-04
 Iteration #          8
  pAp =   1.600507698467768E-002  rzold =   4.751518389041254E-003  alpha = 
  0.296875697229703     
 delta_qm =   0.922240E-03 delta_en =   0.146971E+01 tol =   0.100000E-04
 Iteration #          9
  pAp =   1.523262339595875E-002  rzold =   3.657327797794936E-003  alpha = 
  0.240098353561687     
 delta_qm =   0.641496E-03 delta_en =   0.711102E+00 tol =   0.100000E-04
 Iteration #         10
  pAp =   3.168736094984155E-003  rzold =   1.031083310566800E-003  alpha = 
  0.325392610700184     
 delta_qm =   0.514418E-03 delta_en =   0.457274E+00 tol =   0.100000E-04
 Iteration #         11
  pAp =   5.202900600466958E-004  rzold =   1.815342439284904E-004  alpha = 
  0.348909690706368     
 delta_qm =   0.398485E-03 delta_en =   0.274390E+00 tol =   0.100000E-04
 Iteration #         12
  pAp =   2.564722786927312E-004  rzold =   9.454555042432005E-005  alpha = 
  0.368638477835615     
 delta_qm =   0.259273E-03 delta_en =   0.116160E+00 tol =   0.100000E-04
 Iteration #         13
  pAp =   1.028609609601482E-004  rzold =   5.421122960323206E-005  alpha = 
  0.527034057403326     
 delta_qm =   0.117077E-03 delta_en =   0.236859E-01 tol =   0.100000E-04
 Iteration #         14
  pAp =   7.923899463586751E-005  rzold =   2.836739901261835E-005  alpha = 
  0.357997967326277     
 delta_qm =   0.890900E-04 delta_en =   0.137152E-01 tol =   0.100000E-04
 Iteration #         15
  pAp =   1.737072184329566E-005  rzold =   7.054551085299902E-006  alpha = 
  0.406117324826236     
 delta_qm =   0.709840E-04 delta_en =   0.870693E-02 tol =   0.100000E-04
 Iteration #         16
  pAp =   6.057395632564020E-006  rzold =   2.495221032714635E-006  alpha = 
  0.411929678045223     
 delta_qm =   0.479143E-04 delta_en =   0.396710E-02 tol =   0.100000E-04
 Iteration #         17
  pAp =   2.285433914919397E-006  rzold =   1.122454243173070E-006  alpha = 
  0.491133974973263     
 delta_qm =   0.238014E-04 delta_en =   0.978921E-03 tol =   0.100000E-04
 Iteration #         18
  pAp =   2.942749542617416E-006  rzold =   6.764260402009960E-007  alpha = 
  0.229861913290572     
 delta_qm =   0.168275E-04 delta_en =   0.489306E-03 tol =   0.100000E-04
 Iteration #         19
  pAp =   6.420296974693818E-007  rzold =   2.671766000867592E-007  alpha = 
  0.416143678617765     
 delta_qm =   0.100085E-04 delta_en =   0.173093E-03 tol =   0.100000E-04
 Iteration #         20
  pAp =   1.899824499832725E-007  rzold =   7.946762416462180E-008  alpha = 
  0.418289290256120     
 delta_qm =   0.587834E-05 delta_en =   0.597108E-04 tol =   0.100000E-04
 Iteration #         21
  pAp =   5.792413304757613E-008  rzold =   2.471810222255143E-008  alpha = 
  0.426732363905199     
 delta_qm =   0.345282E-05 delta_en =   0.206011E-04 tol =   0.100000E-04
 Iteration #         22
  pAp =   9.978716462371031E-009  rzold =   4.928605205443821E-009  alpha = 
  0.493911739453587     
 delta_qm =   0.204731E-05 delta_en =   0.724286E-05 tol =   0.100000E-04
 Charges are converged, EXIT

%%%% DENSITY %%%%%%%%%%%%%%%%%%%%%%%%%%%%%%%%%%%%%%%%%%%%%%%%%%%%%%%%%%%%%%%%%%%
 density label              = velectrostatic                                                                  
 integral of density        =    -0.1373847538E-11

%%%% CHARGES %%%%%%%%%%%%%%%%%%%%%%%%%%%%%%%%%%%%%%%%%%%%%%%%%%%%%%%%%%%%%%%%%%%
 total number of charges    =         34
 total charge               =     -1.0000000

%%%% DENSITY %%%%%%%%%%%%%%%%%%%%%%%%%%%%%%%%%%%%%%%%%%%%%%%%%%%%%%%%%%%%%%%%%%%
 density label              = vsoftcavity                                                                     
 integral of density        =      48.00846552    

%%%% ELECTRONS %%%%%%%%%%%%%%%%%%%%%%%%%%%%%%%%%%%%%%%%%%%%%%%%%%%%%%%%%%%%%%%%%
 number of electrons        =         24
 total electronic charge    =     24.0000000

%%%% BOUNDARY %%%%%%%%%%%%%%%%%%%%%%%%%%%%%%%%%%%%%%%%%%%%%%%%%%%%%%%%%%%%%%%%%%
 boundary label             = solvent              
 boundary mode              = full                 
 boundary is built as a function of a smooth density
 function type              =  2 
 using the modified SCCS function with parameters 
 rhomax                     =      0.0050000 
 rhomin                     =      0.0001000 
 volume of the QM region    =    714.6625134 
 surface of the QM region   =    413.1789878 

%%%% DIELECTRIC %%%%%%%%%%%%%%%%%%%%%%%%%%%%%%%%%%%%%%%%%%%%%%%%%%%%%%%%%%%%%%%%%
 dielectric build on homogeneous background
 environment bulk permitt.  =    100.0000000 
 dielectric flags
 need gradient              =  F 
 need factor depend. sqrt   =  T 
 total dielectric charge    =     -0.0000826

%%%% DENSITY %%%%%%%%%%%%%%%%%%%%%%%%%%%%%%%%%%%%%%%%%%%%%%%%%%%%%%%%%%%%%%%%%%%
 density label              = vreference                                                                      
 integral of density        =     0.5439599388E-12

%%%% COMPUTE ELECTROSTATIC POTENTIAL %%%%%%%%%%%%%%%%%%%%%%%%%%%%%%%%%%%%%%%%%%%
 Warning: bad guess with residual norm =   0.152812E+04, reset to no guess
 Iteration #          1
  pAp =    95.5214201087026       rzold =    93.3058039905463       alpha = 
  0.976805033722960     
 delta_qm =   0.290901E-01 delta_en =   0.146229E+04 tol =   0.100000E-04
 Iteration #          2
  pAp =    242.253481632040       rzold =    21.4702015714014       alpha = 
  8.862700930760013E-002
 delta_qm =   0.806201E-02 delta_en =   0.112313E+03 tol =   0.100000E-04
 Iteration #          3
  pAp =    1.61157785805449       rzold =   0.253769825527007       alpha = 
  0.157466686613181     
 delta_qm =   0.669933E-02 delta_en =   0.775543E+02 tol =   0.100000E-04
 Iteration #          4
  pAp =   0.223998584971940       rzold =   3.993090160975990E-002  alpha = 
  0.178264079725155     
 delta_qm =   0.606508E-02 delta_en =   0.635647E+02 tol =   0.100000E-04
 Iteration #          5
  pAp =   3.588746825063154E-002  rzold =   1.250001617743149E-002  alpha = 
  0.348311452068272     
 delta_qm =   0.368346E-02 delta_en =   0.234454E+02 tol =   0.100000E-04
 Iteration #          6
  pAp =   2.096506235401062E-002  rzold =   9.154332244688083E-003  alpha = 
  0.436647031623870     
 delta_qm =   0.232181E-02 delta_en =   0.931527E+01 tol =   0.100000E-04
 Iteration #          7
  pAp =   1.748277159368511E-002  rzold =   6.357869143941722E-003  alpha = 
  0.363664829107430     
 delta_qm =   0.141242E-02 delta_en =   0.344724E+01 tol =   0.100000E-04
 Iteration #          8
  pAp =   1.565618447377130E-002  rzold =   4.750230906585958E-003  alpha = 
  0.303409231958399     
 delta_qm =   0.957507E-03 delta_en =   0.158427E+01 tol =   0.100000E-04
 Iteration #          9
  pAp =   1.613627879670596E-002  rzold =   3.824996463851587E-003  alpha = 
  0.237043280674626     
 delta_qm =   0.660002E-03 delta_en =   0.752722E+00 tol =   0.100000E-04
 Iteration #         10
  pAp =   3.366397194565848E-003  rzold =   1.091412035851201E-003  alpha = 
  0.324207742809730     
 delta_qm =   0.531252E-03 delta_en =   0.487692E+00 tol =   0.100000E-04
 Iteration #         11
  pAp =   5.713456289333054E-004  rzold =   1.942960830509737E-004  alpha = 
  0.340067505922329     
 delta_qm =   0.414766E-03 delta_en =   0.297269E+00 tol =   0.100000E-04
 Iteration #         12
  pAp =   2.676291439496528E-004  rzold =   9.822774449262950E-005  alpha = 
  0.367029326638314     
 delta_qm =   0.273325E-03 delta_en =   0.129093E+00 tol =   0.100000E-04
 Iteration #         13
  pAp =   1.042614952359564E-004  rzold =   5.574068262807167E-005  alpha = 
  0.534623856121800     
 delta_qm =   0.123581E-03 delta_en =   0.263903E-01 tol =   0.100000E-04
 Iteration #         14
  pAp =   8.538601960949248E-005  rzold =   3.078270653382610E-005  alpha = 
  0.360512255690204     
 delta_qm =   0.940049E-04 delta_en =   0.152702E-01 tol =   0.100000E-04
 Iteration #         15
  pAp =   1.914445792311482E-005  rzold =   7.730045690588320E-006  alpha = 
  0.403774592189165     
 delta_qm =   0.757265E-04 delta_en =   0.990922E-02 tol =   0.100000E-04
 Iteration #         16
  pAp =   6.573426110881441E-006  rzold =   2.711512283424254E-006  alpha = 
  0.412496046610413     
 delta_qm =   0.513187E-04 delta_en =   0.455088E-02 tol =   0.100000E-04
 Iteration #         17
  pAp =   2.083554797015795E-006  rzold =   1.150203109326889E-006  alpha = 
  0.552038809334070     
 delta_qm =   0.237203E-04 delta_en =   0.972264E-03 tol =   0.100000E-04
 Iteration #         18
  pAp =   1.254533800941307E-006  rzold =   4.408544858176284E-007  alpha = 
  0.351409013839918     
 delta_qm =   0.156979E-04 delta_en =   0.425823E-03 tol =   0.100000E-04
 Iteration #         19
  pAp =   1.198573418503602E-006  rzold =   3.153100146132262E-007  alpha = 
  0.263071089134352     
 delta_qm =   0.104742E-04 delta_en =   0.189578E-03 tol =   0.100000E-04
 Iteration #         20
  pAp =   2.472353771229298E-007  rzold =   9.402307971178840E-008  alpha = 
  0.380297839273376     
 delta_qm =   0.628926E-05 delta_en =   0.683506E-04 tol =   0.100000E-04
 Iteration #         21
  pAp =   6.608755025390509E-008  rzold =   2.801056470920293E-008  alpha = 
  0.423840263432186     
 delta_qm =   0.375268E-05 delta_en =   0.243347E-04 tol =   0.100000E-04
 Iteration #         22
  pAp =   1.132881038674437E-008  rzold =   5.552398268643130E-009  alpha = 
  0.490113090350589     
 delta_qm =   0.225243E-05 delta_en =   0.876689E-05 tol =   0.100000E-04
 Charges are converged, EXIT

%%%% DENSITY %%%%%%%%%%%%%%%%%%%%%%%%%%%%%%%%%%%%%%%%%%%%%%%%%%%%%%%%%%%%%%%%%%%
 density label              = velectrostatic                                                                  
 integral of density        =    -0.7065952761E-13

%%%% CHARGES %%%%%%%%%%%%%%%%%%%%%%%%%%%%%%%%%%%%%%%%%%%%%%%%%%%%%%%%%%%%%%%%%%%
 total number of charges    =         34
 total charge               =     -1.0000000

%%%% DENSITY %%%%%%%%%%%%%%%%%%%%%%%%%%%%%%%%%%%%%%%%%%%%%%%%%%%%%%%%%%%%%%%%%%%
 density label              = vsoftcavity                                                                     
 integral of density        =      46.80782397    

%%%% ELECTRONS %%%%%%%%%%%%%%%%%%%%%%%%%%%%%%%%%%%%%%%%%%%%%%%%%%%%%%%%%%%%%%%%%
 number of electrons        =         24
 total electronic charge    =     24.0000000

%%%% BOUNDARY %%%%%%%%%%%%%%%%%%%%%%%%%%%%%%%%%%%%%%%%%%%%%%%%%%%%%%%%%%%%%%%%%%
 boundary label             = solvent              
 boundary mode              = full                 
 boundary is built as a function of a smooth density
 function type              =  2 
 using the modified SCCS function with parameters 
 rhomax                     =      0.0050000 
 rhomin                     =      0.0001000 
 volume of the QM region    =    714.5951077 
 surface of the QM region   =    413.3101614 

%%%% DIELECTRIC %%%%%%%%%%%%%%%%%%%%%%%%%%%%%%%%%%%%%%%%%%%%%%%%%%%%%%%%%%%%%%%%%
 dielectric build on homogeneous background
 environment bulk permitt.  =    100.0000000 
 dielectric flags
 need gradient              =  F 
 need factor depend. sqrt   =  T 
 total dielectric charge    =      0.0000900

%%%% DENSITY %%%%%%%%%%%%%%%%%%%%%%%%%%%%%%%%%%%%%%%%%%%%%%%%%%%%%%%%%%%%%%%%%%%
 density label              = vreference                                                                      
 integral of density        =    -0.3754034121E-12

%%%% COMPUTE ELECTROSTATIC POTENTIAL %%%%%%%%%%%%%%%%%%%%%%%%%%%%%%%%%%%%%%%%%%%
 Warning: bad guess with residual norm =   0.158744E+04, reset to no guess
 Iteration #          1
  pAp =    95.5797025820443       rzold =    93.3292568503678       alpha = 
  0.976454773650872     
 delta_qm =   0.296379E-01 delta_en =   0.151788E+04 tol =   0.100000E-04
 Iteration #          2
  pAp =    246.545664518046       rzold =    21.8220607460022       alpha = 
  8.851123295418938E-002
 delta_qm =   0.775922E-02 delta_en =   0.104035E+03 tol =   0.100000E-04
 Iteration #          3
  pAp =    1.67914262173105       rzold =   0.263844609158260       alpha = 
  0.157130553261914     
 delta_qm =   0.648123E-02 delta_en =   0.725869E+02 tol =   0.100000E-04
 Iteration #          4
  pAp =   0.220885711286588       rzold =   3.920889457002896E-002  alpha = 
  0.177507609440419     
 delta_qm =   0.590138E-02 delta_en =   0.601799E+02 tol =   0.100000E-04
 Iteration #          5
  pAp =   3.658267415166373E-002  rzold =   1.253617731007144E-002  alpha = 
  0.342680725255327     
 delta_qm =   0.362291E-02 delta_en =   0.226808E+02 tol =   0.100000E-04
 Iteration #          6
  pAp =   2.088971003482516E-002  rzold =   9.045716842797071E-003  alpha = 
  0.433022613895405     
 delta_qm =   0.228204E-02 delta_en =   0.899896E+01 tol =   0.100000E-04
 Iteration #          7
  pAp =   1.708029178827119E-002  rzold =   6.267437180270573E-003  alpha = 
  0.366939702082510     
 delta_qm =   0.139269E-02 delta_en =   0.335159E+01 tol =   0.100000E-04
 Iteration #          8
  pAp =   1.513924132795312E-002  rzold =   4.630120316007150E-003  alpha = 
  0.305835689894056     
 delta_qm =   0.955984E-03 delta_en =   0.157923E+01 tol =   0.100000E-04
 Iteration #          9
  pAp =   1.622046229553683E-002  rzold =   3.828712151197003E-003  alpha = 
  0.236042110356528     
 delta_qm =   0.652463E-03 delta_en =   0.735624E+00 tol =   0.100000E-04
 Iteration #         10
  pAp =   3.364235924365061E-003  rzold =   1.089300403125871E-003  alpha = 
  0.323788351238017     
 delta_qm =   0.522490E-03 delta_en =   0.471737E+00 tol =   0.100000E-04
 Iteration #         11
  pAp =   5.846547394577098E-004  rzold =   1.973453455664578E-004  alpha = 
  0.337541684429863     
 delta_qm =   0.407366E-03 delta_en =   0.286756E+00 tol =   0.100000E-04
 Iteration #         12
  pAp =   2.654630609827862E-004  rzold =   9.694824143465078E-005  alpha = 
  0.365204262603366     
 delta_qm =   0.271035E-03 delta_en =   0.126939E+00 tol =   0.100000E-04
 Iteration #         13
  pAp =   1.032319833632034E-004  rzold =   5.490776896446641E-005  alpha = 
  0.531887184335916     
 delta_qm =   0.125330E-03 delta_en =   0.271429E-01 tol =   0.100000E-04
 Iteration #         14
  pAp =   8.624286221322907E-005  rzold =   3.127362748351882E-005  alpha = 
  0.362622791973173     
 delta_qm =   0.938686E-04 delta_en =   0.152260E-01 tol =   0.100000E-04
 Iteration #         15
  pAp =   1.960504425327745E-005  rzold =   7.875624833207889E-006  alpha = 
  0.401714208418137     
 delta_qm =   0.753204E-04 delta_en =   0.980321E-02 tol =   0.100000E-04
 Iteration #         16
  pAp =   6.806110828484609E-006  rzold =   2.794928382537316E-006  alpha = 
  0.410649848785905     
 delta_qm =   0.511031E-04 delta_en =   0.451272E-02 tol =   0.100000E-04
 Iteration #         17
  pAp =   1.994776826666797E-006  rzold =   1.140213336221507E-006  alpha = 
  0.571599449611997     
 delta_qm =   0.230711E-04 delta_en =   0.919774E-03 tol =   0.100000E-04
 Iteration #         18
  pAp =   7.823117057783299E-007  rzold =   3.861332068105663E-007  alpha = 
  0.493579738048785     
 delta_qm =   0.136357E-04 delta_en =   0.321293E-03 tol =   0.100000E-04
 Iteration #         19
  pAp =   3.699022931410207E-007  rzold =   1.565095741097251E-007  alpha = 
  0.423110580852922     
 delta_qm =   0.810016E-05 delta_en =   0.113378E-03 tol =   0.100000E-04
 Iteration #         20
  pAp =   1.267636941408044E-007  rzold =   4.895719149259996E-008  alpha = 
  0.386208305338752     
 delta_qm =   0.508180E-05 delta_en =   0.446250E-04 tol =   0.100000E-04
 Iteration #         21
  pAp =   1.293497833238717E-007  rzold =   2.695319337267069E-008  alpha = 
  0.208374476400815     
 delta_qm =   0.376617E-05 delta_en =   0.245100E-04 tol =   0.100000E-04
 Iteration #         22
  pAp =   1.467974191579475E-008  rzold =   6.335318482426730E-009  alpha = 
  0.431568791792600     
 delta_qm =   0.227846E-05 delta_en =   0.897067E-05 tol =   0.100000E-04
 Charges are converged, EXIT

%%%% DENSITY %%%%%%%%%%%%%%%%%%%%%%%%%%%%%%%%%%%%%%%%%%%%%%%%%%%%%%%%%%%%%%%%%%%
 density label              = velectrostatic                                                                  
 integral of density        =    -0.1417138012E-12

%%%% CHARGES %%%%%%%%%%%%%%%%%%%%%%%%%%%%%%%%%%%%%%%%%%%%%%%%%%%%%%%%%%%%%%%%%%%
 total number of charges    =         34
 total charge               =     -1.0000000

%%%% DENSITY %%%%%%%%%%%%%%%%%%%%%%%%%%%%%%%%%%%%%%%%%%%%%%%%%%%%%%%%%%%%%%%%%%%
 density label              = vsoftcavity                                                                     
 integral of density        =      46.92635179    

%%%% ELECTRONS %%%%%%%%%%%%%%%%%%%%%%%%%%%%%%%%%%%%%%%%%%%%%%%%%%%%%%%%%%%%%%%%%
 number of electrons        =         24
 total electronic charge    =     24.0000000

%%%% BOUNDARY %%%%%%%%%%%%%%%%%%%%%%%%%%%%%%%%%%%%%%%%%%%%%%%%%%%%%%%%%%%%%%%%%%
 boundary label             = solvent              
 boundary mode              = full                 
 boundary is built as a function of a smooth density
 function type              =  2 
 using the modified SCCS function with parameters 
 rhomax                     =      0.0050000 
 rhomin                     =      0.0001000 
 volume of the QM region    =    714.7424185 
 surface of the QM region   =    413.4187301 

%%%% DIELECTRIC %%%%%%%%%%%%%%%%%%%%%%%%%%%%%%%%%%%%%%%%%%%%%%%%%%%%%%%%%%%%%%%%%
 dielectric build on homogeneous background
 environment bulk permitt.  =    100.0000000 
 dielectric flags
 need gradient              =  F 
 need factor depend. sqrt   =  T 
 total dielectric charge    =      0.0002615

%%%% DENSITY %%%%%%%%%%%%%%%%%%%%%%%%%%%%%%%%%%%%%%%%%%%%%%%%%%%%%%%%%%%%%%%%%%%
 density label              = vreference                                                                      
 integral of density        =     0.6802130875E-12

%%%% COMPUTE ELECTROSTATIC POTENTIAL %%%%%%%%%%%%%%%%%%%%%%%%%%%%%%%%%%%%%%%%%%%
 Warning: bad guess with residual norm =   0.165162E+04, reset to no guess
 Iteration #          1
  pAp =    95.6278658955188       rzold =    93.3289953526852       alpha = 
  0.975960244210142     
 delta_qm =   0.302153E-01 delta_en =   0.157760E+04 tol =   0.100000E-04
 Iteration #          2
  pAp =    251.617459530295       rzold =    22.2724598919938       alpha = 
  8.851714794979162E-002
 delta_qm =   0.748063E-02 delta_en =   0.966985E+02 tol =   0.100000E-04
 Iteration #          3
  pAp =    1.75653163425565       rzold =   0.275007422958637       alpha = 
  0.156562749907533     
 delta_qm =   0.626445E-02 delta_en =   0.678124E+02 tol =   0.100000E-04
 Iteration #          4
  pAp =   0.216945780080500       rzold =   3.844198322578183E-002  alpha = 
  0.177196270936994     
 delta_qm =   0.573920E-02 delta_en =   0.569177E+02 tol =   0.100000E-04
 Iteration #          5
  pAp =   3.700255981043354E-002  rzold =   1.252521323646344E-002  alpha = 
  0.338495858141461     
 delta_qm =   0.356438E-02 delta_en =   0.219539E+02 tol =   0.100000E-04
 Iteration #          6
  pAp =   2.075755976592110E-002  rzold =   8.932454412044957E-003  alpha = 
  0.430322952831377     
 delta_qm =   0.224583E-02 delta_en =   0.871563E+01 tol =   0.100000E-04
 Iteration #          7
  pAp =   1.662572960920650E-002  rzold =   6.167859062364534E-003  alpha = 
  0.370982760296371     
 delta_qm =   0.137056E-02 delta_en =   0.324594E+01 tol =   0.100000E-04
 Iteration #          8
  pAp =   1.453793074820781E-002  rzold =   4.501467594088674E-003  alpha = 
  0.309636059770308     
 delta_qm =   0.947915E-03 delta_en =   0.155268E+01 tol =   0.100000E-04
 Iteration #          9
  pAp =   1.628510476974896E-002  rzold =   3.819044727965013E-003  alpha = 
  0.234511523380509     
 delta_qm =   0.638120E-03 delta_en =   0.703637E+00 tol =   0.100000E-04
 Iteration #         10
  pAp =   3.354155917197511E-003  rzold =   1.082378893085572E-003  alpha = 
  0.322697847030895     
 delta_qm =   0.506253E-03 delta_en =   0.442874E+00 tol =   0.100000E-04
 Iteration #         11
  pAp =   5.917594880038786E-004  rzold =   1.975961206571122E-004  alpha = 
  0.333912889717481     
 delta_qm =   0.394758E-03 delta_en =   0.269282E+00 tol =   0.100000E-04
 Iteration #         12
  pAp =   2.605796390642617E-004  rzold =   9.485190965818609E-005  alpha = 
  0.364003534576984     
 delta_qm =   0.265202E-03 delta_en =   0.121534E+00 tol =   0.100000E-04
 Iteration #         13
  pAp =   9.955438570621999E-005  rzold =   5.324749549307063E-005  alpha = 
  0.534858360235393     
 delta_qm =   0.125525E-03 delta_en =   0.272273E-01 tol =   0.100000E-04
 Iteration #         14
  pAp =   8.533317615548774E-005  rzold =   3.119323488901045E-005  alpha = 
  0.365546394665686     
 delta_qm =   0.924031E-04 delta_en =   0.147542E-01 tol =   0.100000E-04
 Iteration #         15
  pAp =   1.968516644719158E-005  rzold =   7.872665727432435E-006  alpha = 
  0.399928837206027     
 delta_qm =   0.734883E-04 delta_en =   0.933212E-02 tol =   0.100000E-04
 Iteration #         16
  pAp =   6.881387645048916E-006  rzold =   2.807381115038308E-006  alpha = 
  0.407967296691706     
 delta_qm =   0.497791E-04 delta_en =   0.428191E-02 tol =   0.100000E-04
 Iteration #         17
  pAp =   1.942971738712428E-006  rzold =   1.105623651167753E-006  alpha = 
  0.569037433298145     
 delta_qm =   0.227341E-04 delta_en =   0.893097E-03 tol =   0.100000E-04
 Iteration #         18
  pAp =   1.114842811954383E-006  rzold =   4.258815050017180E-007  alpha = 
  0.382010360954047     
 delta_qm =   0.148305E-04 delta_en =   0.380062E-03 tol =   0.100000E-04
 Iteration #         19
  pAp =   1.135335622582610E-006  rzold =   2.874995483074851E-007  alpha = 
  0.253228686380415     
 delta_qm =   0.104266E-04 delta_en =   0.187859E-03 tol =   0.100000E-04
 Iteration #         20
  pAp =   2.870315939588590E-007  rzold =   1.019649021242695E-007  alpha = 
  0.355239298635830     
 delta_qm =   0.640957E-05 delta_en =   0.709907E-04 tol =   0.100000E-04
 Iteration #         21
  pAp =   6.676689658157765E-008  rzold =   2.879400100604622E-008  alpha = 
  0.431261635335483     
 delta_qm =   0.380000E-05 delta_en =   0.249523E-04 tol =   0.100000E-04
 Iteration #         22
  pAp =   1.176828009688655E-008  rzold =   5.813133437290747E-009  alpha = 
  0.493966271148550     
 delta_qm =   0.223782E-05 delta_en =   0.865353E-05 tol =   0.100000E-04
 Charges are converged, EXIT

%%%% DENSITY %%%%%%%%%%%%%%%%%%%%%%%%%%%%%%%%%%%%%%%%%%%%%%%%%%%%%%%%%%%%%%%%%%%
 density label              = velectrostatic                                                                  
 integral of density        =    -0.1786225489E-12

%%%% CHARGES %%%%%%%%%%%%%%%%%%%%%%%%%%%%%%%%%%%%%%%%%%%%%%%%%%%%%%%%%%%%%%%%%%%
 total number of charges    =         34
 total charge               =     -1.0000000

%%%% DENSITY %%%%%%%%%%%%%%%%%%%%%%%%%%%%%%%%%%%%%%%%%%%%%%%%%%%%%%%%%%%%%%%%%%%
 density label              = vsoftcavity                                                                     
 integral of density        =      47.05636576    

%%%% ELECTRONS %%%%%%%%%%%%%%%%%%%%%%%%%%%%%%%%%%%%%%%%%%%%%%%%%%%%%%%%%%%%%%%%%
 number of electrons        =         24
 total electronic charge    =     24.0000000

%%%% BOUNDARY %%%%%%%%%%%%%%%%%%%%%%%%%%%%%%%%%%%%%%%%%%%%%%%%%%%%%%%%%%%%%%%%%%
 boundary label             = solvent              
 boundary mode              = full                 
 boundary is built as a function of a smooth density
 function type              =  2 
 using the modified SCCS function with parameters 
 rhomax                     =      0.0050000 
 rhomin                     =      0.0001000 
 volume of the QM region    =    714.7424185 
 surface of the QM region   =    413.4187301 

%%%% DIELECTRIC %%%%%%%%%%%%%%%%%%%%%%%%%%%%%%%%%%%%%%%%%%%%%%%%%%%%%%%%%%%%%%%%%
 dielectric build on homogeneous background
 environment bulk permitt.  =    100.0000000 
 dielectric flags
 need gradient              =  F 
 need factor depend. sqrt   =  T 
 total dielectric charge    =      0.0003085

%%%% DENSITY %%%%%%%%%%%%%%%%%%%%%%%%%%%%%%%%%%%%%%%%%%%%%%%%%%%%%%%%%%%%%%%%%%%
 density label              = vreference                                                                      
 integral of density        =     0.6802130875E-12

%%%% DENSITY %%%%%%%%%%%%%%%%%%%%%%%%%%%%%%%%%%%%%%%%%%%%%%%%%%%%%%%%%%%%%%%%%%%
 density label              = velectrostatic                                                                  
 integral of density        =    -0.1786225489E-12

%%%% CHARGES %%%%%%%%%%%%%%%%%%%%%%%%%%%%%%%%%%%%%%%%%%%%%%%%%%%%%%%%%%%%%%%%%%%
 total number of charges    =         34
 total charge               =     -1.0000000

%%%% DENSITY %%%%%%%%%%%%%%%%%%%%%%%%%%%%%%%%%%%%%%%%%%%%%%%%%%%%%%%%%%%%%%%%%%%
 density label              = vsoftcavity                                                                     
 integral of density        =      47.05636576    
