
     Program PWSCF v.6.1 (svn rev. 13369) starts on 31Jan2018 at 22:11:43 

     This program is part of the open-source Quantum ESPRESSO suite
     for quantum simulation of materials; please cite
         "P. Giannozzi et al., J. Phys.:Condens. Matter 21 395502 (2009);
          URL http://www.quantum-espresso.org", 
     in publications or presentations arising from this work. More details at
     http://www.quantum-espresso.org/quote

     Parallel version (MPI), running on     1 processors
     Reading input from slab.in

     Current dimensions of program PWSCF are:
     Max number of different atomic species (ntypx) = 10
     Max number of k-points (npk) =  40000
     Max angular momentum in pseudopotentials (lmaxx) =  3
               file C.pbe-rrkjus.UPF: wavefunction(s)  2S 2P renormalized
               file O.pbe-rrkjus.UPF: wavefunction(s)  2S renormalized

     gamma-point specific algorithms are used

     Subspace diagonalization in iterative solution of the eigenvalue problem:
     a serial algorithm will be used

 
     G-vector sticks info
     --------------------
     sticks:   dense  smooth     PW     G-vecs:    dense   smooth      PW
     Sum        2357    1099    269               366833   116965   14571
 


     bravais-lattice index     =            8
     lattice parameter (alat)  =      10.6881  a.u.
     unit-cell volume          =    4181.1215 (a.u.)^3
     number of atoms/cell      =           10
     number of atomic types    =            3
     number of electrons       =        89.00
     number of Kohn-Sham states=           80
     kinetic-energy cutoff     =      35.0000  Ry
     charge density cutoff     =     300.0000  Ry
     convergence threshold     =      5.0E-03
     mixing beta               =       0.7000
     number of iterations used =            8  plain     mixing
     Exchange-correlation      = PBE ( 1  4  3  4 0 0)
 

     Environ Module
     ==============

     Plese cite
         O. Andreussi, I. Dabo and N. Marzari, J. Chem. Phys. 136, 064102 (2012)         
     in publications or presentations arising from this work.

     compensation onset threshold      =               0.1000E+03 

     Electrostatic Setup
     -------------------
     electrostatic problem to solve    = poisson                  
     numerical solver adopted          = direct                   
     type of auxiliary density adopted = none                     
     type of core tool for poisson     = fft                      
     type of core tool for s(r) deriv  = analytic                 



     celldm(1)=  10.688100  celldm(2)=   0.866025  celldm(3)=   3.954220
     celldm(4)=   0.000000  celldm(5)=   0.000000  celldm(6)=   0.000000

     crystal axes: (cart. coord. in units of alat)
               a(1) = (   1.000000   0.000000   0.000000 )  
               a(2) = (   0.000000   0.866025   0.000000 )  
               a(3) = (   0.000000   0.000000   3.954220 )  

     reciprocal axes: (cart. coord. in units 2 pi/alat)
               b(1) = (  1.000000  0.000000  0.000000 )  
               b(2) = (  0.000000  1.154701  0.000000 )  
               b(3) = (  0.000000  0.000000  0.252894 )  


     PseudoPot. # 1 for C  read from file:
     /home/fnattino/Programs/qe-6.1/Environ/tests/../..//pseudo/C.pbe-rrkjus.UPF
     MD5 check sum: 00fb224312de0c5b6853bd333518df6f
     Pseudo is Ultrasoft, Zval =  4.0
     Generated by new atomic code, or converted to UPF format
     Using radial grid of  627 points,  4 beta functions with: 
                l(1) =   0
                l(2) =   0
                l(3) =   1
                l(4) =   1
     Q(r) pseudized with 0 coefficients 


     PseudoPot. # 2 for O  read from file:
     /home/fnattino/Programs/qe-6.1/Environ/tests/../..//pseudo/O.pbe-rrkjus.UPF
     MD5 check sum: 390ba29e75625707450f3bd3f0eb6be9
     Pseudo is Ultrasoft, Zval =  6.0
     Generated by new atomic code, or converted to UPF format
     Using radial grid of 1269 points,  4 beta functions with: 
                l(1) =   0
                l(2) =   0
                l(3) =   1
                l(4) =   1
     Q(r) pseudized with 0 coefficients 


     PseudoPot. # 3 for Pt read from file:
     /home/fnattino/Programs/qe-6.1/Environ/tests/../..//pseudo/Pt.pbe-n-rrkjus_psl.0.1.UPF
     MD5 check sum: df5be8f5ed4f66d4aed38ca70ec8d507
     Pseudo is Ultrasoft + core correction, Zval = 10.0
     Generated using "atomic" code by A. Dal Corso  v.5.0.2 svn rev. 9415
     Using radial grid of 1277 points,  6 beta functions with: 
                l(1) =   0
                l(2) =   0
                l(3) =   1
                l(4) =   1
                l(5) =   2
                l(6) =   2
     Q(r) pseudized with 0 coefficients 


     atomic species   valence    mass     pseudopotential
        C              4.00     1.00000     C ( 1.00)
        O              6.00     1.00000     O ( 1.00)
        Pt            10.00     1.00000     Pt( 1.00)

     No symmetry found



   Cartesian axes

     site n.     atom                  positions (alat units)
         1           C   tau(   1) = (   0.4991611   0.4347567   0.7762281  )
         2           O   tau(   2) = (   0.4991542   0.4322212   0.9800832  )
         3           Pt  tau(   3) = (   0.7542339   0.0091745   0.4105048  )
         4           Pt  tau(   4) = (   0.2441023   0.0091745   0.4105046  )
         5           Pt  tau(   5) = (   0.0000034   0.4416918   0.4083168  )
         6           Pt  tau(   6) = (   0.4991682   0.4417635   0.4468119  )
         7           Pt  tau(   7) = (   0.0000038   0.7300598   0.0000000  )
         8           Pt  tau(   8) = (   0.4991683   0.7202168   0.0139279  )
         9           Pt  tau(   9) = (   0.2524172   0.2949237   0.0078392  )
        10           Pt  tau(  10) = (   0.7459196   0.2949237   0.0078394  )

     number of k points=     1  Marzari-Vanderbilt smearing, width (Ry)=  0.0300
                       cart. coord. in units 2pi/alat
        k(    1) = (   0.0000000   0.0000000   0.0000000), wk =   2.0000000

     Dense  grid:   183417 G-vectors     FFT dimensions: (  60,  54, 240)

     Smooth grid:    58483 G-vectors     FFT dimensions: (  45,  36, 160)

     Estimated max dynamical RAM per process >     231.32MB

     Initial potential from superposition of free atoms
     Check: negative starting charge=   -0.003083

     starting charge   89.99859, renormalised to   89.00000

     negative rho (up, down):  3.049E-03 0.000E+00
     Starting wfc are   80 randomized atomic wfcs

     total cpu time spent up to now is        5.3 secs

     per-process dynamical memory:   214.2 Mb

     Self-consistent Calculation

     iteration #  1     ecut=    35.00 Ry     beta=0.70
     Davidson diagonalization with overlap
     ethr =  1.00E-02,  avg # of iterations =  5.0

     negative rho (up, down):  2.886E-03 0.000E+00

     add environment contribution to local potential

     total cpu time spent up to now is        7.6 secs

     total energy              =    -622.68828071 Ry
     Harris-Foulkes estimate   =    -624.21130265 Ry
     estimated scf accuracy    <       1.86638633 Ry
     electrostatic embedding   =       0.03381190 Ry
     correction to one-el term =       0.00000000 Ry

     iteration #  2     ecut=    35.00 Ry     beta=0.70
     Davidson diagonalization with overlap
     ethr =  2.10E-03,  avg # of iterations =  7.0

     negative rho (up, down):  3.619E-02 0.000E+00

     total cpu time spent up to now is       10.1 secs

     total energy              =    -610.12611772 Ry
     Harris-Foulkes estimate   =    -653.59192448 Ry
     estimated scf accuracy    <     396.93924418 Ry
     electrostatic embedding   =       2.36103941 Ry
     correction to one-el term =      14.14089140 Ry

     iteration #  3     ecut=    35.00 Ry     beta=0.70
     Davidson diagonalization with overlap
     ethr =  2.10E-03,  avg # of iterations =  5.0

     negative rho (up, down):  3.270E-02 0.000E+00

     add environment contribution to local potential

     total cpu time spent up to now is       12.5 secs

     total energy              =    -621.51587391 Ry
     Harris-Foulkes estimate   =    -639.30119873 Ry
     estimated scf accuracy    <      16.25054266 Ry
     electrostatic embedding   =       2.17642539 Ry
     correction to one-el term =      14.51011943 Ry

     iteration #  4     ecut=    35.00 Ry     beta=0.70
     Davidson diagonalization with overlap
     ethr =  2.10E-03,  avg # of iterations =  1.0

     negative rho (up, down):  9.527E-02 0.000E+00

     add environment contribution to local potential

     total cpu time spent up to now is       14.4 secs

     total energy              =    -621.53830271 Ry
     Harris-Foulkes estimate   =    -638.99288078 Ry
     estimated scf accuracy    <      18.54856600 Ry
     electrostatic embedding   =       2.07135590 Ry
     correction to one-el term =      14.43057490 Ry

     iteration #  5     ecut=    35.00 Ry     beta=0.70
     Davidson diagonalization with overlap
     ethr =  2.10E-03,  avg # of iterations =  1.0

     negative rho (up, down):  1.330E-01 0.000E+00

     add environment contribution to local potential

     total cpu time spent up to now is       16.4 secs

     total energy              =    -621.72682597 Ry
     Harris-Foulkes estimate   =    -638.73935224 Ry
     estimated scf accuracy    <       3.80030068 Ry
     electrostatic embedding   =       2.01696118 Ry
     correction to one-el term =      14.48496962 Ry

     iteration #  6     ecut=    35.00 Ry     beta=0.70
     Davidson diagonalization with overlap
     ethr =  2.10E-03,  avg # of iterations =  1.0

     negative rho (up, down):  1.425E-01 0.000E+00

     add environment contribution to local potential

     total cpu time spent up to now is       18.4 secs

     total energy              =    -621.83185673 Ry
     Harris-Foulkes estimate   =    -638.63143414 Ry
     estimated scf accuracy    <       2.87849149 Ry
     electrostatic embedding   =       2.02557306 Ry
     correction to one-el term =      14.47635774 Ry

     iteration #  7     ecut=    35.00 Ry     beta=0.70
     Davidson diagonalization with overlap
     ethr =  2.10E-03,  avg # of iterations =  1.0

     negative rho (up, down):  1.491E-01 0.000E+00

     add environment contribution to local potential

     total cpu time spent up to now is       20.3 secs

     total energy              =    -621.87991391 Ry
     Harris-Foulkes estimate   =    -638.47502194 Ry
     estimated scf accuracy    <       1.10700796 Ry
     electrostatic embedding   =       2.00719417 Ry
     correction to one-el term =      14.49473663 Ry

     iteration #  8     ecut=    35.00 Ry     beta=0.70
     Davidson diagonalization with overlap
     ethr =  1.24E-03,  avg # of iterations =  1.0

     negative rho (up, down):  1.196E-01 0.000E+00

     add environment contribution to local potential

     total cpu time spent up to now is       22.3 secs

     total energy              =    -621.89898414 Ry
     Harris-Foulkes estimate   =    -638.48588701 Ry
     estimated scf accuracy    <       0.97873783 Ry
     electrostatic embedding   =       1.98940207 Ry
     correction to one-el term =      14.51252874 Ry

     iteration #  9     ecut=    35.00 Ry     beta=0.70
     Davidson diagonalization with overlap
     ethr =  1.10E-03,  avg # of iterations =  1.0

     negative rho (up, down):  8.735E-02 0.000E+00

     add environment contribution to local potential

     total cpu time spent up to now is       24.2 secs

     total energy              =    -621.91219128 Ry
     Harris-Foulkes estimate   =    -638.43323260 Ry
     estimated scf accuracy    <       0.15311637 Ry
     electrostatic embedding   =       1.98081829 Ry
     correction to one-el term =      14.52111251 Ry

     iteration # 10     ecut=    35.00 Ry     beta=0.70
     Davidson diagonalization with overlap
     ethr =  1.72E-04,  avg # of iterations =  4.0

     negative rho (up, down):  7.278E-02 0.000E+00

     add environment contribution to local potential

     total cpu time spent up to now is       26.3 secs

     total energy              =    -621.90674156 Ry
     Harris-Foulkes estimate   =    -638.42110352 Ry
     estimated scf accuracy    <       0.10640709 Ry
     electrostatic embedding   =       1.97558370 Ry
     correction to one-el term =      14.52634710 Ry

     iteration # 11     ecut=    35.00 Ry     beta=0.70
     Davidson diagonalization with overlap
     ethr =  1.20E-04,  avg # of iterations =  3.0

     negative rho (up, down):  1.085E-02 0.000E+00

     add environment contribution to local potential

     total cpu time spent up to now is       28.3 secs

     total energy              =    -621.88924286 Ry
     Harris-Foulkes estimate   =    -638.41368008 Ry
     estimated scf accuracy    <       0.07464308 Ry
     electrostatic embedding   =       1.96843801 Ry
     correction to one-el term =      14.53349279 Ry

     iteration # 12     ecut=    35.00 Ry     beta=0.70
     Davidson diagonalization with overlap
     ethr =  8.39E-05,  avg # of iterations =  9.0

     negative rho (up, down):  6.385E-03 0.000E+00

     add environment contribution to local potential

     total cpu time spent up to now is       30.5 secs

     total energy              =    -621.88869294 Ry
     Harris-Foulkes estimate   =    -638.40328925 Ry
     estimated scf accuracy    <       0.12598663 Ry
     electrostatic embedding   =       1.94658109 Ry
     correction to one-el term =      14.55534971 Ry

     iteration # 13     ecut=    35.00 Ry     beta=0.70
     Davidson diagonalization with overlap
     ethr =  8.39E-05,  avg # of iterations =  1.0

     negative rho (up, down):  3.758E-03 0.000E+00

     add environment contribution to local potential

     total cpu time spent up to now is       32.4 secs

     total energy              =    -621.88708474 Ry
     Harris-Foulkes estimate   =    -638.39674836 Ry
     estimated scf accuracy    <       0.01433919 Ry
     electrostatic embedding   =       1.93970665 Ry
     correction to one-el term =      14.56222415 Ry

     iteration # 14     ecut=    35.00 Ry     beta=0.70
     Davidson diagonalization with overlap
     ethr =  1.61E-05,  avg # of iterations =  5.0

     negative rho (up, down):  3.970E-03 0.000E+00

     add environment contribution to local potential

     total cpu time spent up to now is       34.6 secs

     total energy              =    -621.88954469 Ry
     Harris-Foulkes estimate   =    -638.39595352 Ry
     estimated scf accuracy    <       0.01712532 Ry
     electrostatic embedding   =       1.92081775 Ry
     correction to one-el term =      14.58111305 Ry

     iteration # 15     ecut=    35.00 Ry     beta=0.70
     Davidson diagonalization with overlap
     ethr =  1.61E-05,  avg # of iterations =  2.0

     negative rho (up, down):  3.738E-03 0.000E+00

     total cpu time spent up to now is       36.5 secs

     End of self-consistent calculation

          k = 0.0000 0.0000 0.0000 (  7286 PWs)   bands (ev):

   -28.5746 -16.1562 -15.0638 -13.7904 -13.0769 -12.9635 -12.3129 -12.1512
   -11.9454 -11.6232 -11.6100 -11.5355 -11.5314 -11.3342 -11.2730 -11.1673
   -10.5298 -10.4810 -10.3600 -10.3061 -10.2429 -10.2237 -10.1944 -10.1604
   -10.0734  -9.9573  -9.9021  -9.8138  -9.5891  -9.4669  -9.3794  -8.5568
    -8.4730  -8.2845  -8.0292  -7.9964  -7.9467  -7.7893  -7.6205  -7.4826
    -7.3095  -7.3058  -7.1058  -7.0720  -7.0238  -6.8570  -6.8101  -5.5695
    -5.2418  -5.2342  -4.5619  -3.9479  -3.5244  -2.4611  -1.7713  -1.6821
    -1.2293  -0.6091   0.3160   0.6083   0.7555   1.2813   1.6416   1.9188
     1.9580   2.3778   3.5309   4.3192   4.4008   4.7704   4.7995   4.8941
     5.3447   5.4136   5.5160   6.2531   6.4425   6.6746   7.0004   7.0304

     the Fermi energy is    -6.9474 ev

!    total energy              =    -621.88901376 Ry
     Harris-Foulkes estimate   =    -638.39408711 Ry
     estimated scf accuracy    <       0.00345007 Ry

     The total energy is the sum of the following terms:

     one-electron contribution =   -3955.92556416 Ry
     hartree contribution      =    2006.87720628 Ry
     xc contribution           =    -262.54209021 Ry
     ewald contribution        =    1573.20467954 Ry
     smearing contrib. (-TS)   =      -0.00517602 Ry
     electrostatic embedding   =       1.92523261 Ry
     correction to one-el term =      14.57669819 Ry

     convergence has been achieved in  15 iterations

     negative rho (up, down):  3.738E-03 0.000E+00

     Forces acting on atoms (cartesian axes, Ry/au):

     atom    1 type  1   force =     0.00047417   -0.00422799    0.15407359
     atom    2 type  2   force =    -0.00036800    0.00161063   -0.07690491
     atom    3 type  3   force =    -0.00165563    0.01271717    0.03356739
     atom    4 type  3   force =     0.00294208    0.01503778    0.02675823
     atom    5 type  3   force =     0.00388487    0.01207005    0.00021209
     atom    6 type  3   force =    -0.00453237    0.00726229   -0.00625446
     atom    7 type  3   force =     0.00589686   -0.01443797   -0.03751499
     atom    8 type  3   force =    -0.00716000   -0.01714103   -0.02505070
     atom    9 type  3   force =     0.01583333   -0.00738867   -0.03365580
     atom   10 type  3   force =    -0.01531532   -0.00550226   -0.03523045

     Total force =     0.194310     Total SCF correction =     0.154317
     SCF correction compared to forces is large: reduce conv_thr to get better values

     Writing output data file pwscf.save
 
     init_run     :      4.85s CPU      4.95s WALL (       1 calls)
     electrons    :     29.21s CPU     31.24s WALL (       1 calls)
     forces       :      2.80s CPU      2.86s WALL (       1 calls)

     Called by init_run:
     wfcinit      :      0.20s CPU      0.21s WALL (       1 calls)
     potinit      :      1.32s CPU      1.34s WALL (       1 calls)

     Called by electrons:
     c_bands      :      8.84s CPU      9.00s WALL (      15 calls)
     sum_band     :      9.45s CPU     10.27s WALL (      15 calls)
     v_of_rho     :      4.13s CPU      4.23s WALL (      16 calls)
     newd         :      5.92s CPU      6.87s WALL (      16 calls)
     mix_rho      :      0.40s CPU      0.39s WALL (      15 calls)

     Called by c_bands:
     init_us_2    :      0.13s CPU      0.14s WALL (      31 calls)
     regterg      :      7.89s CPU      8.04s WALL (      15 calls)

     Called by sum_band:
     sum_band:bec :      0.00s CPU      0.00s WALL (      15 calls)
     addusdens    :      7.65s CPU      8.43s WALL (      15 calls)

     Called by *egterg:
     h_psi        :      5.60s CPU      5.64s WALL (      63 calls)
     s_psi        :      0.39s CPU      0.39s WALL (      63 calls)
     g_psi        :      0.07s CPU      0.07s WALL (      47 calls)
     rdiaghg      :      0.45s CPU      0.46s WALL (      62 calls)

     Called by h_psi:
     h_psi:pot    :      5.57s CPU      5.58s WALL (      63 calls)
     h_psi:calbec :      0.38s CPU      0.38s WALL (      63 calls)
     vloc_psi     :      4.79s CPU      4.82s WALL (      63 calls)
     add_vuspsi   :      0.40s CPU      0.38s WALL (      63 calls)

     General routines
     calbec       :      0.56s CPU      0.55s WALL (      82 calls)
     fft          :      2.12s CPU      2.27s WALL (     316 calls)
     ffts         :      0.07s CPU      0.06s WALL (      31 calls)
     fftw         :      4.40s CPU      4.46s WALL (    3540 calls)
     interpolate  :      0.36s CPU      0.38s WALL (      31 calls)
     davcio       :      0.00s CPU      0.00s WALL (       1 calls)
 
     Parallel routines
     fft_scatter  :      1.01s CPU      1.00s WALL (    3887 calls)
 
     Environ routines
     calc_eelect  :      0.01s CPU      0.02s WALL (      30 calls)
     calc_velect  :      0.54s CPU      0.56s WALL (      26 calls)
     calc_felect  :      0.04s CPU      0.04s WALL (       1 calls)
 
     PWSCF        :    37.21s CPU        39.41s WALL

 
   This run was terminated on:  22:12:23  31Jan2018            

=------------------------------------------------------------------------------=
   JOB DONE.
=------------------------------------------------------------------------------=

%%%% IONS %%%%%%%%%%%%%%%%%%%%%%%%%%%%%%%%%%%%%%%%%%%%%%%%%%%%%%%%%%%%%%%%%%%%%%
 number of ions             =         10
 ionic center of charge     =      0.3882415     0.3750182     0.2893651
 total ionic charge         =    -90.0000000
 ionic dipole               =      0.0000000     0.0000000     0.0000000
 ionic quadrupole (pc)      =   -730.5101255  -614.6110457  -876.7220256
 ionic quadrupole (gauss)   =   -741.7601255  -625.8610457  -887.9720256
 ion   1 type =  1 coordinates =      5.3350841     4.6467234     8.2964034
 ion   2 type =  2 coordinates =      5.3350096     4.6196233    10.4752278
 ion   3 type =  3 coordinates =      8.0613271     0.0980580     4.3875164
 ion   4 type =  3 coordinates =      2.6089894     0.0980583     4.3875141
 ion   5 type =  3 coordinates =      0.0000366     4.7208463     4.3641304
 ion   6 type =  3 coordinates =      5.3351596     4.7216127     4.7755699
 ion   7 type =  3 coordinates =      0.0000411     7.8029520     0.0000000
 ion   8 type =  3 coordinates =      5.3351612     7.6977491     0.1488629
 ion   9 type =  3 coordinates =      2.6978606     3.1521739     0.0837858
 ion  10 type =  3 coordinates =      7.9724637     3.1521745     0.0837887

%%%% SYSTEM %%%%%%%%%%%%%%%%%%%%%%%%%%%%%%%%%%%%%%%%%%%%%%%%%%%%%%%%%%%%%%%%%%%%
 system is built from all present ionic types
 system defined dimension   =  0 
 system defined axis        =  3 
 system center              =      0.3882415     0.3750182     0.2893651 
 system width               =      0.7019013 

%%%% ELECTRONS %%%%%%%%%%%%%%%%%%%%%%%%%%%%%%%%%%%%%%%%%%%%%%%%%%%%%%%%%%%%%%%%%
 number of electrons        =         89
 total electronic charge    =     89.0000000
 number of spin components  =  1

%%%% ELECTRONS %%%%%%%%%%%%%%%%%%%%%%%%%%%%%%%%%%%%%%%%%%%%%%%%%%%%%%%%%%%%%%%%%
 number of electrons        =         88
 total electronic charge    =     89.0000000
 number of spin components  =  1

%%%% ELECTRONS %%%%%%%%%%%%%%%%%%%%%%%%%%%%%%%%%%%%%%%%%%%%%%%%%%%%%%%%%%%%%%%%%
 number of electrons        =         88
 total electronic charge    =     89.0000000
 number of spin components  =  1

%%%% ELECTRONS %%%%%%%%%%%%%%%%%%%%%%%%%%%%%%%%%%%%%%%%%%%%%%%%%%%%%%%%%%%%%%%%%
 number of electrons        =         88
 total electronic charge    =     89.0000000
 number of spin components  =  1

%%%% ELECTRONS %%%%%%%%%%%%%%%%%%%%%%%%%%%%%%%%%%%%%%%%%%%%%%%%%%%%%%%%%%%%%%%%%
 number of electrons        =         88
 total electronic charge    =     89.0000000
 number of spin components  =  1

%%%% ELECTRONS %%%%%%%%%%%%%%%%%%%%%%%%%%%%%%%%%%%%%%%%%%%%%%%%%%%%%%%%%%%%%%%%%
 number of electrons        =         89
 total electronic charge    =     89.0000000
 number of spin components  =  1

%%%% ELECTRONS %%%%%%%%%%%%%%%%%%%%%%%%%%%%%%%%%%%%%%%%%%%%%%%%%%%%%%%%%%%%%%%%%
 number of electrons        =         89
 total electronic charge    =     89.0000000
 number of spin components  =  1

%%%% ELECTRONS %%%%%%%%%%%%%%%%%%%%%%%%%%%%%%%%%%%%%%%%%%%%%%%%%%%%%%%%%%%%%%%%%
 number of electrons        =         88
 total electronic charge    =     89.0000000
 number of spin components  =  1

%%%% ELECTRONS %%%%%%%%%%%%%%%%%%%%%%%%%%%%%%%%%%%%%%%%%%%%%%%%%%%%%%%%%%%%%%%%%
 number of electrons        =         88
 total electronic charge    =     89.0000000
 number of spin components  =  1

%%%% ELECTRONS %%%%%%%%%%%%%%%%%%%%%%%%%%%%%%%%%%%%%%%%%%%%%%%%%%%%%%%%%%%%%%%%%
 number of electrons        =         88
 total electronic charge    =     89.0000000
 number of spin components  =  1

%%%% ELECTRONS %%%%%%%%%%%%%%%%%%%%%%%%%%%%%%%%%%%%%%%%%%%%%%%%%%%%%%%%%%%%%%%%%
 number of electrons        =         88
 total electronic charge    =     89.0000000
 number of spin components  =  1

%%%% ELECTRONS %%%%%%%%%%%%%%%%%%%%%%%%%%%%%%%%%%%%%%%%%%%%%%%%%%%%%%%%%%%%%%%%%
 number of electrons        =         88
 total electronic charge    =     89.0000000
 number of spin components  =  1

%%%% ELECTRONS %%%%%%%%%%%%%%%%%%%%%%%%%%%%%%%%%%%%%%%%%%%%%%%%%%%%%%%%%%%%%%%%%
 number of electrons        =         88
 total electronic charge    =     89.0000000
 number of spin components  =  1

%%%% ELECTRONS %%%%%%%%%%%%%%%%%%%%%%%%%%%%%%%%%%%%%%%%%%%%%%%%%%%%%%%%%%%%%%%%%
 number of electrons        =         88
 total electronic charge    =     89.0000000
 number of spin components  =  1

%%%% ELECTRONS %%%%%%%%%%%%%%%%%%%%%%%%%%%%%%%%%%%%%%%%%%%%%%%%%%%%%%%%%%%%%%%%%
 number of electrons        =         88
 total electronic charge    =     89.0000000
 number of spin components  =  1

%%%% ELECTRONS %%%%%%%%%%%%%%%%%%%%%%%%%%%%%%%%%%%%%%%%%%%%%%%%%%%%%%%%%%%%%%%%%
 number of electrons        =         88
 total electronic charge    =     89.0000000
 number of spin components  =  1
