
     Program PWSCF v.6.1 (svn rev. 13369) starts on 14Nov2017 at 16:49:21 

     This program is part of the open-source Quantum ESPRESSO suite
     for quantum simulation of materials; please cite
         "P. Giannozzi et al., J. Phys.:Condens. Matter 21 395502 (2009);
          URL http://www.quantum-espresso.org", 
     in publications or presentations arising from this work. More details at
     http://www.quantum-espresso.org/quote

     Parallel version (MPI), running on     1 processors
     Reading input from slab.in

     Current dimensions of program PWSCF are:
     Max number of different atomic species (ntypx) = 10
     Max number of k-points (npk) =  40000
     Max angular momentum in pseudopotentials (lmaxx) =  3
               file C.pbe-rrkjus.UPF: wavefunction(s)  2S 2P renormalized
               file O.pbe-rrkjus.UPF: wavefunction(s)  2S renormalized

     gamma-point specific algorithms are used

     Subspace diagonalization in iterative solution of the eigenvalue problem:
     a serial algorithm will be used

 
     G-vector sticks info
     --------------------
     sticks:   dense  smooth     PW     G-vecs:    dense   smooth      PW
     Sum        2357    1099    269               366833   116965   14571
 


     bravais-lattice index     =            8
     lattice parameter (alat)  =      10.6881  a.u.
     unit-cell volume          =    4181.1215 (a.u.)^3
     number of atoms/cell      =           10
     number of atomic types    =            3
     number of electrons       =        89.00
     number of Kohn-Sham states=           80
     kinetic-energy cutoff     =      35.0000  Ry
     charge density cutoff     =     300.0000  Ry
     convergence threshold     =      5.0E-03
     mixing beta               =       0.7000
     number of iterations used =            8  plain     mixing
     Exchange-correlation      = PBE ( 1  4  3  4 0 0)
 

     Environ Module
     ==============

     Plese cite
         O. Andreussi, I. Dabo and N. Marzari, J. Chem. Phys. 136, 064102 (2012)         
     in publications or presentations arising from this work.

     compensation onset threshold      =               0.1000E+03 
     static permittivity               =                   100.00 
     epsilon calculation mode          =                     full 

     Electrostatic Setup
     -------------------
     electrostatic problem to solve    = generalized              
     numerical solver adopted          = cg                       
     type of auxiliary density adopted = none                     
     type of core tool for poisson     = fft                      
     type of core tool for s(r) deriv  = analytic                 



     celldm(1)=  10.688100  celldm(2)=   0.866025  celldm(3)=   3.954220
     celldm(4)=   0.000000  celldm(5)=   0.000000  celldm(6)=   0.000000

     crystal axes: (cart. coord. in units of alat)
               a(1) = (   1.000000   0.000000   0.000000 )  
               a(2) = (   0.000000   0.866025   0.000000 )  
               a(3) = (   0.000000   0.000000   3.954220 )  

     reciprocal axes: (cart. coord. in units 2 pi/alat)
               b(1) = (  1.000000  0.000000  0.000000 )  
               b(2) = (  0.000000  1.154701  0.000000 )  
               b(3) = (  0.000000  0.000000  0.252894 )  


     PseudoPot. # 1 for C  read from file:
     /home/andreo/PWSCF/espresso-6.1-Environ-1.0/Environ/tests/../..//pseudo/C.pbe-rrkjus.UPF
     MD5 check sum: 00fb224312de0c5b6853bd333518df6f
     Pseudo is Ultrasoft, Zval =  4.0
     Generated by new atomic code, or converted to UPF format
     Using radial grid of  627 points,  4 beta functions with: 
                l(1) =   0
                l(2) =   0
                l(3) =   1
                l(4) =   1
     Q(r) pseudized with 0 coefficients 


     PseudoPot. # 2 for O  read from file:
     /home/andreo/PWSCF/espresso-6.1-Environ-1.0/Environ/tests/../..//pseudo/O.pbe-rrkjus.UPF
     MD5 check sum: 390ba29e75625707450f3bd3f0eb6be9
     Pseudo is Ultrasoft, Zval =  6.0
     Generated by new atomic code, or converted to UPF format
     Using radial grid of 1269 points,  4 beta functions with: 
                l(1) =   0
                l(2) =   0
                l(3) =   1
                l(4) =   1
     Q(r) pseudized with 0 coefficients 


     PseudoPot. # 3 for Pt read from file:
     /home/andreo/PWSCF/espresso-6.1-Environ-1.0/Environ/tests/../..//pseudo/Pt.pbe-n-rrkjus_psl.0.1.UPF
     MD5 check sum: df5be8f5ed4f66d4aed38ca70ec8d507
     Pseudo is Ultrasoft + core correction, Zval = 10.0
     Generated using "atomic" code by A. Dal Corso  v.5.0.2 svn rev. 9415
     Using radial grid of 1277 points,  6 beta functions with: 
                l(1) =   0
                l(2) =   0
                l(3) =   1
                l(4) =   1
                l(5) =   2
                l(6) =   2
     Q(r) pseudized with 0 coefficients 


     atomic species   valence    mass     pseudopotential
        C              4.00     1.00000     C ( 1.00)
        O              6.00     1.00000     O ( 1.00)
        Pt            10.00     1.00000     Pt( 1.00)

     No symmetry found



   Cartesian axes

     site n.     atom                  positions (alat units)
         1           C   tau(   1) = (   0.4991611   0.4347567   0.7762281  )
         2           O   tau(   2) = (   0.4991542   0.4322212   0.9800832  )
         3           Pt  tau(   3) = (   0.7542339   0.0091745   0.4105048  )
         4           Pt  tau(   4) = (   0.2441023   0.0091745   0.4105046  )
         5           Pt  tau(   5) = (   0.0000034   0.4416918   0.4083168  )
         6           Pt  tau(   6) = (   0.4991682   0.4417635   0.4468119  )
         7           Pt  tau(   7) = (   0.0000038   0.7300598   0.0000000  )
         8           Pt  tau(   8) = (   0.4991683   0.7202168   0.0139279  )
         9           Pt  tau(   9) = (   0.2524172   0.2949237   0.0078392  )
        10           Pt  tau(  10) = (   0.7459196   0.2949237   0.0078394  )

     number of k points=     1  Marzari-Vanderbilt smearing, width (Ry)=  0.0300
                       cart. coord. in units 2pi/alat
        k(    1) = (   0.0000000   0.0000000   0.0000000), wk =   2.0000000

     Dense  grid:   183417 G-vectors     FFT dimensions: (  60,  54, 240)

     Smooth grid:    58483 G-vectors     FFT dimensions: (  45,  36, 160)

     Estimated max dynamical RAM per process >     231.32MB

     Initial potential from superposition of free atoms
     Check: negative starting charge=   -0.003083

     starting charge   89.99859, renormalised to   89.00000

     negative rho (up, down):  3.049E-03 0.000E+00
     Starting wfc are   80 randomized atomic wfcs

     total cpu time spent up to now is        6.7 secs

     per-process dynamical memory:   308.9 Mb

     Self-consistent Calculation

     iteration #  1     ecut=    35.00 Ry     beta=0.70
     Davidson diagonalization with overlap
     ethr =  1.00E-02,  avg # of iterations =  5.0

     negative rho (up, down):  2.886E-03 0.000E+00

     add environment contribution to local potential
     polarization accuracy = 3.2E-06, # of iterations =  25

     total cpu time spent up to now is       12.5 secs

     total energy              =    -622.72243073 Ry
     Harris-Foulkes estimate   =    -624.21130265 Ry
     estimated scf accuracy    <       1.86638633 Ry
     electrostatic embedding   =      -0.00033812 Ry
     correction to one-el term =       0.00000000 Ry

     iteration #  2     ecut=    35.00 Ry     beta=0.70
     Davidson diagonalization with overlap
     ethr =  2.10E-03,  avg # of iterations =  8.0

     negative rho (up, down):  2.033E-02 0.000E+00

     add environment contribution to local potential
     polarization accuracy = 9.2E-06, # of iterations =  49

     total cpu time spent up to now is       20.1 secs

     total energy              =    -618.71843287 Ry
     Harris-Foulkes estimate   =    -605.79948410 Ry
     estimated scf accuracy    <      44.76210419 Ry
     electrostatic embedding   =      -0.22803669 Ry
     correction to one-el term =     -21.33523209 Ry

     iteration #  3     ecut=    35.00 Ry     beta=0.70
     Davidson diagonalization with overlap
     ethr =  2.10E-03,  avg # of iterations =  5.0

     negative rho (up, down):  8.598E-03 0.000E+00

     add environment contribution to local potential
     polarization accuracy = 4.8E-06, # of iterations =  30

     total cpu time spent up to now is       26.2 secs

     total energy              =    -624.24966561 Ry
     Harris-Foulkes estimate   =    -599.52689891 Ry
     estimated scf accuracy    <       0.51958509 Ry
     electrostatic embedding   =      -0.24355690 Ry
     correction to one-el term =     -24.73880434 Ry

     iteration #  4     ecut=    35.00 Ry     beta=0.70
     Davidson diagonalization with overlap
     ethr =  5.84E-04,  avg # of iterations =  6.0

     negative rho (up, down):  9.037E-03 0.000E+00

     add environment contribution to local potential
     polarization accuracy = 8.0E-06, # of iterations =  31

     total cpu time spent up to now is       32.4 secs

     total energy              =    -623.95852060 Ry
     Harris-Foulkes estimate   =    -600.92050188 Ry
     estimated scf accuracy    <       1.45237176 Ry
     electrostatic embedding   =      -0.20278596 Ry
     correction to one-el term =     -23.09655942 Ry

     iteration #  5     ecut=    35.00 Ry     beta=0.70
     Davidson diagonalization with overlap
     ethr =  5.84E-04,  avg # of iterations =  2.0

     negative rho (up, down):  5.420E-03 0.000E+00

     add environment contribution to local potential
     polarization accuracy = 5.5E-06, # of iterations =  30

     total cpu time spent up to now is       37.9 secs

     total energy              =    -624.10180530 Ry
     Harris-Foulkes estimate   =    -600.51255906 Ry
     estimated scf accuracy    <       0.21879589 Ry
     electrostatic embedding   =      -0.21861266 Ry
     correction to one-el term =     -23.41967491 Ry

     iteration #  6     ecut=    35.00 Ry     beta=0.70
     Davidson diagonalization with overlap
     ethr =  2.46E-04,  avg # of iterations =  3.0

     negative rho (up, down):  5.294E-03 0.000E+00

     add environment contribution to local potential
     polarization accuracy = 3.0E-06, # of iterations =  30

     total cpu time spent up to now is       43.5 secs

     total energy              =    -624.12286241 Ry
     Harris-Foulkes estimate   =    -599.89218975 Ry
     estimated scf accuracy    <       0.26126063 Ry
     electrostatic embedding   =      -0.23496565 Ry
     correction to one-el term =     -24.02263297 Ry

     iteration #  7     ecut=    35.00 Ry     beta=0.70
     Davidson diagonalization with overlap
     ethr =  2.46E-04,  avg # of iterations =  1.0

     negative rho (up, down):  4.451E-03 0.000E+00

     add environment contribution to local potential
     polarization accuracy = 4.3E-06, # of iterations =  29

     total cpu time spent up to now is       49.0 secs

     total energy              =    -624.13011132 Ry
     Harris-Foulkes estimate   =    -599.67316202 Ry
     estimated scf accuracy    <       0.12508683 Ry
     electrostatic embedding   =      -0.24347002 Ry
     correction to one-el term =     -24.23129299 Ry

     iteration #  8     ecut=    35.00 Ry     beta=0.70
     Davidson diagonalization with overlap
     ethr =  1.41E-04,  avg # of iterations =  1.0

     negative rho (up, down):  4.354E-03 0.000E+00

     add environment contribution to local potential
     polarization accuracy = 4.3E-06, # of iterations =  28

     total cpu time spent up to now is       54.4 secs

     total energy              =    -624.14005962 Ry
     Harris-Foulkes estimate   =    -599.55349054 Ry
     estimated scf accuracy    <       0.02224771 Ry
     electrostatic embedding   =      -0.24759170 Ry
     correction to one-el term =     -24.34457772 Ry

     iteration #  9     ecut=    35.00 Ry     beta=0.70
     Davidson diagonalization with overlap
     ethr =  2.50E-05,  avg # of iterations =  7.0

     negative rho (up, down):  3.843E-03 0.000E+00

     add environment contribution to local potential
     polarization accuracy = 8.2E-06, # of iterations =  28

     total cpu time spent up to now is       60.0 secs

     total energy              =    -624.13526078 Ry
     Harris-Foulkes estimate   =    -599.54843428 Ry
     estimated scf accuracy    <       0.02611381 Ry
     electrostatic embedding   =      -0.24738962 Ry
     correction to one-el term =     -24.34454924 Ry

     iteration # 10     ecut=    35.00 Ry     beta=0.70
     Davidson diagonalization with overlap
     ethr =  2.50E-05,  avg # of iterations =  1.0

     negative rho (up, down):  3.850E-03 0.000E+00

     add environment contribution to local potential
     polarization accuracy = 9.7E-06, # of iterations =  27

     total cpu time spent up to now is       65.3 secs

     total energy              =    -624.13957599 Ry
     Harris-Foulkes estimate   =    -599.52423690 Ry
     estimated scf accuracy    <       0.01577379 Ry
     electrostatic embedding   =      -0.25001074 Ry
     correction to one-el term =     -24.36603048 Ry

     iteration # 11     ecut=    35.00 Ry     beta=0.70
     Davidson diagonalization with overlap
     ethr =  1.77E-05,  avg # of iterations =  1.0

     negative rho (up, down):  3.596E-03 0.000E+00

     total cpu time spent up to now is       69.0 secs

     End of self-consistent calculation

          k = 0.0000 0.0000 0.0000 (  7286 PWs)   bands (ev):

   -24.8961 -11.3477  -9.6221  -8.5347  -8.1578  -7.7381  -7.7123  -7.4406
    -7.2867  -6.4512  -6.2965  -6.1954  -5.9679  -5.9054  -5.8494  -5.7161
    -5.0418  -4.9966  -4.9354  -4.7421  -4.6883  -4.6419  -4.6063  -4.5488
    -4.5402  -4.3580  -4.3464  -4.2524  -4.1528  -3.9068  -3.7958  -3.0574
    -2.9216  -2.6662  -2.4050  -2.3912  -2.3406  -2.1340  -1.9959  -1.8701
    -1.6827  -1.6606  -1.4735  -1.4278  -1.3866  -1.2270  -1.0414  -0.0139
     0.3154   0.3807   0.9555   1.6172   1.7395   2.6760   3.0419   3.1574
     4.4339   4.5518   4.7360   5.0350   5.4576   5.9372   6.0662   6.1988
     7.0369   7.2166   7.3689   7.6177   7.6805   7.9961   8.9425   9.0816
     9.2510   9.4261   9.6380   9.9385  10.0661  10.1154  10.2323  10.3337

     the Fermi energy is    -1.2978 ev

!    total energy              =    -624.13750216 Ry
     Harris-Foulkes estimate   =    -599.47505906 Ry
     estimated scf accuracy    <       0.00349110 Ry

     The total energy is the sum of the following terms:

     one-electron contribution =   -3915.04335625 Ry
     hartree contribution      =    2005.15119585 Ry
     xc contribution           =    -262.78323191 Ry
     ewald contribution        =    1573.20467954 Ry
     smearing contrib. (-TS)   =      -0.00118502 Ry
     electrostatic embedding   =      -0.25113782 Ry
     correction to one-el term =     -24.41446656 Ry

     convergence has been achieved in  11 iterations

     negative rho (up, down):  3.596E-03 0.000E+00

     Forces acting on atoms (cartesian axes, Ry/au):

     atom    1 type  1   force =    -0.00010555   -0.00374934    0.09041023
     atom    2 type  2   force =    -0.00008450    0.00130013   -0.00682040
     atom    3 type  3   force =     0.00165814    0.01273280    0.06562079
     atom    4 type  3   force =    -0.00050572    0.01283381    0.06604525
     atom    5 type  3   force =    -0.00163092    0.01113994    0.03377019
     atom    6 type  3   force =     0.00060263    0.00706289    0.09309917
     atom    7 type  3   force =    -0.00176630   -0.00817505   -0.09456520
     atom    8 type  3   force =     0.00077794   -0.01692657   -0.06959312
     atom    9 type  3   force =     0.01601803   -0.00826847   -0.08897998
     atom   10 type  3   force =    -0.01496376   -0.00795014   -0.08898691

     Total force =     0.240437     Total SCF correction =     0.111943
     SCF correction compared to forces is large: reduce conv_thr to get better values

     Writing output data file pwscf.save
 
     init_run     :      5.99s CPU      6.37s WALL (       1 calls)
     electrons    :     51.72s CPU     63.07s WALL (       1 calls)
     forces       :      4.64s CPU      5.08s WALL (       1 calls)

     Called by init_run:
     wfcinit      :      0.41s CPU      0.42s WALL (       1 calls)
     potinit      :      2.06s CPU      2.08s WALL (       1 calls)

     Called by electrons:
     c_bands      :     13.20s CPU     13.60s WALL (      11 calls)
     sum_band     :      9.07s CPU     13.53s WALL (      11 calls)
     v_of_rho     :      3.99s CPU      4.08s WALL (      12 calls)
     newd         :      5.46s CPU     10.13s WALL (      12 calls)
     mix_rho      :      0.48s CPU      0.48s WALL (      11 calls)

     Called by c_bands:
     init_us_2    :      0.11s CPU      0.10s WALL (      23 calls)
     regterg      :     12.42s CPU     12.82s WALL (      11 calls)

     Called by sum_band:
     sum_band:bec :      0.00s CPU      0.00s WALL (      11 calls)
     addusdens    :      6.28s CPU     10.73s WALL (      11 calls)

     Called by *egterg:
     h_psi        :      9.86s CPU      9.86s WALL (      52 calls)
     s_psi        :      0.49s CPU      0.49s WALL (      52 calls)
     g_psi        :      0.10s CPU      0.09s WALL (      40 calls)
     rdiaghg      :      0.42s CPU      0.43s WALL (      51 calls)

     Called by h_psi:
     h_psi:pot    :      9.80s CPU      9.80s WALL (      52 calls)
     h_psi:calbec :      0.52s CPU      0.52s WALL (      52 calls)
     vloc_psi     :      8.79s CPU      8.79s WALL (      52 calls)
     add_vuspsi   :      0.49s CPU      0.49s WALL (      52 calls)

     General routines
     calbec       :      0.80s CPU      0.80s WALL (      67 calls)
     fft          :     13.52s CPU     13.97s WALL (     966 calls)
     ffts         :      0.10s CPU      0.09s WALL (      23 calls)
     fftw         :      8.89s CPU      8.96s WALL (    2738 calls)
     interpolate  :      0.48s CPU      0.50s WALL (      23 calls)
     davcio       :      0.00s CPU      0.00s WALL (       1 calls)
 
     Parallel routines
     fft_scatter  :      3.31s CPU      3.31s WALL (    3727 calls)
 
     Environ routines
     calc_eelect  :      0.02s CPU      0.01s WALL (      22 calls)
     calc_velect  :     15.95s CPU     17.20s WALL (      20 calls)
     dielectric   :      0.30s CPU      0.30s WALL (      13 calls)
     calc_felect  :      0.14s CPU      0.15s WALL (       1 calls)
 
     PWSCF        :  1m 2.75s CPU     1m17.29s WALL

 
   This run was terminated on:  16:50:38  14Nov2017            

=------------------------------------------------------------------------------=
   JOB DONE.
=------------------------------------------------------------------------------=

%%%% IONS %%%%%%%%%%%%%%%%%%%%%%%%%%%%%%%%%%%%%%%%%%%%%%%%%%%%%%%%%%%%%%%%%%%%%%
 number of ions             =         10
 ionic center of charge     =      0.3882415     0.3750182     0.2893651
 total ionic charge         =    -90.0000000
 ionic dipole               =      0.0000000     0.0000000     0.0000000
 ionic quadrupole (pc)      =   -730.5101255  -614.6110457  -876.7220256
 ionic quadrupole (gauss)   =   -741.7601255  -625.8610457  -887.9720256
 ion   1 type =  1 coordinates =      5.3350841     4.6467234     8.2964034
 ion   2 type =  2 coordinates =      5.3350096     4.6196233    10.4752278
 ion   3 type =  3 coordinates =      8.0613271     0.0980580     4.3875164
 ion   4 type =  3 coordinates =      2.6089894     0.0980583     4.3875141
 ion   5 type =  3 coordinates =      0.0000366     4.7208463     4.3641304
 ion   6 type =  3 coordinates =      5.3351596     4.7216127     4.7755699
 ion   7 type =  3 coordinates =      0.0000411     7.8029520     0.0000000
 ion   8 type =  3 coordinates =      5.3351612     7.6977491     0.1488629
 ion   9 type =  3 coordinates =      2.6978606     3.1521739     0.0837858
 ion  10 type =  3 coordinates =      7.9724637     3.1521745     0.0837887

%%%% SYSTEM %%%%%%%%%%%%%%%%%%%%%%%%%%%%%%%%%%%%%%%%%%%%%%%%%%%%%%%%%%%%%%%%%%%%
 system is built from all present ionic types
 system defined dimension   =  0 
 system defined axis        =  3 
 system center              =      0.3882415     0.3750182     0.2893651 
 system width               =      1.5145225 

%%%% ELECTRONS %%%%%%%%%%%%%%%%%%%%%%%%%%%%%%%%%%%%%%%%%%%%%%%%%%%%%%%%%%%%%%%%%
 number of electrons        =         89
 total electronic charge    =     89.0000000
 number of spin components  =  1

%%%% BOUNDARY %%%%%%%%%%%%%%%%%%%%%%%%%%%%%%%%%%%%%%%%%%%%%%%%%%%%%%%%%%%%%%%%%%
 boundary mode              = full                 
 boundary is built as a function of a smooth density
 function type              =  2 
 using the modified SCCS function with parameters 
 rhomax                     =      0.0050000 
 rhomin                     =      0.0001000 
 volume of the QM region    =   1500.3585238 
 surface of the QM region   =    259.8000154 

%%%% DIELECTRIC %%%%%%%%%%%%%%%%%%%%%%%%%%%%%%%%%%%%%%%%%%%%%%%%%%%%%%%%%%%%%%%%%
 dielectric build on homogeneous background
 environment bulk permitt.  =    100.0000000 
 dielectric flags
 need gradient              =  F 
 need factor depend. sqrt   =  T 
 need gradient of logarithm =  T 

%%%% COMPUTE ELECTROSTATIC POTENTIAL %%%%%%%%%%%%%%%%%%%%%%%%%%%%%%%%%%%%%%%%%%%
 Iteration #          1
  pAp =    1280.52790953876       rzold =    1272.95736547918       alpha = 
  0.994087950755945     
 delta_qm =   0.151674E+00 delta_en =   0.178888E+05 tol =   0.100000E-04
 Iteration #          2
  pAp =    3687.21841326321       rzold =    161.955898598473       alpha = 
  4.392359780367362E-002
 delta_qm =   0.211067E-01 delta_en =   0.346414E+03 tol =   0.100000E-04
 Iteration #          3
  pAp =    8.94888041913859       rzold =   0.959280916838220       alpha = 
  0.107195634750761     
 delta_qm =   0.330952E-01 delta_en =   0.851700E+03 tol =   0.100000E-04
 Iteration #          4
  pAp =   0.301170239142457       rzold =   0.114174478602790       alpha = 
  0.379102792254263     
 delta_qm =   0.253654E-01 delta_en =   0.500311E+03 tol =   0.100000E-04
 Iteration #          5
  pAp =   0.166580723732234       rzold =   9.848905679747764E-002  alpha = 
  0.591239217784835     
 delta_qm =   0.142650E-01 delta_en =   0.158235E+03 tol =   0.100000E-04
 Iteration #          6
  pAp =   0.298640935006006       rzold =   0.135508523324587       alpha = 
  0.453750666571755     
 delta_qm =   0.841540E-02 delta_en =   0.550688E+02 tol =   0.100000E-04
 Iteration #          7
  pAp =   7.000149359242037E-002  rzold =   4.044483720756615E-002  alpha = 
  0.577771060758416     
 delta_qm =   0.609279E-02 delta_en =   0.288661E+02 tol =   0.100000E-04
 Iteration #          8
  pAp =   1.917155109438264E-002  rzold =   9.770352620217724E-003  alpha = 
  0.509627654649210     
 delta_qm =   0.420162E-02 delta_en =   0.137274E+02 tol =   0.100000E-04
 Iteration #          9
  pAp =   4.774439156127142E-003  rzold =   2.895054356888154E-003  alpha = 
  0.606365326317515     
 delta_qm =   0.319717E-02 delta_en =   0.794855E+01 tol =   0.100000E-04
 Iteration #         10
  pAp =   2.683429416539982E-003  rzold =   2.082619626257083E-003  alpha = 
  0.776103747473416     
 delta_qm =   0.182888E-02 delta_en =   0.260091E+01 tol =   0.100000E-04
 Iteration #         11
  pAp =   3.611432674408764E-003  rzold =   1.727584158191226E-003  alpha = 
  0.478365323112123     
 delta_qm =   0.171192E-02 delta_en =   0.227890E+01 tol =   0.100000E-04
 Iteration #         12
  pAp =   1.983522815513020E-003  rzold =   7.682417640916195E-004  alpha = 
  0.387311785921112     
 delta_qm =   0.167364E-02 delta_en =   0.217811E+01 tol =   0.100000E-04
 Iteration #         13
  pAp =   1.298228713949063E-004  rzold =   2.291782231746230E-004  alpha = 
   1.76531469926812     
 delta_qm =   0.109074E-02 delta_en =   0.925126E+00 tol =   0.100000E-04
 Iteration #         14
  pAp =   4.422551670935827E-003  rzold =   7.078707096133721E-004  alpha = 
  0.160059341819648     
 delta_qm =   0.132451E-02 delta_en =   0.136415E+01 tol =   0.100000E-04
 Iteration #         15
  pAp =   6.644567904321313E-003  rzold =   1.475340569394129E-003  alpha = 
  0.222037097165436     
 delta_qm =   0.148554E-02 delta_en =   0.171604E+01 tol =   0.100000E-04
 Iteration #         16
  pAp =   6.196069602146753E-004  rzold =   3.197327239585586E-004  alpha = 
  0.516025068291326     
 delta_qm =   0.108210E-02 delta_en =   0.910529E+00 tol =   0.100000E-04
 Iteration #         17
  pAp =   5.567705105039183E-004  rzold =   1.821713226487161E-004  alpha = 
  0.327192836567148     
 delta_qm =   0.646112E-03 delta_en =   0.324618E+00 tol =   0.100000E-04
 Iteration #         18
  pAp =   7.339993367499303E-005  rzold =   3.773267147297190E-005  alpha = 
  0.514069558155844     
 delta_qm =   0.272742E-03 delta_en =   0.578443E-01 tol =   0.100000E-04
 Iteration #         19
  pAp =   1.365464931042050E-005  rzold =   7.980938298340939E-006  alpha = 
  0.584485043658376     
 delta_qm =   0.127311E-03 delta_en =   0.126033E-01 tol =   0.100000E-04
 Iteration #         20
  pAp =   2.724668632259172E-006  rzold =   1.834790954970861E-006  alpha = 
  0.673399668953335     
 delta_qm =   0.652684E-04 delta_en =   0.331255E-02 tol =   0.100000E-04
 Iteration #         21
  pAp =   1.039254751094625E-006  rzold =   5.324576432954833E-007  alpha = 
  0.512345642620019     
 delta_qm =   0.315849E-04 delta_en =   0.775738E-03 tol =   0.100000E-04
 Iteration #         22
  pAp =   1.789273465421879E-006  rzold =   2.294178302736776E-007  alpha = 
  0.128218427594904     
 delta_qm =   0.280029E-04 delta_en =   0.609765E-03 tol =   0.100000E-04
 Iteration #         23
  pAp =   9.907392618621499E-008  rzold =   5.511665709561668E-008  alpha = 
  0.556318490820903     
 delta_qm =   0.108303E-04 delta_en =   0.912088E-04 tol =   0.100000E-04
 Iteration #         24
  pAp =   2.132572013923099E-008  rzold =   1.209560884883996E-008  alpha = 
  0.567184074904405     
 delta_qm =   0.439093E-05 delta_en =   0.149924E-04 tol =   0.100000E-04
 Iteration #         25
  pAp =   4.199223714033283E-009  rzold =   2.405515865120844E-009  alpha = 
  0.572847752093300     
 delta_qm =   0.203319E-05 delta_en =   0.321448E-05 tol =   0.100000E-04
 Charges are converged, EXIT

%%%% ELECTRONS %%%%%%%%%%%%%%%%%%%%%%%%%%%%%%%%%%%%%%%%%%%%%%%%%%%%%%%%%%%%%%%%%
 number of electrons        =         89
 total electronic charge    =     89.0000000
 number of spin components  =  1

%%%% BOUNDARY %%%%%%%%%%%%%%%%%%%%%%%%%%%%%%%%%%%%%%%%%%%%%%%%%%%%%%%%%%%%%%%%%%
 boundary mode              = full                 
 boundary is built as a function of a smooth density
 function type              =  2 
 using the modified SCCS function with parameters 
 rhomax                     =      0.0050000 
 rhomin                     =      0.0001000 
 volume of the QM region    =   1513.6867860 
 surface of the QM region   =    348.5028609 

%%%% DIELECTRIC %%%%%%%%%%%%%%%%%%%%%%%%%%%%%%%%%%%%%%%%%%%%%%%%%%%%%%%%%%%%%%%%%
 dielectric build on homogeneous background
 environment bulk permitt.  =    100.0000000 
 dielectric flags
 need gradient              =  F 
 need factor depend. sqrt   =  T 
 need gradient of logarithm =  T 

%%%% COMPUTE ELECTROSTATIC POTENTIAL %%%%%%%%%%%%%%%%%%%%%%%%%%%%%%%%%%%%%%%%%%%
 Warning: bad guess with residual norm =   0.379695E+07, reset to no guess
 Iteration #          1
  pAp =    1274.65805802526       rzold =    1274.12440810693       alpha = 
  0.999581338763782     
 delta_qm =   0.111249E+00 delta_en =   0.962382E+04 tol =   0.100000E-04
 Iteration #          2
  pAp =    149.251554174945       rzold =    7.08541637978532       alpha = 
  4.747298223427642E-002
 delta_qm =   0.116946E+00 delta_en =   0.106347E+05 tol =   0.100000E-04
 Iteration #          3
  pAp =    17.0583942853770       rzold =    1.66063701555238       alpha = 
  9.735013669932194E-002
 delta_qm =   0.690217E-01 delta_en =   0.370448E+04 tol =   0.100000E-04
 Iteration #          4
  pAp =    1.02312595833198       rzold =   0.164359782921114       alpha = 
  0.160644719824207     
 delta_qm =   0.728781E-01 delta_en =   0.413000E+04 tol =   0.100000E-04
 Iteration #          5
  pAp =   0.313264568615161       rzold =   0.148102670274699       alpha = 
  0.472771852014454     
 delta_qm =   0.272657E-01 delta_en =   0.578084E+03 tol =   0.100000E-04
 Iteration #          6
  pAp =   7.503812484586606E-002  rzold =   0.105800547043457       alpha = 
   1.40995723521582     
 delta_qm =   0.458740E-01 delta_en =   0.163640E+04 tol =   0.100000E-04
 Iteration #          7
  pAp =   0.407666439197577       rzold =   0.255606419658048       alpha = 
  0.626998926281905     
 delta_qm =   0.636139E-01 delta_en =   0.314673E+04 tol =   0.100000E-04
 Iteration #          8
  pAp =   0.191183873322177       rzold =   0.133522101776382       alpha = 
  0.698396258304564     
 delta_qm =   0.586659E-01 delta_en =   0.267626E+04 tol =   0.100000E-04
 Iteration #          9
  pAp =   7.831311461070777E-002  rzold =   0.136276534490549       alpha = 
   1.74014959267009     
 delta_qm =   0.879877E-01 delta_en =   0.602004E+04 tol =   0.100000E-04
 Iteration #         10
  pAp =   0.591269524026847       rzold =   0.452687763302040       alpha = 
  0.765619983622707     
 delta_qm =   0.125952E+00 delta_en =   0.123357E+05 tol =   0.100000E-04
 Iteration #         11
  pAp =   0.731916358947499       rzold =   0.645041645238197       alpha = 
  0.881305134600041     
 delta_qm =   0.153542E+00 delta_en =   0.183320E+05 tol =   0.100000E-04
 Iteration #         12
  pAp =   0.901618799108747       rzold =   0.788843333458877       alpha = 
  0.874918906126016     
 delta_qm =   0.189184E+00 delta_en =   0.278309E+05 tol =   0.100000E-04
 Iteration #         13
  pAp =    1.04651138619371       rzold =    1.34298152281328       alpha = 
   1.28329375153563     
 delta_qm =   0.367503E+00 delta_en =   0.105021E+06 tol =   0.100000E-04
 Iteration #         14
  pAp =   -4.26090514908198       rzold =    6.19354403332296       alpha = 
  -1.45357472570291     
 delta_qm =   0.785008E+00 delta_en =   0.479186E+06 tol =   0.100000E-04
 Iteration #         15
  pAp =    97.4725307430332       rzold =    18.4816491482484       alpha = 
  0.189608795497181     
 delta_qm =   0.263099E+00 delta_en =   0.538262E+05 tol =   0.100000E-04
 Iteration #         16
  pAp =    149.934304643433       rzold =    7.49654506393551       alpha = 
  4.999886504801862E-002
 delta_qm =   0.215920E+00 delta_en =   0.362527E+05 tol =   0.100000E-04
 Iteration #         17
  pAp =    6.62280976192664       rzold =    2.35927115183542       alpha = 
  0.356234171997276     
 delta_qm =   0.100851E+00 delta_en =   0.790896E+04 tol =   0.100000E-04
 Iteration #         18
  pAp =    1.04013591863735       rzold =   0.417756061183193       alpha = 
  0.401636030155061     
 delta_qm =   0.774964E-01 delta_en =   0.467003E+04 tol =   0.100000E-04
 Iteration #         19
  pAp =   0.574341706439082       rzold =   0.293694297312954       alpha = 
  0.511358123605298     
 delta_qm =   0.508102E-01 delta_en =   0.200751E+04 tol =   0.100000E-04
 Iteration #         20
  pAp =   0.175665193074984       rzold =   9.824281237359846E-002  alpha = 
  0.559261687838539     
 delta_qm =   0.419490E-01 delta_en =   0.136836E+04 tol =   0.100000E-04
 Iteration #         21
  pAp =   0.111192732964889       rzold =   7.072706958394050E-002  alpha = 
  0.636076366665743     
 delta_qm =   0.283735E-01 delta_en =   0.626011E+03 tol =   0.100000E-04
 Iteration #         22
  pAp =   0.128610167430281       rzold =   4.181444851943453E-002  alpha = 
  0.325125527436250     
 delta_qm =   0.237213E-01 delta_en =   0.437555E+03 tol =   0.100000E-04
 Iteration #         23
  pAp =   0.411406794237927       rzold =   5.894346693761299E-002  alpha = 
  0.143272954562643     
 delta_qm =   0.196176E-01 delta_en =   0.299261E+03 tol =   0.100000E-04
 Iteration #         24
  pAp =   3.083261576699999E-002  rzold =   1.504876831549379E-002  alpha = 
  0.488079520375966     
 delta_qm =   0.111957E-01 delta_en =   0.974668E+02 tol =   0.100000E-04
 Iteration #         25
  pAp =   7.121243247403415E-003  rzold =   4.319607211484592E-003  alpha = 
  0.606580489026215     
 delta_qm =   0.802190E-02 delta_en =   0.500393E+02 tol =   0.100000E-04
 Iteration #         26
  pAp =   5.589270288981132E-003  rzold =   2.718126930292315E-003  alpha = 
  0.486311591631365     
 delta_qm =   0.671497E-02 delta_en =   0.350627E+02 tol =   0.100000E-04
 Iteration #         27
  pAp =   2.638938815909931E-003  rzold =   1.504833614359137E-003  alpha = 
  0.570241949258781     
 delta_qm =   0.442431E-02 delta_en =   0.152212E+02 tol =   0.100000E-04
 Iteration #         28
  pAp =   1.202697770951779E-003  rzold =   6.826129818154938E-004  alpha = 
  0.567568177394471     
 delta_qm =   0.315983E-02 delta_en =   0.776395E+01 tol =   0.100000E-04
 Iteration #         29
  pAp =   1.032073396060205E-002  rzold =   8.150112525153257E-004  alpha = 
  7.896834233170978E-002
 delta_qm =   0.287791E-02 delta_en =   0.644036E+01 tol =   0.100000E-04
 Iteration #         30
  pAp =   2.948573515768031E-003  rzold =   8.606294119949818E-004  alpha = 
  0.291879923424873     
 delta_qm =   0.235107E-02 delta_en =   0.429820E+01 tol =   0.100000E-04
 Iteration #         31
  pAp =   1.788169913355545E-004  rzold =   1.548904873122756E-004  alpha = 
  0.866195578817339     
 delta_qm =   0.170489E-02 delta_en =   0.226021E+01 tol =   0.100000E-04
 Iteration #         32
  pAp =   1.013430588362768E-004  rzold =   8.253184319021013E-005  alpha = 
  0.814380818360172     
 delta_qm =   0.112646E-02 delta_en =   0.986707E+00 tol =   0.100000E-04
 Iteration #         33
  pAp =   7.351635951569577E-005  rzold =   4.771762646450552E-005  alpha = 
  0.649074937590153     
 delta_qm =   0.893670E-03 delta_en =   0.621027E+00 tol =   0.100000E-04
 Iteration #         34
  pAp =   2.024298438753360E-004  rzold =   5.490598458313660E-005  alpha = 
  0.271234633846528     
 delta_qm =   0.763856E-03 delta_en =   0.453711E+00 tol =   0.100000E-04
 Iteration #         35
  pAp =   4.416874607624199E-005  rzold =   2.754907522306644E-005  alpha = 
  0.623723281061965     
 delta_qm =   0.599056E-03 delta_en =   0.279055E+00 tol =   0.100000E-04
 Iteration #         36
  pAp =   9.414517814913726E-006  rzold =   9.363827044797788E-006  alpha = 
  0.994615680684608     
 delta_qm =   0.379762E-03 delta_en =   0.112145E+00 tol =   0.100000E-04
 Iteration #         37
  pAp =   8.390808641110791E-006  rzold =   5.365212278315170E-006  alpha = 
  0.639415401756190     
 delta_qm =   0.283640E-03 delta_en =   0.625594E-01 tol =   0.100000E-04
 Iteration #         38
  pAp =   4.245090565961319E-006  rzold =   2.629686989872621E-006  alpha = 
  0.619465462282102     
 delta_qm =   0.172462E-03 delta_en =   0.231284E-01 tol =   0.100000E-04
 Iteration #         39
  pAp =   1.062985847640314E-006  rzold =   7.269072277401596E-007  alpha = 
  0.683835282806254     
 delta_qm =   0.883892E-04 delta_en =   0.607512E-02 tol =   0.100000E-04
 Iteration #         40
  pAp =   1.345801379787210E-006  rzold =   3.070463895949502E-007  alpha = 
  0.228151341057102     
 delta_qm =   0.752095E-04 delta_en =   0.439847E-02 tol =   0.100000E-04
 Iteration #         41
  pAp =   1.107741932784484E-005  rzold =   1.019723382647269E-006  alpha = 
  9.205423686399901E-002
 delta_qm =   0.547987E-04 delta_en =   0.233505E-02 tol =   0.100000E-04
 Iteration #         42
  pAp =   7.222821392594450E-007  rzold =   1.554914940293924E-007  alpha = 
  0.215278054900842     
 delta_qm =   0.464703E-04 delta_en =   0.167922E-02 tol =   0.100000E-04
 Iteration #         43
  pAp =   8.401248352440430E-007  rzold =   2.085790854028944E-007  alpha = 
  0.248271538529516     
 delta_qm =   0.371541E-04 delta_en =   0.107342E-02 tol =   0.100000E-04
 Iteration #         44
  pAp =   6.119158376168632E-008  rzold =   4.362498058094435E-008  alpha = 
  0.712924521627746     
 delta_qm =   0.271426E-04 delta_en =   0.572873E-03 tol =   0.100000E-04
 Iteration #         45
  pAp =   2.718565185653914E-008  rzold =   2.277326139933954E-008  alpha = 
  0.837694145408610     
 delta_qm =   0.190351E-04 delta_en =   0.281753E-03 tol =   0.100000E-04
 Iteration #         46
  pAp =   1.208357875449051E-008  rzold =   9.294298068115322E-009  alpha = 
  0.769167666049379     
 delta_qm =   0.122465E-04 delta_en =   0.116622E-03 tol =   0.100000E-04
 Iteration #         47
  pAp =   1.109695985144508E-008  rzold =   6.254986018315828E-009  alpha = 
  0.563666635010965     
 delta_qm =   0.825073E-05 delta_en =   0.529348E-04 tol =   0.100000E-04
 Iteration #         48
  pAp =   2.998130834083949E-009  rzold =   2.167768899013999E-009  alpha = 
  0.723040126991770     
 delta_qm =   0.540917E-05 delta_en =   0.227519E-04 tol =   0.100000E-04
 Iteration #         49
  pAp =   1.153334037242982E-009  rzold =   8.808459103925926E-010  alpha = 
  0.763738762534256     
 delta_qm =   0.344212E-05 delta_en =   0.921313E-05 tol =   0.100000E-04
 Charges are converged, EXIT

%%%% ELECTRONS %%%%%%%%%%%%%%%%%%%%%%%%%%%%%%%%%%%%%%%%%%%%%%%%%%%%%%%%%%%%%%%%%
 number of electrons        =         89
 total electronic charge    =     89.0000000
 number of spin components  =  1

%%%% BOUNDARY %%%%%%%%%%%%%%%%%%%%%%%%%%%%%%%%%%%%%%%%%%%%%%%%%%%%%%%%%%%%%%%%%%
 boundary mode              = full                 
 boundary is built as a function of a smooth density
 function type              =  2 
 using the modified SCCS function with parameters 
 rhomax                     =      0.0050000 
 rhomin                     =      0.0001000 
 volume of the QM region    =   1481.6747528 
 surface of the QM region   =    275.6068801 

%%%% DIELECTRIC %%%%%%%%%%%%%%%%%%%%%%%%%%%%%%%%%%%%%%%%%%%%%%%%%%%%%%%%%%%%%%%%%
 dielectric build on homogeneous background
 environment bulk permitt.  =    100.0000000 
 dielectric flags
 need gradient              =  F 
 need factor depend. sqrt   =  T 
 need gradient of logarithm =  T 

%%%% COMPUTE ELECTROSTATIC POTENTIAL %%%%%%%%%%%%%%%%%%%%%%%%%%%%%%%%%%%%%%%%%%%
 Warning: bad guess with residual norm =   0.805795E+06, reset to no guess
 Iteration #          1
  pAp =    1271.37237332675       rzold =    1271.00016091601       alpha = 
  0.999707235725305     
 delta_qm =   0.738737E-01 delta_en =   0.424362E+04 tol =   0.100000E-04
 Iteration #          2
  pAp =    23.6941557634084       rzold =    3.00630238083839       alpha = 
  0.126879489223292     
 delta_qm =   0.402111E-01 delta_en =   0.125733E+04 tol =   0.100000E-04
 Iteration #          3
  pAp =    1.74524497520018       rzold =   0.202143107054620       alpha = 
  0.115825061769013     
 delta_qm =   0.432898E-01 delta_en =   0.145723E+04 tol =   0.100000E-04
 Iteration #          4
  pAp =   0.742197248488329       rzold =   0.120083781876635       alpha = 
  0.161794970435711     
 delta_qm =   0.447778E-01 delta_en =   0.155913E+04 tol =   0.100000E-04
 Iteration #          5
  pAp =   0.754530689127963       rzold =   0.302871842081084       alpha = 
  0.401404272145807     
 delta_qm =   0.143345E-01 delta_en =   0.159779E+03 tol =   0.100000E-04
 Iteration #          6
  pAp =   0.271453031124046       rzold =   0.149337048195613       alpha = 
  0.550139549288622     
 delta_qm =   0.136533E-01 delta_en =   0.144954E+03 tol =   0.100000E-04
 Iteration #          7
  pAp =   0.114249463007067       rzold =   5.339814156808651E-002  alpha = 
  0.467381991675386     
 delta_qm =   0.102357E-01 delta_en =   0.814690E+02 tol =   0.100000E-04
 Iteration #          8
  pAp =   3.650110056345486E-002  rzold =   1.912897955236328E-002  alpha = 
  0.524065829716799     
 delta_qm =   0.942858E-02 delta_en =   0.691272E+02 tol =   0.100000E-04
 Iteration #          9
  pAp =   8.809523618200399E-003  rzold =   7.210101536927965E-003  alpha = 
  0.818443976020674     
 delta_qm =   0.766395E-02 delta_en =   0.456732E+02 tol =   0.100000E-04
 Iteration #         10
  pAp =   1.797687330505477E-002  rzold =   8.463892646275277E-003  alpha = 
  0.470821176889275     
 delta_qm =   0.515143E-02 delta_en =   0.206354E+02 tol =   0.100000E-04
 Iteration #         11
  pAp =   1.196377148251900E-002  rzold =   4.510175556917681E-003  alpha = 
  0.376986100370420     
 delta_qm =   0.325262E-02 delta_en =   0.822663E+01 tol =   0.100000E-04
 Iteration #         12
  pAp =   1.266893218730503E-003  rzold =   6.319333744313093E-004  alpha = 
  0.498805554476439     
 delta_qm =   0.203168E-02 delta_en =   0.320972E+01 tol =   0.100000E-04
 Iteration #         13
  pAp =   3.404372640288251E-004  rzold =   2.891080963443027E-004  alpha = 
  0.849225766071906     
 delta_qm =   0.150329E-02 delta_en =   0.175728E+01 tol =   0.100000E-04
 Iteration #         14
  pAp =   4.571222965909432E-004  rzold =   3.189724848154669E-004  alpha = 
  0.697783694197923     
 delta_qm =   0.236993E-02 delta_en =   0.436745E+01 tol =   0.100000E-04
 Iteration #         15
  pAp =   9.538653481803540E-004  rzold =   5.311491431473735E-004  alpha = 
  0.556838702821759     
 delta_qm =   0.301986E-02 delta_en =   0.709138E+01 tol =   0.100000E-04
 Iteration #         16
  pAp =   5.727898393236967E-004  rzold =   3.940721908053575E-004  alpha = 
  0.687987397385829     
 delta_qm =   0.216584E-02 delta_en =   0.364760E+01 tol =   0.100000E-04
 Iteration #         17
  pAp =   2.071774891036105E-002  rzold =   1.313818513301640E-003  alpha = 
  6.341511903566863E-002
 delta_qm =   0.207995E-02 delta_en =   0.336405E+01 tol =   0.100000E-04
 Iteration #         18
  pAp =   1.146527502954038E-003  rzold =   4.911756171848245E-004  alpha = 
  0.428402821492992     
 delta_qm =   0.150176E-02 delta_en =   0.175371E+01 tol =   0.100000E-04
 Iteration #         19
  pAp =   1.569314915783727E-004  rzold =   1.185823312699753E-004  alpha = 
  0.755631199814057     
 delta_qm =   0.906949E-03 delta_en =   0.639621E+00 tol =   0.100000E-04
 Iteration #         20
  pAp =   7.756545670696182E-005  rzold =   4.630281461666583E-005  alpha = 
  0.596951485654180     
 delta_qm =   0.515172E-03 delta_en =   0.206377E+00 tol =   0.100000E-04
 Iteration #         21
  pAp =   3.510978828183289E-005  rzold =   1.607107280414415E-005  alpha = 
  0.457737673469820     
 delta_qm =   0.238541E-03 delta_en =   0.442467E-01 tol =   0.100000E-04
 Iteration #         22
  pAp =   8.851900722215256E-005  rzold =   1.195133847237466E-005  alpha = 
  0.135014375414095     
 delta_qm =   0.197133E-03 delta_en =   0.302187E-01 tol =   0.100000E-04
 Iteration #         23
  pAp =   1.312676935538788E-005  rzold =   4.549922992424301E-006  alpha = 
  0.346614073062599     
 delta_qm =   0.121549E-03 delta_en =   0.114885E-01 tol =   0.100000E-04
 Iteration #         24
  pAp =   2.524648479492882E-006  rzold =   1.281552573723623E-006  alpha = 
  0.507616242076221     
 delta_qm =   0.588090E-04 delta_en =   0.268933E-02 tol =   0.100000E-04
 Iteration #         25
  pAp =   3.811633370307267E-007  rzold =   2.144132542795798E-007  alpha = 
  0.562523289752538     
 delta_qm =   0.339555E-04 delta_en =   0.896552E-03 tol =   0.100000E-04
 Iteration #         26
  pAp =   1.715033544976576E-007  rzold =   8.061720184873664E-008  alpha = 
  0.470061953510290     
 delta_qm =   0.182929E-04 delta_en =   0.260209E-03 tol =   0.100000E-04
 Iteration #         27
  pAp =   4.637803931523759E-008  rzold =   2.641484940265445E-008  alpha = 
  0.569555112563282     
 delta_qm =   0.893771E-05 delta_en =   0.621168E-04 tol =   0.100000E-04
 Iteration #         28
  pAp =   1.158412661875972E-008  rzold =   6.084763406980496E-009  alpha = 
  0.525267342738349     
 delta_qm =   0.519969E-05 delta_en =   0.210238E-04 tol =   0.100000E-04
 Iteration #         29
  pAp =   3.091230312653838E-008  rzold =   2.557272652478958E-009  alpha = 
  8.272669435243488E-002
 delta_qm =   0.449221E-05 delta_en =   0.156919E-04 tol =   0.100000E-04
 Iteration #         30
  pAp =   8.707999272832273E-009  rzold =   2.484474162278605E-009  alpha = 
  0.285309413154157     
 delta_qm =   0.247704E-05 delta_en =   0.477115E-05 tol =   0.100000E-04
 Charges are converged, EXIT

%%%% ELECTRONS %%%%%%%%%%%%%%%%%%%%%%%%%%%%%%%%%%%%%%%%%%%%%%%%%%%%%%%%%%%%%%%%%
 number of electrons        =         89
 total electronic charge    =     89.0000000
 number of spin components  =  1

%%%% BOUNDARY %%%%%%%%%%%%%%%%%%%%%%%%%%%%%%%%%%%%%%%%%%%%%%%%%%%%%%%%%%%%%%%%%%
 boundary mode              = full                 
 boundary is built as a function of a smooth density
 function type              =  2 
 using the modified SCCS function with parameters 
 rhomax                     =      0.0050000 
 rhomin                     =      0.0001000 
 volume of the QM region    =   1475.8629776 
 surface of the QM region   =    278.1833694 

%%%% DIELECTRIC %%%%%%%%%%%%%%%%%%%%%%%%%%%%%%%%%%%%%%%%%%%%%%%%%%%%%%%%%%%%%%%%%
 dielectric build on homogeneous background
 environment bulk permitt.  =    100.0000000 
 dielectric flags
 need gradient              =  F 
 need factor depend. sqrt   =  T 
 need gradient of logarithm =  T 

%%%% COMPUTE ELECTROSTATIC POTENTIAL %%%%%%%%%%%%%%%%%%%%%%%%%%%%%%%%%%%%%%%%%%%
 Warning: bad guess with residual norm =   0.105230E+07, reset to no guess
 Iteration #          1
  pAp =    1270.76989268408       rzold =    1270.39031927361       alpha = 
  0.999701304372524     
 delta_qm =   0.641824E-01 delta_en =   0.320323E+04 tol =   0.100000E-04
 Iteration #          2
  pAp =    48.9510099921957       rzold =    3.79501130449690       alpha = 
  7.752672120763068E-002
 delta_qm =   0.556737E-01 delta_en =   0.241022E+04 tol =   0.100000E-04
 Iteration #          3
  pAp =    24.9770926332091       rzold =    1.66030235682070       alpha = 
  6.647300313140485E-002
 delta_qm =   0.380687E-01 delta_en =   0.112692E+04 tol =   0.100000E-04
 Iteration #          4
  pAp =   0.391935183688774       rzold =   9.467872648470453E-002  alpha = 
  0.241567306087750     
 delta_qm =   0.427484E-01 delta_en =   0.142100E+04 tol =   0.100000E-04
 Iteration #          5
  pAp =   0.258258318188172       rzold =   0.167468360250988       alpha = 
  0.648452918867719     
 delta_qm =   0.154424E-01 delta_en =   0.185431E+03 tol =   0.100000E-04
 Iteration #          6
  pAp =   0.299784402489724       rzold =   0.152480699095924       alpha = 
  0.508634531448483     
 delta_qm =   0.115395E-01 delta_en =   0.103546E+03 tol =   0.100000E-04
 Iteration #          7
  pAp =   0.105808895704634       rzold =   5.228422208425916E-002  alpha = 
  0.494138245523429     
 delta_qm =   0.108757E-01 delta_en =   0.919745E+02 tol =   0.100000E-04
 Iteration #          8
  pAp =   3.166795179707650E-002  rzold =   1.693063651751109E-002  alpha = 
  0.534629982576710     
 delta_qm =   0.104033E-01 delta_en =   0.841586E+02 tol =   0.100000E-04
 Iteration #          9
  pAp =   9.009933359573709E-003  rzold =   6.676760718651312E-003  alpha = 
  0.741044406455767     
 delta_qm =   0.688072E-02 delta_en =   0.368149E+02 tol =   0.100000E-04
 Iteration #         10
  pAp =   1.449877163126742E-002  rzold =   7.490177645136432E-003  alpha = 
  0.516607739995259     
 delta_qm =   0.378923E-02 delta_en =   0.111650E+02 tol =   0.100000E-04
 Iteration #         11
  pAp =   9.643067241862948E-003  rzold =   3.365073563255962E-003  alpha = 
  0.348962988523749     
 delta_qm =   0.248823E-02 delta_en =   0.481434E+01 tol =   0.100000E-04
 Iteration #         12
  pAp =   1.947945466350257E-003  rzold =   6.801720163832214E-004  alpha = 
  0.349174054475774     
 delta_qm =   0.175631E-02 delta_en =   0.239862E+01 tol =   0.100000E-04
 Iteration #         13
  pAp =   2.119727533351067E-004  rzold =   1.350345711029992E-004  alpha = 
  0.637037397393823     
 delta_qm =   0.716059E-03 delta_en =   0.398707E+00 tol =   0.100000E-04
 Iteration #         14
  pAp =   8.049025507893829E-005  rzold =   5.566702728794772E-005  alpha = 
  0.691599588463896     
 delta_qm =   0.617089E-03 delta_en =   0.296109E+00 tol =   0.100000E-04
 Iteration #         15
  pAp =   9.249957484345411E-005  rzold =   4.817277233093219E-005  alpha = 
  0.520789121598230     
 delta_qm =   0.757415E-03 delta_en =   0.446091E+00 tol =   0.100000E-04
 Iteration #         16
  pAp =   8.588267259198585E-005  rzold =   4.302817207140884E-005  alpha = 
  0.501011097731302     
 delta_qm =   0.744133E-03 delta_en =   0.430584E+00 tol =   0.100000E-04
 Iteration #         17
  pAp =   4.321938168469348E-005  rzold =   3.793332010209291E-005  alpha = 
  0.877692336712150     
 delta_qm =   0.612743E-03 delta_en =   0.291953E+00 tol =   0.100000E-04
 Iteration #         18
  pAp =   4.828059656458756E-004  rzold =   4.626154834061603E-005  alpha = 
  9.581809594819206E-002
 delta_qm =   0.538962E-03 delta_en =   0.225877E+00 tol =   0.100000E-04
 Iteration #         19
  pAp =   1.422598895960639E-004  rzold =   6.304324549821019E-005  alpha = 
  0.443155450754367     
 delta_qm =   0.639006E-03 delta_en =   0.317517E+00 tol =   0.100000E-04
 Iteration #         20
  pAp =   4.365981817586064E-005  rzold =   2.594396465234416E-005  alpha = 
  0.594229791517741     
 delta_qm =   0.559698E-03 delta_en =   0.243592E+00 tol =   0.100000E-04
 Iteration #         21
  pAp =   2.775288428457335E-005  rzold =   1.503342401839761E-005  alpha = 
  0.541688707532069     
 delta_qm =   0.292880E-03 delta_en =   0.667017E-01 tol =   0.100000E-04
 Iteration #         22
  pAp =   2.118276133341142E-005  rzold =   7.389123914199650E-006  alpha = 
  0.348827227852718     
 delta_qm =   0.170058E-03 delta_en =   0.224881E-01 tol =   0.100000E-04
 Iteration #         23
  pAp =   6.251980287095036E-005  rzold =   8.159809997458456E-006  alpha = 
  0.130515606619897     
 delta_qm =   0.129252E-03 delta_en =   0.129907E-01 tol =   0.100000E-04
 Iteration #         24
  pAp =   2.459382405421749E-006  rzold =   1.474235759154637E-006  alpha = 
  0.599433319480801     
 delta_qm =   0.714960E-04 delta_en =   0.397484E-02 tol =   0.100000E-04
 Iteration #         25
  pAp =   4.227175476043333E-007  rzold =   2.963142008563760E-007  alpha = 
  0.700974450991394     
 delta_qm =   0.357870E-04 delta_en =   0.995880E-03 tol =   0.100000E-04
 Iteration #         26
  pAp =   2.071406729354806E-007  rzold =   1.012794153992006E-007  alpha = 
  0.488940264429607     
 delta_qm =   0.235388E-04 delta_en =   0.430849E-03 tol =   0.100000E-04
 Iteration #         27
  pAp =   9.136962441354469E-008  rzold =   4.640581808102734E-008  alpha = 
  0.507891089395220     
 delta_qm =   0.134788E-04 delta_en =   0.141273E-03 tol =   0.100000E-04
 Iteration #         28
  pAp =   3.169000325453274E-008  rzold =   1.641146775086773E-008  alpha = 
  0.517875230843352     
 delta_qm =   0.893622E-05 delta_en =   0.620960E-04 tol =   0.100000E-04
 Iteration #         29
  pAp =   9.715856838717141E-009  rzold =   5.405138781292685E-009  alpha = 
  0.556321369387979     
 delta_qm =   0.550447E-05 delta_en =   0.235607E-04 tol =   0.100000E-04
 Iteration #         30
  pAp =   6.361497571914980E-009  rzold =   2.325932775820085E-009  alpha = 
  0.365626607497064     
 delta_qm =   0.392794E-05 delta_en =   0.119974E-04 tol =   0.100000E-04
 Iteration #         31
  pAp =   3.002577207002327E-008  rzold =   3.063457170226248E-009  alpha = 
  0.102027590267519     
 delta_qm =   0.320194E-05 delta_en =   0.797226E-05 tol =   0.100000E-04
 Charges are converged, EXIT

%%%% ELECTRONS %%%%%%%%%%%%%%%%%%%%%%%%%%%%%%%%%%%%%%%%%%%%%%%%%%%%%%%%%%%%%%%%%
 number of electrons        =         89
 total electronic charge    =     89.0000000
 number of spin components  =  1

%%%% BOUNDARY %%%%%%%%%%%%%%%%%%%%%%%%%%%%%%%%%%%%%%%%%%%%%%%%%%%%%%%%%%%%%%%%%%
 boundary mode              = full                 
 boundary is built as a function of a smooth density
 function type              =  2 
 using the modified SCCS function with parameters 
 rhomax                     =      0.0050000 
 rhomin                     =      0.0001000 
 volume of the QM region    =   1467.8247628 
 surface of the QM region   =    268.1926451 

%%%% DIELECTRIC %%%%%%%%%%%%%%%%%%%%%%%%%%%%%%%%%%%%%%%%%%%%%%%%%%%%%%%%%%%%%%%%%
 dielectric build on homogeneous background
 environment bulk permitt.  =    100.0000000 
 dielectric flags
 need gradient              =  F 
 need factor depend. sqrt   =  T 
 need gradient of logarithm =  T 

%%%% COMPUTE ELECTROSTATIC POTENTIAL %%%%%%%%%%%%%%%%%%%%%%%%%%%%%%%%%%%%%%%%%%%
 Warning: bad guess with residual norm =   0.696084E+06, reset to no guess
 Iteration #          1
  pAp =    1269.97855377950       rzold =    1269.50219669849       alpha = 
  0.999624909350166     
 delta_qm =   0.508276E-01 delta_en =   0.200888E+04 tol =   0.100000E-04
 Iteration #          2
  pAp =    134.598862844586       rzold =    6.84561122211412       alpha = 
  5.085935406466547E-002
 delta_qm =   0.458731E-01 delta_en =   0.163634E+04 tol =   0.100000E-04
 Iteration #          3
  pAp =    13.6179829296414       rzold =    1.44120866829383       alpha = 
  0.105831287624604     
 delta_qm =   0.310803E-01 delta_en =   0.751149E+03 tol =   0.100000E-04
 Iteration #          4
  pAp =   9.841363670067757E-002  rzold =   6.746245365091141E-002  alpha = 
  0.685499041724234     
 delta_qm =   0.305482E-01 delta_en =   0.725652E+03 tol =   0.100000E-04
 Iteration #          5
  pAp =    1.32590631709089       rzold =   0.309044031613569       alpha = 
  0.233081347927830     
 delta_qm =   0.120602E-01 delta_en =   0.113101E+03 tol =   0.100000E-04
 Iteration #          6
  pAp =   0.309189811455366       rzold =   0.142456444955997       alpha = 
  0.460741071270914     
 delta_qm =   0.730634E-02 delta_en =   0.415103E+02 tol =   0.100000E-04
 Iteration #          7
  pAp =   8.347322891005854E-002  rzold =   3.786967406554077E-002  alpha = 
  0.453674484143233     
 delta_qm =   0.658213E-02 delta_en =   0.336891E+02 tol =   0.100000E-04
 Iteration #          8
  pAp =   1.992203177692716E-002  rzold =   1.087168799828952E-002  alpha = 
  0.545711808917032     
 delta_qm =   0.555718E-02 delta_en =   0.240140E+02 tol =   0.100000E-04
 Iteration #          9
  pAp =   5.615200829275502E-003  rzold =   3.755499685862008E-003  alpha = 
  0.668809504778934     
 delta_qm =   0.417033E-02 delta_en =   0.135238E+02 tol =   0.100000E-04
 Iteration #         10
  pAp =   7.051558094179860E-003  rzold =   3.739918343642687E-003  alpha = 
  0.530367656862886     
 delta_qm =   0.217921E-02 delta_en =   0.369278E+01 tol =   0.100000E-04
 Iteration #         11
  pAp =   5.472165888840090E-003  rzold =   2.087416399779231E-003  alpha = 
  0.381460730939517     
 delta_qm =   0.126087E-02 delta_en =   0.123622E+01 tol =   0.100000E-04
 Iteration #         12
  pAp =   1.184125694179286E-003  rzold =   4.013169069253629E-004  alpha = 
  0.338914110974946     
 delta_qm =   0.939656E-03 delta_en =   0.686585E+00 tol =   0.100000E-04
 Iteration #         13
  pAp =   1.090442626493710E-004  rzold =   6.088529473224600E-005  alpha = 
  0.558353949606877     
 delta_qm =   0.519492E-03 delta_en =   0.209852E+00 tol =   0.100000E-04
 Iteration #         14
  pAp =   3.299393096976187E-005  rzold =   2.376790045879846E-005  alpha = 
  0.720371891442131     
 delta_qm =   0.311114E-03 delta_en =   0.752655E-01 tol =   0.100000E-04
 Iteration #         15
  pAp =   9.225088371139562E-005  rzold =   2.221800182482354E-005  alpha = 
  0.240843241072161     
 delta_qm =   0.389857E-03 delta_en =   0.118186E+00 tol =   0.100000E-04
 Iteration #         16
  pAp =   6.102065772554606E-004  rzold =   8.210744778056789E-005  alpha = 
  0.134556805581913     
 delta_qm =   0.427848E-03 delta_en =   0.142343E+00 tol =   0.100000E-04
 Iteration #         17
  pAp =   1.021358186386339E-005  rzold =   1.269013217484980E-005  alpha = 
   1.24247617965923     
 delta_qm =   0.331903E-03 delta_en =   0.856603E-01 tol =   0.100000E-04
 Iteration #         18
  pAp =   2.293939064824405E-005  rzold =   1.471674706967945E-005  alpha = 
  0.641549171699815     
 delta_qm =   0.258834E-03 delta_en =   0.520954E-01 tol =   0.100000E-04
 Iteration #         19
  pAp =   2.689302539442006E-005  rzold =   1.266111295890401E-005  alpha = 
  0.470795411569091     
 delta_qm =   0.250608E-03 delta_en =   0.488367E-01 tol =   0.100000E-04
 Iteration #         20
  pAp =   1.823769130096824E-005  rzold =   8.384428306810020E-006  alpha = 
  0.459730794235172     
 delta_qm =   0.203206E-03 delta_en =   0.321091E-01 tol =   0.100000E-04
 Iteration #         21
  pAp =   8.756210306065660E-006  rzold =   3.895980842114847E-006  alpha = 
  0.444939158144248     
 delta_qm =   0.121925E-03 delta_en =   0.115595E-01 tol =   0.100000E-04
 Iteration #         22
  pAp =   4.130004598726087E-006  rzold =   1.558040854822273E-006  alpha = 
  0.377249181587559     
 delta_qm =   0.664031E-04 delta_en =   0.342873E-02 tol =   0.100000E-04
 Iteration #         23
  pAp =   9.397408049466269E-006  rzold =   1.148431320777899E-006  alpha = 
  0.122207242117482     
 delta_qm =   0.535047E-04 delta_en =   0.222607E-02 tol =   0.100000E-04
 Iteration #         24
  pAp =   5.652378814917358E-007  rzold =   3.247836590529665E-007  alpha = 
  0.574596412745410     
 delta_qm =   0.283733E-04 delta_en =   0.626001E-03 tol =   0.100000E-04
 Iteration #         25
  pAp =   2.513740781029807E-007  rzold =   1.174536301843862E-007  alpha = 
  0.467246388612388     
 delta_qm =   0.230334E-04 delta_en =   0.412547E-03 tol =   0.100000E-04
 Iteration #         26
  pAp =   7.869868623780359E-008  rzold =   4.737870900852914E-008  alpha = 
  0.602026682699188     
 delta_qm =   0.130498E-04 delta_en =   0.132423E-03 tol =   0.100000E-04
 Iteration #         27
  pAp =   2.062048333131281E-008  rzold =   1.462840591880788E-008  alpha = 
  0.709411398548268     
 delta_qm =   0.640972E-05 delta_en =   0.319473E-04 tol =   0.100000E-04
 Iteration #         28
  pAp =   3.992251708932795E-008  rzold =   7.045198056968956E-009  alpha = 
  0.176471790122980     
 delta_qm =   0.539630E-05 delta_en =   0.226438E-04 tol =   0.100000E-04
 Iteration #         29
  pAp =   1.521925893350427E-007  rzold =   1.535728513192461E-008  alpha = 
  0.100906917997935     
 delta_qm =   0.447953E-05 delta_en =   0.156035E-04 tol =   0.100000E-04
 Iteration #         30
  pAp =   2.823092491624934E-009  rzold =   1.513079165192379E-009  alpha = 
  0.535965140951323     
 delta_qm =   0.266803E-05 delta_en =   0.553524E-05 tol =   0.100000E-04
 Charges are converged, EXIT

%%%% ELECTRONS %%%%%%%%%%%%%%%%%%%%%%%%%%%%%%%%%%%%%%%%%%%%%%%%%%%%%%%%%%%%%%%%%
 number of electrons        =         89
 total electronic charge    =     89.0000000
 number of spin components  =  1

%%%% BOUNDARY %%%%%%%%%%%%%%%%%%%%%%%%%%%%%%%%%%%%%%%%%%%%%%%%%%%%%%%%%%%%%%%%%%
 boundary mode              = full                 
 boundary is built as a function of a smooth density
 function type              =  2 
 using the modified SCCS function with parameters 
 rhomax                     =      0.0050000 
 rhomin                     =      0.0001000 
 volume of the QM region    =   1470.9181111 
 surface of the QM region   =    268.3910354 

%%%% DIELECTRIC %%%%%%%%%%%%%%%%%%%%%%%%%%%%%%%%%%%%%%%%%%%%%%%%%%%%%%%%%%%%%%%%%
 dielectric build on homogeneous background
 environment bulk permitt.  =    100.0000000 
 dielectric flags
 need gradient              =  F 
 need factor depend. sqrt   =  T 
 need gradient of logarithm =  T 

%%%% COMPUTE ELECTROSTATIC POTENTIAL %%%%%%%%%%%%%%%%%%%%%%%%%%%%%%%%%%%%%%%%%%%
 Warning: bad guess with residual norm =   0.692247E+06, reset to no guess
 Iteration #          1
  pAp =    1270.53210653346       rzold =    1269.91570585618       alpha = 
  0.999514848405552     
 delta_qm =   0.532032E-01 delta_en =   0.220106E+04 tol =   0.100000E-04
 Iteration #          2
  pAp =    230.531438583125       rzold =    10.5167047552691       alpha = 
  4.561939499404521E-002
 delta_qm =   0.452795E-01 delta_en =   0.159426E+04 tol =   0.100000E-04
 Iteration #          3
  pAp =    10.8310502824325       rzold =    1.30861225842332       alpha = 
  0.120820439781896     
 delta_qm =   0.315690E-01 delta_en =   0.774959E+03 tol =   0.100000E-04
 Iteration #          4
  pAp =   6.299270392182334E-002  rzold =   6.504792345655060E-002  alpha = 
   1.03262631077526     
 delta_qm =   0.260768E-01 delta_en =   0.528769E+03 tol =   0.100000E-04
 Iteration #          5
  pAp =    1.67628986841155       rzold =   0.297100148653936       alpha = 
  0.177236738259039     
 delta_qm =   0.110189E-01 delta_en =   0.944140E+02 tol =   0.100000E-04
 Iteration #          6
  pAp =   0.380717877348261       rzold =   0.151859319730218       alpha = 
  0.398876251327975     
 delta_qm =   0.719641E-02 delta_en =   0.402706E+02 tol =   0.100000E-04
 Iteration #          7
  pAp =   7.698169849867485E-002  rzold =   3.469332110113163E-002  alpha = 
  0.450669727711046     
 delta_qm =   0.636872E-02 delta_en =   0.315399E+02 tol =   0.100000E-04
 Iteration #          8
  pAp =   1.807074675984697E-002  rzold =   9.924762312145442E-003  alpha = 
  0.549217054726159     
 delta_qm =   0.547043E-02 delta_en =   0.232702E+02 tol =   0.100000E-04
 Iteration #          9
  pAp =   5.064995161519997E-003  rzold =   3.483170933620234E-003  alpha = 
  0.687694819549431     
 delta_qm =   0.407486E-02 delta_en =   0.129116E+02 tol =   0.100000E-04
 Iteration #         10
  pAp =   6.024324414165765E-003  rzold =   3.345825482536375E-003  alpha = 
  0.555386007212511     
 delta_qm =   0.210196E-02 delta_en =   0.343561E+01 tol =   0.100000E-04
 Iteration #         11
  pAp =   5.205090033407979E-003  rzold =   1.953440071997398E-003  alpha = 
  0.375294194617111     
 delta_qm =   0.134434E-02 delta_en =   0.140533E+01 tol =   0.100000E-04
 Iteration #         12
  pAp =   1.174024237858867E-003  rzold =   4.176691660557587E-004  alpha = 
  0.355758554710493     
 delta_qm =   0.111729E-02 delta_en =   0.970709E+00 tol =   0.100000E-04
 Iteration #         13
  pAp =   1.197078000469862E-004  rzold =   8.993170328862893E-005  alpha = 
  0.751260178980234     
 delta_qm =   0.718808E-03 delta_en =   0.401774E+00 tol =   0.100000E-04
 Iteration #         14
  pAp =   1.524137095961367E-004  rzold =   7.810546233804569E-005  alpha = 
  0.512456934123631     
 delta_qm =   0.462775E-03 delta_en =   0.166531E+00 tol =   0.100000E-04
 Iteration #         15
  pAp =   5.537518947808281E-003  rzold =   4.971779468957906E-004  alpha = 
  8.978352066724229E-002
 delta_qm =   0.842173E-03 delta_en =   0.551516E+00 tol =   0.100000E-04
 Iteration #         16
  pAp =   1.992669432868198E-004  rzold =   1.157704382036136E-004  alpha = 
  0.580981653524822     
 delta_qm =   0.100625E-02 delta_en =   0.787351E+00 tol =   0.100000E-04
 Iteration #         17
  pAp =   2.124493658327938E-004  rzold =   9.208838472045524E-005  alpha = 
  0.433460388829461     
 delta_qm =   0.838334E-03 delta_en =   0.546501E+00 tol =   0.100000E-04
 Iteration #         18
  pAp =   1.085156464836515E-004  rzold =   6.689044204793301E-005  alpha = 
  0.616412878837804     
 delta_qm =   0.402384E-03 delta_en =   0.125904E+00 tol =   0.100000E-04
 Iteration #         19
  pAp =   3.099557223179501E-005  rzold =   2.116854251827716E-005  alpha = 
  0.682953757393859     
 delta_qm =   0.290599E-03 delta_en =   0.656666E-01 tol =   0.100000E-04
 Iteration #         20
  pAp =   1.429976309903418E-005  rzold =   8.727333820957337E-006  alpha = 
  0.610313175156503     
 delta_qm =   0.203595E-03 delta_en =   0.322324E-01 tol =   0.100000E-04
 Iteration #         21
  pAp =   6.688405892981148E-006  rzold =   3.354997001868584E-006  alpha = 
  0.501613845743025     
 delta_qm =   0.104724E-03 delta_en =   0.852801E-02 tol =   0.100000E-04
 Iteration #         22
  pAp =   3.061922263318361E-006  rzold =   1.279350963032615E-006  alpha = 
  0.417826075586294     
 delta_qm =   0.542753E-04 delta_en =   0.229066E-02 tol =   0.100000E-04
 Iteration #         23
  pAp =   5.033261788126181E-007  rzold =   3.028252415767197E-007  alpha = 
  0.601648104795792     
 delta_qm =   0.345775E-04 delta_en =   0.929700E-03 tol =   0.100000E-04
 Iteration #         24
  pAp =   3.602088925310392E-006  rzold =   4.554616651907830E-007  alpha = 
  0.126443759339322     
 delta_qm =   0.285537E-04 delta_en =   0.633989E-03 tol =   0.100000E-04
 Iteration #         25
  pAp =   2.472305634559018E-007  rzold =   1.165151598475948E-007  alpha = 
  0.471281374838502     
 delta_qm =   0.231277E-04 delta_en =   0.415932E-03 tol =   0.100000E-04
 Iteration #         26
  pAp =   1.018667079841387E-007  rzold =   5.266640134921463E-008  alpha = 
  0.517012892547928     
 delta_qm =   0.133413E-04 delta_en =   0.138405E-03 tol =   0.100000E-04
 Iteration #         27
  pAp =   8.081798712563421E-008  rzold =   1.735230809814094E-008  alpha = 
  0.214708491454584     
 delta_qm =   0.107343E-04 delta_en =   0.895984E-04 tol =   0.100000E-04
 Iteration #         28
  pAp =   4.185535548477180E-007  rzold =   5.547381197995484E-008  alpha = 
  0.132536950976651     
 delta_qm =   0.530118E-05 delta_en =   0.218525E-04 tol =   0.100000E-04
 Iteration #         29
  pAp =   7.967443702805646E-009  rzold =   3.748276565785583E-009  alpha = 
  0.470449080734097     
 delta_qm =   0.361772E-05 delta_en =   0.101771E-04 tol =   0.100000E-04
 Iteration #         30
  pAp =   1.949170572285790E-009  rzold =   1.024784809193515E-009  alpha = 
  0.525754299682326     
 delta_qm =   0.195001E-05 delta_en =   0.295684E-05 tol =   0.100000E-04
 Charges are converged, EXIT

%%%% ELECTRONS %%%%%%%%%%%%%%%%%%%%%%%%%%%%%%%%%%%%%%%%%%%%%%%%%%%%%%%%%%%%%%%%%
 number of electrons        =         89
 total electronic charge    =     89.0000000
 number of spin components  =  1

%%%% BOUNDARY %%%%%%%%%%%%%%%%%%%%%%%%%%%%%%%%%%%%%%%%%%%%%%%%%%%%%%%%%%%%%%%%%%
 boundary mode              = full                 
 boundary is built as a function of a smooth density
 function type              =  2 
 using the modified SCCS function with parameters 
 rhomax                     =      0.0050000 
 rhomin                     =      0.0001000 
 volume of the QM region    =   1475.7116279 
 surface of the QM region   =    267.3026923 

%%%% DIELECTRIC %%%%%%%%%%%%%%%%%%%%%%%%%%%%%%%%%%%%%%%%%%%%%%%%%%%%%%%%%%%%%%%%%
 dielectric build on homogeneous background
 environment bulk permitt.  =    100.0000000 
 dielectric flags
 need gradient              =  F 
 need factor depend. sqrt   =  T 
 need gradient of logarithm =  T 

%%%% COMPUTE ELECTROSTATIC POTENTIAL %%%%%%%%%%%%%%%%%%%%%%%%%%%%%%%%%%%%%%%%%%%
 Warning: bad guess with residual norm =   0.618413E+06, reset to no guess
 Iteration #          1
  pAp =    1271.14009333340       rzold =    1270.35173351482       alpha = 
  0.999379800996983     
 delta_qm =   0.551098E-01 delta_en =   0.236164E+04 tol =   0.100000E-04
 Iteration #          2
  pAp =    340.831773998555       rzold =    14.9091123569965       alpha = 
  4.374331706837803E-002
 delta_qm =   0.436773E-01 delta_en =   0.148343E+04 tol =   0.100000E-04
 Iteration #          3
  pAp =    8.87329765882141       rzold =    1.17207695576363       alpha = 
  0.132090345757578     
 delta_qm =   0.315987E-01 delta_en =   0.776417E+03 tol =   0.100000E-04
 Iteration #          4
  pAp =   4.663233728996787E-002  rzold =   6.529187728800710E-002  alpha = 
   1.40014164166833     
 delta_qm =   0.179078E-01 delta_en =   0.249367E+03 tol =   0.100000E-04
 Iteration #          5
  pAp =   0.424185996742848       rzold =   0.155119309756082       alpha = 
  0.365687012176686     
 delta_qm =   0.815336E-02 delta_en =   0.516928E+02 tol =   0.100000E-04
 Iteration #          6
  pAp =    1.41516552418306       rzold =   0.216183498605386       alpha = 
  0.152761987846039     
 delta_qm =   0.679688E-02 delta_en =   0.359233E+02 tol =   0.100000E-04
 Iteration #          7
  pAp =   8.049868591180824E-002  rzold =   3.402708168540729E-002  alpha = 
  0.422703567145012     
 delta_qm =   0.614288E-02 delta_en =   0.293428E+02 tol =   0.100000E-04
 Iteration #          8
  pAp =   1.610983232781731E-002  rzold =   9.103670263370377E-003  alpha = 
  0.565100249221763     
 delta_qm =   0.520222E-02 delta_en =   0.210443E+02 tol =   0.100000E-04
 Iteration #          9
  pAp =   5.016759540890766E-003  rzold =   3.438048240095770E-003  alpha = 
  0.685312543300674     
 delta_qm =   0.381161E-02 delta_en =   0.112972E+02 tol =   0.100000E-04
 Iteration #         10
  pAp =   5.652495126231724E-003  rzold =   3.206475227504971E-003  alpha = 
  0.567267225516847     
 delta_qm =   0.198998E-02 delta_en =   0.307930E+01 tol =   0.100000E-04
 Iteration #         11
  pAp =   4.971165586374383E-003  rzold =   1.905583465934088E-003  alpha = 
  0.383327296752528     
 delta_qm =   0.139636E-02 delta_en =   0.151618E+01 tol =   0.100000E-04
 Iteration #         12
  pAp =   1.176928103181940E-003  rzold =   4.501757202209952E-004  alpha = 
  0.382500612402662     
 delta_qm =   0.125352E-02 delta_en =   0.122185E+01 tol =   0.100000E-04
 Iteration #         13
  pAp =   1.292297389513091E-004  rzold =   1.285079436966995E-004  alpha = 
  0.994414635048659     
 delta_qm =   0.863743E-03 delta_en =   0.580130E+00 tol =   0.100000E-04
 Iteration #         14
  pAp =   2.321093877915703E-004  rzold =   1.640821001496147E-004  alpha = 
  0.706917120891971     
 delta_qm =   0.114336E-02 delta_en =   0.101654E+01 tol =   0.100000E-04
 Iteration #         15
  pAp =   1.482262445113786E-002  rzold =   1.106968108203355E-003  alpha = 
  7.468097919180423E-002
 delta_qm =   0.119661E-02 delta_en =   0.111342E+01 tol =   0.100000E-04
 Iteration #         16
  pAp =   4.972790959437066E-004  rzold =   2.412861738524450E-004  alpha = 
  0.485212782561363     
 delta_qm =   0.121669E-02 delta_en =   0.115110E+01 tol =   0.100000E-04
 Iteration #         17
  pAp =   3.599222625952406E-004  rzold =   1.424382455163489E-004  alpha = 
  0.395747249667997     
 delta_qm =   0.886734E-03 delta_en =   0.611425E+00 tol =   0.100000E-04
 Iteration #         18
  pAp =   1.359362241556143E-004  rzold =   7.662210759746177E-005  alpha = 
  0.563662173739267     
 delta_qm =   0.384159E-03 delta_en =   0.114757E+00 tol =   0.100000E-04
 Iteration #         19
  pAp =   3.014877078435558E-005  rzold =   1.984048804573638E-005  alpha = 
  0.658086135174432     
 delta_qm =   0.265900E-03 delta_en =   0.549785E-01 tol =   0.100000E-04
 Iteration #         20
  pAp =   1.075406375929821E-005  rzold =   6.887962731330701E-006  alpha = 
  0.640498595275224     
 delta_qm =   0.172639E-03 delta_en =   0.231757E-01 tol =   0.100000E-04
 Iteration #         21
  pAp =   3.948031480824689E-006  rzold =   2.282150562732353E-006  alpha = 
  0.578047711578947     
 delta_qm =   0.777605E-04 delta_en =   0.470191E-02 tol =   0.100000E-04
 Iteration #         22
  pAp =   1.880536050743420E-006  rzold =   7.690099461365301E-007  alpha = 
  0.408931243744315     
 delta_qm =   0.436083E-04 delta_en =   0.147875E-02 tol =   0.100000E-04
 Iteration #         23
  pAp =   4.418119426848173E-007  rzold =   2.497311382478820E-007  alpha = 
  0.565243068646600     
 delta_qm =   0.318098E-04 delta_en =   0.786827E-03 tol =   0.100000E-04
 Iteration #         24
  pAp =   2.965373684058379E-006  rzold =   3.795336755450399E-007  alpha = 
  0.127988481716616     
 delta_qm =   0.265305E-04 delta_en =   0.547326E-03 tol =   0.100000E-04
 Iteration #         25
  pAp =   1.320173961976543E-007  rzold =   8.087837856261016E-008  alpha = 
  0.612634250425000     
 delta_qm =   0.183799E-04 delta_en =   0.262690E-03 tol =   0.100000E-04
 Iteration #         26
  pAp =   7.466434523048606E-008  rzold =   3.411210217517950E-008  alpha = 
  0.456872715750425     
 delta_qm =   0.106720E-04 delta_en =   0.885621E-04 tol =   0.100000E-04
 Iteration #         27
  pAp =   1.076853015240910E-007  rzold =   1.476204054017092E-008  alpha = 
  0.137085009107472     
 delta_qm =   0.891356E-05 delta_en =   0.617815E-04 tol =   0.100000E-04
 Iteration #         28
  pAp =   1.535367253033614E-007  rzold =   2.828227478733236E-008  alpha = 
  0.184205275522528     
 delta_qm =   0.384821E-05 delta_en =   0.115153E-04 tol =   0.100000E-04
 Iteration #         29
  pAp =   3.826949511991970E-009  rzold =   1.933686770348270E-009  alpha = 
  0.505281494905786     
 delta_qm =   0.235262E-05 delta_en =   0.430389E-05 tol =   0.100000E-04
 Charges are converged, EXIT

%%%% ELECTRONS %%%%%%%%%%%%%%%%%%%%%%%%%%%%%%%%%%%%%%%%%%%%%%%%%%%%%%%%%%%%%%%%%
 number of electrons        =         89
 total electronic charge    =     89.0000000
 number of spin components  =  1

%%%% BOUNDARY %%%%%%%%%%%%%%%%%%%%%%%%%%%%%%%%%%%%%%%%%%%%%%%%%%%%%%%%%%%%%%%%%%
 boundary mode              = full                 
 boundary is built as a function of a smooth density
 function type              =  2 
 using the modified SCCS function with parameters 
 rhomax                     =      0.0050000 
 rhomin                     =      0.0001000 
 volume of the QM region    =   1475.6280818 
 surface of the QM region   =    268.1207331 

%%%% DIELECTRIC %%%%%%%%%%%%%%%%%%%%%%%%%%%%%%%%%%%%%%%%%%%%%%%%%%%%%%%%%%%%%%%%%
 dielectric build on homogeneous background
 environment bulk permitt.  =    100.0000000 
 dielectric flags
 need gradient              =  F 
 need factor depend. sqrt   =  T 
 need gradient of logarithm =  T 

%%%% COMPUTE ELECTROSTATIC POTENTIAL %%%%%%%%%%%%%%%%%%%%%%%%%%%%%%%%%%%%%%%%%%%
 Warning: bad guess with residual norm =   0.600637E+06, reset to no guess
 Iteration #          1
  pAp =    1270.88345895604       rzold =    1270.06918597723       alpha = 
  0.999359285878597     
 delta_qm =   0.550413E-01 delta_en =   0.235577E+04 tol =   0.100000E-04
 Iteration #          2
  pAp =    358.476388774167       rzold =    15.6113728285129       alpha = 
  4.354923592568258E-002
 delta_qm =   0.423892E-01 delta_en =   0.139722E+04 tol =   0.100000E-04
 Iteration #          3
  pAp =    8.47768391399408       rzold =    1.13476312491491       alpha = 
  0.133852964610035     
 delta_qm =   0.316662E-01 delta_en =   0.779737E+03 tol =   0.100000E-04
 Iteration #          4
  pAp =   6.139372467698401E-002  rzold =   6.714783202505784E-002  alpha = 
   1.09372468242232     
 delta_qm =   0.142895E-01 delta_en =   0.158777E+03 tol =   0.100000E-04
 Iteration #          5
  pAp =    1.28928415079681       rzold =   0.243345330097265       alpha = 
  0.188744529238858     
 delta_qm =   0.148095E-01 delta_en =   0.170544E+03 tol =   0.100000E-04
 Iteration #          6
  pAp =   0.487673066068459       rzold =   0.171367588965607       alpha = 
  0.351398510373239     
 delta_qm =   0.669468E-02 delta_en =   0.348510E+02 tol =   0.100000E-04
 Iteration #          7
  pAp =   7.684699199839673E-002  rzold =   3.379562776036592E-002  alpha = 
  0.439778147218449     
 delta_qm =   0.601834E-02 delta_en =   0.281650E+02 tol =   0.100000E-04
 Iteration #          8
  pAp =   1.599907695938519E-002  rzold =   9.103996847013608E-003  alpha = 
  0.569032630452667     
 delta_qm =   0.510475E-02 delta_en =   0.202631E+02 tol =   0.100000E-04
 Iteration #          9
  pAp =   5.100499367236076E-003  rzold =   3.435744619084623E-003  alpha = 
  0.673609458939396     
 delta_qm =   0.376362E-02 delta_en =   0.110146E+02 tol =   0.100000E-04
 Iteration #         10
  pAp =   5.153986623166390E-003  rzold =   3.011192823888351E-003  alpha = 
  0.584245370438777     
 delta_qm =   0.188948E-02 delta_en =   0.277613E+01 tol =   0.100000E-04
 Iteration #         11
  pAp =   4.689235201610891E-003  rzold =   1.781901559818914E-003  alpha = 
  0.379998333034517     
 delta_qm =   0.119494E-02 delta_en =   0.111032E+01 tol =   0.100000E-04
 Iteration #         12
  pAp =   1.199765228828643E-003  rzold =   4.314727449082044E-004  alpha = 
  0.359630979912179     
 delta_qm =   0.106936E-02 delta_en =   0.889217E+00 tol =   0.100000E-04
 Iteration #         13
  pAp =   1.098174684798980E-004  rzold =   9.520439243283142E-005  alpha = 
  0.866933045813732     
 delta_qm =   0.733375E-03 delta_en =   0.418224E+00 tol =   0.100000E-04
 Iteration #         14
  pAp =   8.144836678309341E-005  rzold =   9.493855190350603E-005  alpha = 
   1.16562867560425     
 delta_qm =   0.870139E-03 delta_en =   0.588753E+00 tol =   0.100000E-04
 Iteration #         15
  pAp =   2.753173297559742E-004  rzold =   1.500018757518474E-004  alpha = 
  0.544832669577322     
 delta_qm =   0.101843E-02 delta_en =   0.806521E+00 tol =   0.100000E-04
 Iteration #         16
  pAp =   2.249091156115006E-003  rzold =   1.947630468465913E-004  alpha = 
  8.659633306415980E-002
 delta_qm =   0.978525E-03 delta_en =   0.744560E+00 tol =   0.100000E-04
 Iteration #         17
  pAp =   7.649449347841565E-004  rzold =   1.707904826953016E-004  alpha = 
  0.223271604175657     
 delta_qm =   0.774953E-03 delta_en =   0.466989E+00 tol =   0.100000E-04
 Iteration #         18
  pAp =   1.100048831333206E-004  rzold =   6.355569892826179E-005  alpha = 
  0.577753433465634     
 delta_qm =   0.370913E-03 delta_en =   0.106979E+00 tol =   0.100000E-04
 Iteration #         19
  pAp =   2.940105898022232E-005  rzold =   1.988281537862225E-005  alpha = 
  0.676261878594140     
 delta_qm =   0.275685E-03 delta_en =   0.590993E-01 tol =   0.100000E-04
 Iteration #         20
  pAp =   1.155452952576895E-005  rzold =   7.405094258993845E-006  alpha = 
  0.640882369332216     
 delta_qm =   0.181019E-03 delta_en =   0.254803E-01 tol =   0.100000E-04
 Iteration #         21
  pAp =   4.857049186663574E-006  rzold =   2.642421215104641E-006  alpha = 
  0.544038389061443     
 delta_qm =   0.862021E-04 delta_en =   0.577819E-02 tol =   0.100000E-04
 Iteration #         22
  pAp =   2.361054936911169E-006  rzold =   9.766873414017365E-007  alpha = 
  0.413665656877718     
 delta_qm =   0.467221E-04 delta_en =   0.169746E-02 tol =   0.100000E-04
 Iteration #         23
  pAp =   5.594170581827753E-007  rzold =   2.833450845048779E-007  alpha = 
  0.506500615882725     
 delta_qm =   0.306646E-04 delta_en =   0.731189E-03 tol =   0.100000E-04
 Iteration #         24
  pAp =   3.918807591145919E-006  rzold =   5.788834288865432E-007  alpha = 
  0.147719278230057     
 delta_qm =   0.309232E-04 delta_en =   0.743574E-03 tol =   0.100000E-04
 Iteration #         25
  pAp =   1.353095670025039E-007  rzold =   9.370927781944672E-008  alpha = 
  0.692554709141244     
 delta_qm =   0.192706E-04 delta_en =   0.288765E-03 tol =   0.100000E-04
 Iteration #         26
  pAp =   7.093209814557732E-008  rzold =   3.355680226390259E-008  alpha = 
  0.473083457858985     
 delta_qm =   0.105706E-04 delta_en =   0.868878E-04 tol =   0.100000E-04
 Iteration #         27
  pAp =   2.073961703612148E-008  rzold =   1.159422129372668E-008  alpha = 
  0.559037385962018     
 delta_qm =   0.376008E-05 delta_en =   0.109939E-04 tol =   0.100000E-04
 Iteration #         28
  pAp =   4.332318745269858E-009  rzold =   2.203177266181547E-009  alpha = 
  0.508544591412401     
 delta_qm =   0.234388E-05 delta_en =   0.427194E-05 tol =   0.100000E-04
 Charges are converged, EXIT

%%%% ELECTRONS %%%%%%%%%%%%%%%%%%%%%%%%%%%%%%%%%%%%%%%%%%%%%%%%%%%%%%%%%%%%%%%%%
 number of electrons        =         89
 total electronic charge    =     89.0000000
 number of spin components  =  1

%%%% BOUNDARY %%%%%%%%%%%%%%%%%%%%%%%%%%%%%%%%%%%%%%%%%%%%%%%%%%%%%%%%%%%%%%%%%%
 boundary mode              = full                 
 boundary is built as a function of a smooth density
 function type              =  2 
 using the modified SCCS function with parameters 
 rhomax                     =      0.0050000 
 rhomin                     =      0.0001000 
 volume of the QM region    =   1477.3254637 
 surface of the QM region   =    267.6843074 

%%%% DIELECTRIC %%%%%%%%%%%%%%%%%%%%%%%%%%%%%%%%%%%%%%%%%%%%%%%%%%%%%%%%%%%%%%%%%
 dielectric build on homogeneous background
 environment bulk permitt.  =    100.0000000 
 dielectric flags
 need gradient              =  F 
 need factor depend. sqrt   =  T 
 need gradient of logarithm =  T 

%%%% COMPUTE ELECTROSTATIC POTENTIAL %%%%%%%%%%%%%%%%%%%%%%%%%%%%%%%%%%%%%%%%%%%
 Warning: bad guess with residual norm =   0.558477E+06, reset to no guess
 Iteration #          1
  pAp =    1270.96220461997       rzold =    1270.04298831859       alpha = 
  0.999276755596640     
 delta_qm =   0.561299E-01 delta_en =   0.244988E+04 tol =   0.100000E-04
 Iteration #          2
  pAp =    425.495349213503       rzold =    18.3237282245269       alpha = 
  4.306446182877662E-002
 delta_qm =   0.409535E-01 delta_en =   0.130418E+04 tol =   0.100000E-04
 Iteration #          3
  pAp =    7.62888760683057       rzold =    1.05175727872340       alpha = 
  0.137865090289403     
 delta_qm =   0.316324E-01 delta_en =   0.778075E+03 tol =   0.100000E-04
 Iteration #          4
  pAp =   9.511959847793491E-002  rzold =   7.012356358021626E-002  alpha = 
  0.737214671868942     
 delta_qm =   0.155412E-01 delta_en =   0.187812E+03 tol =   0.100000E-04
 Iteration #          5
  pAp =    1.32598855360871       rzold =   0.288455678115871       alpha = 
  0.217540096655308     
 delta_qm =   0.139609E-01 delta_en =   0.151559E+03 tol =   0.100000E-04
 Iteration #          6
  pAp =   0.307077715387923       rzold =   0.138627198428049       alpha = 
  0.451440112653322     
 delta_qm =   0.662348E-02 delta_en =   0.341137E+02 tol =   0.100000E-04
 Iteration #          7
  pAp =   7.345209854896978E-002  rzold =   3.220822871497080E-002  alpha = 
  0.438492968223337     
 delta_qm =   0.590862E-02 delta_en =   0.271474E+02 tol =   0.100000E-04
 Iteration #          8
  pAp =   1.516405975666895E-002  rzold =   8.712390551807090E-003  alpha = 
  0.574542087779329     
 delta_qm =   0.494065E-02 delta_en =   0.189812E+02 tol =   0.100000E-04
 Iteration #          9
  pAp =   4.952439056835160E-003  rzold =   3.404098436118664E-003  alpha = 
  0.687357965853303     
 delta_qm =   0.364463E-02 delta_en =   0.103291E+02 tol =   0.100000E-04
 Iteration #         10
  pAp =   5.165716323323364E-003  rzold =   3.066145232773315E-003  alpha = 
  0.593556641685796     
 delta_qm =   0.191940E-02 delta_en =   0.286474E+01 tol =   0.100000E-04
 Iteration #         11
  pAp =   4.933810233017108E-003  rzold =   1.924427932759623E-003  alpha = 
  0.390049037533169     
 delta_qm =   0.140675E-02 delta_en =   0.153883E+01 tol =   0.100000E-04
 Iteration #         12
  pAp =   1.298621663592918E-003  rzold =   5.186150971504294E-004  alpha = 
  0.399358113059325     
 delta_qm =   0.132561E-02 delta_en =   0.136643E+01 tol =   0.100000E-04
 Iteration #         13
  pAp =   1.440709718633232E-004  rzold =   1.635192878925996E-004  alpha = 
   1.13499121840954     
 delta_qm =   0.994722E-03 delta_en =   0.769414E+00 tol =   0.100000E-04
 Iteration #         14
  pAp =   2.057771462494624E-004  rzold =   2.360532186918497E-004  alpha = 
   1.14713039321521     
 delta_qm =   0.127119E-02 delta_en =   0.125654E+01 tol =   0.100000E-04
 Iteration #         15
  pAp =   2.047279362618890E-003  rzold =   3.514235300820942E-004  alpha = 
  0.171653921051864     
 delta_qm =   0.133490E-02 delta_en =   0.138566E+01 tol =   0.100000E-04
 Iteration #         16
  pAp =   5.849455857746259E-003  rzold =   7.803268551276492E-004  alpha = 
  0.133401614458597     
 delta_qm =   0.119645E-02 delta_en =   0.111313E+01 tol =   0.100000E-04
 Iteration #         17
  pAp =   3.751237963428583E-004  rzold =   1.442417522734192E-004  alpha = 
  0.384517734357711     
 delta_qm =   0.820846E-03 delta_en =   0.523938E+00 tol =   0.100000E-04
 Iteration #         18
  pAp =   1.512236325644828E-004  rzold =   7.794582087765307E-005  alpha = 
  0.515434125975095     
 delta_qm =   0.368194E-03 delta_en =   0.105417E+00 tol =   0.100000E-04
 Iteration #         19
  pAp =   3.326263083184462E-005  rzold =   2.115972722412821E-005  alpha = 
  0.636141119777890     
 delta_qm =   0.266041E-03 delta_en =   0.550370E-01 tol =   0.100000E-04
 Iteration #         20
  pAp =   1.294667860735097E-005  rzold =   7.510416915603696E-006  alpha = 
  0.580103758143758     
 delta_qm =   0.178875E-03 delta_en =   0.248802E-01 tol =   0.100000E-04
 Iteration #         21
  pAp =   6.065586794563928E-006  rzold =   2.975964256328851E-006  alpha = 
  0.490630891473840     
 delta_qm =   0.923853E-04 delta_en =   0.663685E-02 tol =   0.100000E-04
 Iteration #         22
  pAp =   2.106739209995195E-006  rzold =   1.028604656313294E-006  alpha = 
  0.488244891172667     
 delta_qm =   0.469047E-04 delta_en =   0.171076E-02 tol =   0.100000E-04
 Iteration #         23
  pAp =   8.820498951105848E-007  rzold =   3.097929792114943E-007  alpha = 
  0.351219336829755     
 delta_qm =   0.409993E-04 delta_en =   0.130710E-02 tol =   0.100000E-04
 Iteration #         24
  pAp =   2.738622567582179E-006  rzold =   6.174581594862986E-007  alpha = 
  0.225463036343642     
 delta_qm =   0.308683E-04 delta_en =   0.740936E-03 tol =   0.100000E-04
 Iteration #         25
  pAp =   1.259908612213991E-007  rzold =   9.037232543285995E-008  alpha = 
  0.717292703270374     
 delta_qm =   0.180377E-04 delta_en =   0.253000E-03 tol =   0.100000E-04
 Iteration #         26
  pAp =   5.794158317659751E-008  rzold =   2.802183747028818E-008  alpha = 
  0.483622226629219     
 delta_qm =   0.917628E-05 delta_en =   0.654771E-04 tol =   0.100000E-04
 Iteration #         27
  pAp =   1.938300550250560E-008  rzold =   9.828869387161412E-009  alpha = 
  0.507086962643170     
 delta_qm =   0.365893E-05 delta_en =   0.104103E-04 tol =   0.100000E-04
 Iteration #         28
  pAp =   1.169480096692292E-007  rzold =   6.515879617645158E-009  alpha = 
  5.571603686180208E-002
 delta_qm =   0.324297E-05 delta_en =   0.817791E-05 tol =   0.100000E-04
 Charges are converged, EXIT

%%%% ELECTRONS %%%%%%%%%%%%%%%%%%%%%%%%%%%%%%%%%%%%%%%%%%%%%%%%%%%%%%%%%%%%%%%%%
 number of electrons        =         89
 total electronic charge    =     89.0000000
 number of spin components  =  1

%%%% BOUNDARY %%%%%%%%%%%%%%%%%%%%%%%%%%%%%%%%%%%%%%%%%%%%%%%%%%%%%%%%%%%%%%%%%%
 boundary mode              = full                 
 boundary is built as a function of a smooth density
 function type              =  2 
 using the modified SCCS function with parameters 
 rhomax                     =      0.0050000 
 rhomin                     =      0.0001000 
 volume of the QM region    =   1478.0523400 
 surface of the QM region   =    268.1827190 

%%%% DIELECTRIC %%%%%%%%%%%%%%%%%%%%%%%%%%%%%%%%%%%%%%%%%%%%%%%%%%%%%%%%%%%%%%%%%
 dielectric build on homogeneous background
 environment bulk permitt.  =    100.0000000 
 dielectric flags
 need gradient              =  F 
 need factor depend. sqrt   =  T 
 need gradient of logarithm =  T 

%%%% COMPUTE ELECTROSTATIC POTENTIAL %%%%%%%%%%%%%%%%%%%%%%%%%%%%%%%%%%%%%%%%%%%
 Warning: bad guess with residual norm =   0.549651E+06, reset to no guess
 Iteration #          1
  pAp =    1270.96762169349       rzold =    1269.96706465261       alpha = 
  0.999212759614165     
 delta_qm =   0.578947E-01 delta_en =   0.260636E+04 tol =   0.100000E-04
 Iteration #          2
  pAp =    473.900632049652       rzold =    20.2924095299053       alpha = 
  4.281996722000394E-002
 delta_qm =   0.407842E-01 delta_en =   0.129342E+04 tol =   0.100000E-04
 Iteration #          3
  pAp =    7.42686066420018       rzold =    1.03286615633387       alpha = 
  0.139071702437157     
 delta_qm =   0.321300E-01 delta_en =   0.802746E+03 tol =   0.100000E-04
 Iteration #          4
  pAp =   0.133205579558276       rzold =   7.430031322728785E-002  alpha = 
  0.557786794469687     
 delta_qm =   0.177347E-01 delta_en =   0.244570E+03 tol =   0.100000E-04
 Iteration #          5
  pAp =   0.981024659979486       rzold =   0.264507230169594       alpha = 
  0.269623426362314     
 delta_qm =   0.142213E-01 delta_en =   0.157265E+03 tol =   0.100000E-04
 Iteration #          6
  pAp =   0.282403377670695       rzold =   0.135260976855506       alpha = 
  0.478963736096778     
 delta_qm =   0.655529E-02 delta_en =   0.334149E+02 tol =   0.100000E-04
 Iteration #          7
  pAp =   7.538214385383316E-002  rzold =   3.271653897054428E-002  alpha = 
  0.434009133966553     
 delta_qm =   0.584781E-02 delta_en =   0.265915E+02 tol =   0.100000E-04
 Iteration #          8
  pAp =   1.520469650781544E-002  rzold =   8.701695120517015E-003  alpha = 
  0.572303111479023     
 delta_qm =   0.487602E-02 delta_en =   0.184879E+02 tol =   0.100000E-04
 Iteration #          9
  pAp =   4.959810632133915E-003  rzold =   3.377577111756248E-003  alpha = 
  0.680989126857667     
 delta_qm =   0.359995E-02 delta_en =   0.100774E+02 tol =   0.100000E-04
 Iteration #         10
  pAp =   4.953018783932061E-003  rzold =   2.962631608743594E-003  alpha = 
  0.598146653179386     
 delta_qm =   0.188799E-02 delta_en =   0.277175E+01 tol =   0.100000E-04
 Iteration #         11
  pAp =   4.836429488846039E-003  rzold =   1.883793582432025E-003  alpha = 
  0.389500888367442     
 delta_qm =   0.133085E-02 delta_en =   0.137726E+01 tol =   0.100000E-04
 Iteration #         12
  pAp =   1.299207058299174E-003  rzold =   5.141150012852343E-004  alpha = 
  0.395714445977746     
 delta_qm =   0.126159E-02 delta_en =   0.123764E+01 tol =   0.100000E-04
 Iteration #         13
  pAp =   1.347977446816842E-004  rzold =   1.467171838507204E-004  alpha = 
   1.08842461865503     
 delta_qm =   0.939363E-03 delta_en =   0.686157E+00 tol =   0.100000E-04
 Iteration #         14
  pAp =   1.804148281263446E-004  rzold =   2.012977738861701E-004  alpha = 
   1.11574960870290     
 delta_qm =   0.120001E-02 delta_en =   0.111976E+01 tol =   0.100000E-04
 Iteration #         15
  pAp =   4.006901977588478E-003  rzold =   4.247938966955305E-004  alpha = 
  0.106015544945072     
 delta_qm =   0.117769E-02 delta_en =   0.107849E+01 tol =   0.100000E-04
 Iteration #         16
  pAp =   2.649177904008651E-003  rzold =   5.229063154394564E-004  alpha = 
  0.197384371449049     
 delta_qm =   0.117129E-02 delta_en =   0.106681E+01 tol =   0.100000E-04
 Iteration #         17
  pAp =   3.743969226132926E-004  rzold =   1.511790092033482E-004  alpha = 
  0.403793407670442     
 delta_qm =   0.832144E-03 delta_en =   0.538459E+00 tol =   0.100000E-04
 Iteration #         18
  pAp =   1.152525068510017E-004  rzold =   6.898766390409751E-005  alpha = 
  0.598578423923435     
 delta_qm =   0.368579E-03 delta_en =   0.105637E+00 tol =   0.100000E-04
 Iteration #         19
  pAp =   3.449196338204052E-005  rzold =   2.167744120198948E-005  alpha = 
  0.628478030139526     
 delta_qm =   0.267587E-03 delta_en =   0.556783E-01 tol =   0.100000E-04
 Iteration #         20
  pAp =   1.454839301459414E-005  rzold =   8.036786170121454E-006  alpha = 
  0.552417449958865     
 delta_qm =   0.183283E-03 delta_en =   0.261217E-01 tol =   0.100000E-04
 Iteration #         21
  pAp =   6.038089000528364E-006  rzold =   3.112631690368522E-006  alpha = 
  0.515499471785883     
 delta_qm =   0.938333E-04 delta_en =   0.684652E-02 tol =   0.100000E-04
 Iteration #         22
  pAp =   2.020106341850036E-006  rzold =   1.031200415619095E-006  alpha = 
  0.510468381914345     
 delta_qm =   0.487942E-04 delta_en =   0.185137E-02 tol =   0.100000E-04
 Iteration #         23
  pAp =   1.468973943265134E-006  rzold =   3.858809844384254E-007  alpha = 
  0.262687426286620     
 delta_qm =   0.445394E-04 delta_en =   0.154257E-02 tol =   0.100000E-04
 Iteration #         24
  pAp =   1.960574170114369E-006  rzold =   5.714941635220204E-007  alpha = 
  0.291493263674224     
 delta_qm =   0.327156E-04 delta_en =   0.832271E-03 tol =   0.100000E-04
 Iteration #         25
  pAp =   2.204899441743191E-007  rzold =   1.206773710799103E-007  alpha = 
  0.547314624854288     
 delta_qm =   0.216830E-04 delta_en =   0.365591E-03 tol =   0.100000E-04
 Iteration #         26
  pAp =   1.040701157085078E-007  rzold =   4.865229741068771E-008  alpha = 
  0.467495371552761     
 delta_qm =   0.108095E-04 delta_en =   0.908586E-04 tol =   0.100000E-04
 Iteration #         27
  pAp =   1.351230690590241E-008  rzold =   9.296995974790115E-009  alpha = 
  0.688039136435617     
 delta_qm =   0.352773E-05 delta_en =   0.967711E-05 tol =   0.100000E-04
 Charges are converged, EXIT

%%%% ELECTRONS %%%%%%%%%%%%%%%%%%%%%%%%%%%%%%%%%%%%%%%%%%%%%%%%%%%%%%%%%%%%%%%%%
 number of electrons        =         89
 total electronic charge    =     89.0000000
 number of spin components  =  1

%%%% BOUNDARY %%%%%%%%%%%%%%%%%%%%%%%%%%%%%%%%%%%%%%%%%%%%%%%%%%%%%%%%%%%%%%%%%%
 boundary mode              = full                 
 boundary is built as a function of a smooth density
 function type              =  2 
 using the modified SCCS function with parameters 
 rhomax                     =      0.0050000 
 rhomin                     =      0.0001000 
 volume of the QM region    =   1478.0523400 
 surface of the QM region   =    268.1827190 

%%%% DIELECTRIC %%%%%%%%%%%%%%%%%%%%%%%%%%%%%%%%%%%%%%%%%%%%%%%%%%%%%%%%%%%%%%%%%
 dielectric build on homogeneous background
 environment bulk permitt.  =    100.0000000 
 dielectric flags
 need gradient              =  F 
 need factor depend. sqrt   =  T 
 need gradient of logarithm =  T 
