
     Program PWSCF v.6.7MaX starts on  1Oct2021 at 20:35:51 

     This program is part of the open-source Quantum ESPRESSO suite
     for quantum simulation of materials; please cite
         "P. Giannozzi et al., J. Phys.:Condens. Matter 21 395502 (2009);
         "P. Giannozzi et al., J. Phys.:Condens. Matter 29 465901 (2017);
          URL http://www.quantum-espresso.org", 
     in publications or presentations arising from this work. More details at
     http://www.quantum-espresso.org/quote

     Parallel version (MPI), running on     1 processors

     MPI processes distributed on     1 nodes
     Reading input from isolated.in

     Current dimensions of program PWSCF are:
     Max number of different atomic species (ntypx) = 10
     Max number of k-points (npk) =  40000
     Max angular momentum in pseudopotentials (lmaxx) =  3

     Reading input from environ.in

     ================================================================================

     Reading ENVIRON namelist

     Reading BOUNDARY namelist

     Checking boundary derivatives
     derivatives               = chain          ! SCCS default

     Reading ELECTROSTATIC namelist

     Setting up electrostatic problem
     problem                   = generalized    
     solver                    = cg             

     Checking PBC correction
     pbc_correction            = none           ! default

     Reading EXTERNAL_CHARGES card

     ================================================================================
 
     file C.pbe-rrkjus.UPF: wavefunction(s)  2S 2P renormalized
     file H.pbe-rrkjus.UPF: wavefunction(s)  1S renormalized
     file N.pbe-rrkjus.UPF: wavefunction(s)  2S renormalized
     file O.pbe-rrkjus.UPF: wavefunction(s)  2S renormalized

     gamma-point specific algorithms are used

     Subspace diagonalization in iterative solution of the eigenvalue problem:
     a serial algorithm will be used

 
     G-vector sticks info
     --------------------
     sticks:   dense  smooth     PW     G-vecs:    dense   smooth      PW
     Sum        9549    3809    949               701475   177509   22119
 


     bravais-lattice index     =            1
     lattice parameter (alat)  =      20.0000  a.u.
     unit-cell volume          =    8000.0000 (a.u.)^3
     number of atoms/cell      =           10
     number of atomic types    =            4
     number of electrons       =        24.00
     number of Kohn-Sham states=           12
     kinetic-energy cutoff     =      30.0000  Ry
     charge density cutoff     =     300.0000  Ry
     scf convergence threshold =      5.0E-06
     mixing beta               =       0.7000
     number of iterations used =            8  plain     mixing
     Exchange-correlation= SLA  PW   PBE  PBE
                           (   1   4   3   4   0   0   0)
 

     Environ Module
     ==============

     Please cite
         O. Andreussi, I. Dabo and N. Marzari, J. Chem. Phys. 136, 064102 (2012)         
     in publications or presentations arising from this work.

     compensation onset threshold      =               0.1000E+03
     static permittivity               =                   100.00
     epsilon calculation mode          =                     full

     Electrostatic Setup
     -------------------
     electrostatic problem to solve    = generalized             
     numerical solver adopted          = cg                      
     type of auxiliary density adopted = none                    
     type of core tool for poisson     = fft                     



     celldm(1)=  20.000000  celldm(2)=   0.000000  celldm(3)=   0.000000
     celldm(4)=   0.000000  celldm(5)=   0.000000  celldm(6)=   0.000000

     crystal axes: (cart. coord. in units of alat)
               a(1) = (   1.000000   0.000000   0.000000 )  
               a(2) = (   0.000000   1.000000   0.000000 )  
               a(3) = (   0.000000   0.000000   1.000000 )  

     reciprocal axes: (cart. coord. in units 2 pi/alat)
               b(1) = (  1.000000  0.000000  0.000000 )  
               b(2) = (  0.000000  1.000000  0.000000 )  
               b(3) = (  0.000000  0.000000  1.000000 )  


     PseudoPot. # 1 for C  read from file:
     /home/simplogic86/Work/QE1/Environ/tests/../..//pseudo/C.pbe-rrkjus.UPF
     MD5 check sum: c9ac5a99bc85b198593446162950cd17
     Pseudo is Ultrasoft, Zval =  4.0
     Generated by new atomic code, or converted to UPF format
     Using radial grid of  627 points,  4 beta functions with: 
                l(1) =   0
                l(2) =   0
                l(3) =   1
                l(4) =   1
     Q(r) pseudized with 0 coefficients 


     PseudoPot. # 2 for H  read from file:
     /home/simplogic86/Work/QE1/Environ/tests/../..//pseudo/H.pbe-rrkjus.UPF
     MD5 check sum: 2d52a7f45632fd764c17cc6affed14c8
     Pseudo is Ultrasoft, Zval =  1.0
     Generated by new atomic code, or converted to UPF format
     Using radial grid of 1061 points,  2 beta functions with: 
                l(1) =   0
                l(2) =   0
     Q(r) pseudized with 0 coefficients 


     PseudoPot. # 3 for N  read from file:
     /home/simplogic86/Work/QE1/Environ/tests/../..//pseudo/N.pbe-rrkjus.UPF
     MD5 check sum: 28c76d763763edb36c62a6ca2be9aebd
     Pseudo is Ultrasoft, Zval =  5.0
     Generated by new atomic code, or converted to UPF format
     Using radial grid of 1257 points,  4 beta functions with: 
                l(1) =   0
                l(2) =   0
                l(3) =   1
                l(4) =   1
     Q(r) pseudized with 0 coefficients 


     PseudoPot. # 4 for O  read from file:
     /home/simplogic86/Work/QE1/Environ/tests/../..//pseudo/O.pbe-rrkjus.UPF
     MD5 check sum: fadcf19ee70a498d3030e2e79cf929a4
     Pseudo is Ultrasoft, Zval =  6.0
     Generated by new atomic code, or converted to UPF format
     Using radial grid of 1269 points,  4 beta functions with: 
                l(1) =   0
                l(2) =   0
                l(3) =   1
                l(4) =   1
     Q(r) pseudized with 0 coefficients 


     atomic species   valence    mass     pseudopotential
        C              4.00    12.00000     C ( 1.00)
        H              1.00     1.00000     H ( 1.00)
        N              5.00    14.00000     N ( 1.00)
        O              6.00    16.00000     O ( 1.00)

     No symmetry found



   Cartesian axes

     site n.     atom                  positions (alat units)
         1           C   tau(   1) = (   0.0000000   0.0000000   0.0000000  )
         2           C   tau(   2) = (   0.0000000   0.0000000   0.1455089  )
         3           N   tau(   3) = (   0.1170969   0.0000000  -0.0545024  )
         4           H   tau(   4) = (   0.0476617  -0.0825466   0.1792090  )
         5           H   tau(   5) = (  -0.0953183  -0.0000030   0.1792090  )
         6           H   tau(   6) = (   0.0476566   0.0825496   0.1792090  )
         7           O   tau(   7) = (  -0.0984002  -0.0000019  -0.0641310  )
         8           H   tau(   8) = (   0.1263131  -0.0000015  -0.1475548  )
         9           H   tau(   9) = (   0.1944645   0.0000134  -0.0025716  )
        10           H   tau(  10) = (  -0.0770366  -0.0000045  -0.1522861  )

     number of k points=     1
                       cart. coord. in units 2pi/alat
        k(    1) = (   0.0000000   0.0000000   0.0000000), wk =   2.0000000

     Dense  grid:   350738 G-vectors     FFT dimensions: ( 120, 120, 120)

     Smooth grid:    88755 G-vectors     FFT dimensions: (  72,  72,  72)

     Estimated max dynamical RAM per process >     624.11 MB

     Initial potential from superposition of free atoms

     starting charge   24.42266, renormalised to   24.00000

     negative rho (up, down):  4.438E-04 0.000E+00
     Starting wfcs are   22 randomized atomic wfcs

     total cpu time spent up to now is        6.3 secs

     Self-consistent Calculation

     iteration #  1     ecut=    30.00 Ry     beta= 0.70
     Davidson diagonalization with overlap
     ethr =  1.00E-02,  avg # of iterations =  2.0

     negative rho (up, down):  1.234E-04 0.000E+00

     add environment contribution to local potential
     Polarization accuracy = 3.9E-06, # of iterations =  14

     total cpu time spent up to now is       11.1 secs

     total energy              =     -80.29071716 Ry
     estimated scf accuracy    <       3.64924908 Ry
     electrostatic embedding   =       0.00490874 Ry
     correction to one-el term =       0.00000000 Ry

     iteration #  2     ecut=    30.00 Ry     beta= 0.70
     Davidson diagonalization with overlap
     ethr =  1.00E-02,  avg # of iterations =  4.0

     negative rho (up, down):  4.947E-04 0.000E+00

     add environment contribution to local potential
     Polarization accuracy = 6.2E-06, # of iterations =  16

     total cpu time spent up to now is       16.4 secs

     total energy              =     -81.15256757 Ry
     estimated scf accuracy    <       1.04552955 Ry
     electrostatic embedding   =      -0.16811054 Ry
     correction to one-el term =      -4.98069310 Ry

     iteration #  3     ecut=    30.00 Ry     beta= 0.70
     Davidson diagonalization with overlap
     ethr =  4.36E-03,  avg # of iterations =  4.0

     negative rho (up, down):  2.231E-04 0.000E+00

     add environment contribution to local potential
     Polarization accuracy = 9.1E-06, # of iterations =  17

     total cpu time spent up to now is       20.5 secs

     total energy              =     -81.33178959 Ry
     estimated scf accuracy    <       0.11403895 Ry
     electrostatic embedding   =      -0.13331129 Ry
     correction to one-el term =      -4.25848080 Ry

     iteration #  4     ecut=    30.00 Ry     beta= 0.70
     Davidson diagonalization with overlap
     ethr =  4.75E-04,  avg # of iterations =  5.0

     negative rho (up, down):  1.274E-04 0.000E+00

     add environment contribution to local potential
     Polarization accuracy = 9.9E-06, # of iterations =  19

     total cpu time spent up to now is       25.1 secs

     total energy              =     -81.36388320 Ry
     estimated scf accuracy    <       0.01961102 Ry
     electrostatic embedding   =      -0.11076324 Ry
     correction to one-el term =      -4.01219947 Ry

     iteration #  5     ecut=    30.00 Ry     beta= 0.70
     Davidson diagonalization with overlap
     ethr =  8.17E-05,  avg # of iterations =  4.0

     negative rho (up, down):  7.692E-05 0.000E+00

     add environment contribution to local potential
     Polarization accuracy = 7.0E-06, # of iterations =  19

     total cpu time spent up to now is       29.2 secs

     total energy              =     -81.36894699 Ry
     estimated scf accuracy    <       0.00175304 Ry
     electrostatic embedding   =      -0.10523689 Ry
     correction to one-el term =      -3.78891411 Ry

     iteration #  6     ecut=    30.00 Ry     beta= 0.70
     Davidson diagonalization with overlap
     ethr =  7.30E-06,  avg # of iterations =  2.0

     negative rho (up, down):  1.016E-04 0.000E+00

     add environment contribution to local potential
     Polarization accuracy = 3.6E-06, # of iterations =  20

     total cpu time spent up to now is       33.5 secs

     total energy              =     -81.36946626 Ry
     estimated scf accuracy    <       0.00024077 Ry
     electrostatic embedding   =      -0.10606373 Ry
     correction to one-el term =      -3.76624297 Ry

     iteration #  7     ecut=    30.00 Ry     beta= 0.70
     Davidson diagonalization with overlap
     ethr =  1.00E-06,  avg # of iterations =  5.0

     negative rho (up, down):  3.214E-04 0.000E+00

     add environment contribution to local potential
     Polarization accuracy = 3.9E-06, # of iterations =  20

     total cpu time spent up to now is       37.8 secs

     total energy              =     -81.36967657 Ry
     estimated scf accuracy    <       0.00004759 Ry
     electrostatic embedding   =      -0.10754949 Ry
     correction to one-el term =      -3.76121844 Ry

     iteration #  8     ecut=    30.00 Ry     beta= 0.70
     Davidson diagonalization with overlap
     ethr =  1.98E-07,  avg # of iterations =  5.0

     negative rho (up, down):  3.850E-04 0.000E+00

     add environment contribution to local potential
     Polarization accuracy = 3.9E-06, # of iterations =  20

     total cpu time spent up to now is       43.4 secs

     total energy              =     -81.36979415 Ry
     estimated scf accuracy    <       0.00001304 Ry
     electrostatic embedding   =      -0.10923046 Ry
     correction to one-el term =      -3.76128607 Ry

     iteration #  9     ecut=    30.00 Ry     beta= 0.70
     Davidson diagonalization with overlap
     ethr =  5.43E-08,  avg # of iterations =  3.0

     negative rho (up, down):  3.014E-04 0.000E+00

     add environment contribution to local potential
     Polarization accuracy = 4.0E-06, # of iterations =  20

     total cpu time spent up to now is       48.3 secs

     total energy              =     -81.36983568 Ry
     estimated scf accuracy    <       0.00000696 Ry
     electrostatic embedding   =      -0.11019271 Ry
     correction to one-el term =      -3.76567601 Ry

     iteration # 10     ecut=    30.00 Ry     beta= 0.70
     Davidson diagonalization with overlap
     ethr =  2.90E-08,  avg # of iterations =  5.0

     negative rho (up, down):  2.791E-04 0.000E+00

     the potential shift due to the Gaussian-smeared nuclei is    -0.0668 ev

     total cpu time spent up to now is       50.2 secs

     End of self-consistent calculation

          k = 0.0000 0.0000 0.0000 ( 11060 PWs)   bands (ev):

   -28.9103 -23.0788 -18.6389 -15.9945 -14.6185 -13.3773 -11.6708 -10.9483
    -9.6357  -9.6271  -9.3128  -7.3697

     highest occupied level (ev):    -7.3697

!    total energy              =     -81.36988890 Ry
     estimated scf accuracy    <       0.00000300 Ry

     The total energy is the sum of the following terms:
     one-electron contribution =    -241.98976906 Ry
     hartree contribution      =     123.16930096 Ry
     xc contribution           =     -22.96479536 Ry
     ewald contribution        =      64.30784069 Ry
     electrostatic embedding   =      -0.11273479 Ry
     correction to one-el term =      -3.77973134 Ry

     convergence has been achieved in  10 iterations

     Forces acting on atoms (cartesian axes, Ry/au):

     atom    1 type  1   force =     0.21764914    0.00000406    0.09504065
     atom    2 type  1   force =    -0.03054308    0.00000368   -0.07990020
     atom    3 type  3   force =    -0.13958749   -0.00000010    0.04380676
     atom    4 type  2   force =     0.01852497   -0.02809801    0.00874654
     atom    5 type  2   force =    -0.03097341   -0.00000186    0.01149925
     atom    6 type  2   force =     0.01852320    0.02809652    0.00874765
     atom    7 type  4   force =    -0.09250839   -0.00000242    0.00017700
     atom    8 type  2   force =     0.00691163   -0.00000108   -0.05395219
     atom    9 type  2   force =     0.04325594    0.00000089    0.03738303
     atom   10 type  2   force =    -0.01125250   -0.00000168   -0.07154848

     Total force =     0.329644     Total SCF correction =     0.002205

     Writing output data file /home/simplogic86/Work/QE1/Environ/tests/../..//tempdir/pwscf.save/
 
     init_run     :      6.00s CPU      6.21s WALL (       1 calls)
     electrons    :     40.76s CPU     43.90s WALL (       1 calls)
     forces       :      2.68s CPU      2.78s WALL (       1 calls)

     Called by init_run:
     wfcinit      :      0.10s CPU      0.10s WALL (       1 calls)
     potinit      :      1.19s CPU      1.22s WALL (       1 calls)
     hinit0       :      4.22s CPU      4.22s WALL (       1 calls)

     Called by electrons:
     c_bands      :      2.15s CPU      2.31s WALL (      10 calls)
     sum_band     :      4.16s CPU      4.80s WALL (      10 calls)
     v_of_rho     :      4.44s CPU      4.89s WALL (      11 calls)
     newd         :      2.81s CPU      3.54s WALL (      11 calls)
     mix_rho      :      0.56s CPU      0.56s WALL (      10 calls)

     Called by c_bands:
     init_us_2    :      0.07s CPU      0.07s WALL (      21 calls)
     regterg      :      2.02s CPU      2.17s WALL (      10 calls)

     Called by *egterg:
     rdiaghg      :      0.01s CPU      0.01s WALL (      49 calls)
     h_psi        :      1.91s CPU      2.06s WALL (      50 calls)
     s_psi        :      0.05s CPU      0.05s WALL (      50 calls)
     g_psi        :      0.01s CPU      0.01s WALL (      39 calls)

     Called by h_psi:
     h_psi:calbec :      0.04s CPU      0.04s WALL (      50 calls)
     vloc_psi     :      1.81s CPU      1.96s WALL (      50 calls)
     add_vuspsi   :      0.05s CPU      0.05s WALL (      50 calls)

     General routines
     calbec       :      0.06s CPU      0.06s WALL (      64 calls)
     fft          :      2.01s CPU      2.05s WALL (     121 calls)
     ffts         :      0.06s CPU      0.06s WALL (      21 calls)
     fftw         :      1.50s CPU      1.60s WALL (     476 calls)
     interpolate  :      0.26s CPU      0.26s WALL (      11 calls)
 
     Parallel routines
 
     Environ routines
 
     PWSCF        :     49.50s CPU     52.98s WALL

 
   This run was terminated on:  20:36:44   1Oct2021            

=------------------------------------------------------------------------------=
   JOB DONE.
=------------------------------------------------------------------------------=

%%%% CELL %%%%%%%%%%%%%%%%%%%%%%%%%%%%%%%%%%%%%%%%%%%%%%%%%%%%%%%%%%%%%%%%%%%%%%

 cell label                 = system         

 cell volume                =    8000.000000

%%%% IONS %%%%%%%%%%%%%%%%%%%%%%%%%%%%%%%%%%%%%%%%%%%%%%%%%%%%%%%%%%%%%%%%%%%%%%

 total charge               =    -25.0000000
 center of charge           =      0.1910593    -0.0000030     0.1279620
 dipole                     =      0.0000000     0.0000000     0.0000000
 quadrupole (pc)            =    -79.0828051    -5.4513517  -105.8059620
 quadrupole (gauss)         =    -82.2078051    -8.5763517  -108.9309620

   i | type | coordinates
 -----------------------------------------------------------------------
   1 |    1 |                      0.0000000     0.0000000     0.0000000
   2 |    1 |                      0.0000000     0.0000000     2.9101782
   3 |    3 |                      2.3419379     0.0000000    -1.0900479
   4 |    2 |                      0.9532347    -1.6509323     3.5841800
   5 |    2 |                     -1.9063663    -0.0000596     3.5841809
   6 |    2 |                      0.9531315     1.6509919     3.5841800
   7 |    4 |                     -1.9680045    -0.0000375    -1.2826193
   8 |    2 |                      2.5262613    -0.0000303    -2.9510950
   9 |    2 |                      3.8892907     0.0002681    -0.0514326
  10 |    2 |                     -1.5407317    -0.0000890    -3.0457220

%%%% SYSTEM %%%%%%%%%%%%%%%%%%%%%%%%%%%%%%%%%%%%%%%%%%%%%%%%%%%%%%%%%%%%%%%%%%%%

 system is built from all present ionic types

 system defined dimension   =              0
 system defined axis        =              3

 system center              =      0.1910593    -0.0000030     0.1279620
 system width               =      4.0428509

%%%% IONS %%%%%%%%%%%%%%%%%%%%%%%%%%%%%%%%%%%%%%%%%%%%%%%%%%%%%%%%%%%%%%%%%%%%%%

 total charge               =    -25.0000000
 center of charge           =      0.1910593    -0.0000030     0.1279620
 dipole                     =      0.0000000     0.0000000     0.0000000
 quadrupole (pc)            =    -79.0828051    -5.4513517  -105.8059620
 quadrupole (gauss)         =    -82.2078051    -8.5763517  -108.9309620

   i | type | coordinates
 -----------------------------------------------------------------------
   1 |    1 |                      0.0000000     0.0000000     0.0000000
   2 |    1 |                      0.0000000     0.0000000     2.9101782
   3 |    3 |                      2.3419379     0.0000000    -1.0900479
   4 |    2 |                      0.9532347    -1.6509323     3.5841800
   5 |    2 |                     -1.9063663    -0.0000596     3.5841809
   6 |    2 |                      0.9531315     1.6509919     3.5841800
   7 |    4 |                     -1.9680045    -0.0000375    -1.2826193
   8 |    2 |                      2.5262613    -0.0000303    -2.9510950
   9 |    2 |                      3.8892907     0.0002681    -0.0514326
  10 |    2 |                     -1.5407317    -0.0000890    -3.0457220

%%%% SYSTEM %%%%%%%%%%%%%%%%%%%%%%%%%%%%%%%%%%%%%%%%%%%%%%%%%%%%%%%%%%%%%%%%%%%%

 system is built from all present ionic types

 system defined dimension   =              0
 system defined axis        =              3

 system center              =      0.1910593    -0.0000030     0.1279620
 system width               =      4.0428509

%%%% EXTERNALS %%%%%%%%%%%%%%%%%%%%%%%%%%%%%%%%%%%%%%%%%%%%%%%%%%%%%%%%%%%%%%%%%

 number of external charges =              1

 total external charge      =      1.0000000

%%%% CHARGES %%%%%%%%%%%%%%%%%%%%%%%%%%%%%%%%%%%%%%%%%%%%%%%%%%%%%%%%%%%%%%%%%%%

 total number of charges    =             11

 total charge               =    -25.0000000

%%%% CHARGES %%%%%%%%%%%%%%%%%%%%%%%%%%%%%%%%%%%%%%%%%%%%%%%%%%%%%%%%%%%%%%%%%%%

 total number of charges    =             12

 total charge               =    -24.0000000

%%%% CELL %%%%%%%%%%%%%%%%%%%%%%%%%%%%%%%%%%%%%%%%%%%%%%%%%%%%%%%%%%%%%%%%%%%%%%

 cell label                 = system         

 cell volume                =    8000.000000

%%%% EXTERNALS %%%%%%%%%%%%%%%%%%%%%%%%%%%%%%%%%%%%%%%%%%%%%%%%%%%%%%%%%%%%%%%%%

 number of external charges =              1

 total external charge      =      1.0000000

%%%% ELECTRONS %%%%%%%%%%%%%%%%%%%%%%%%%%%%%%%%%%%%%%%%%%%%%%%%%%%%%%%%%%%%%%%%%

 number of electrons        =             24

 total electronic charge    =     24.0000000

%%%% ELECTRONS %%%%%%%%%%%%%%%%%%%%%%%%%%%%%%%%%%%%%%%%%%%%%%%%%%%%%%%%%%%%%%%%%

 number of electrons        =             24

 total electronic charge    =     24.0000000

%%%% CHARGES %%%%%%%%%%%%%%%%%%%%%%%%%%%%%%%%%%%%%%%%%%%%%%%%%%%%%%%%%%%%%%%%%%%

 total number of charges    =             34

 total charge               =     -1.0000000

%%%% CHARGES %%%%%%%%%%%%%%%%%%%%%%%%%%%%%%%%%%%%%%%%%%%%%%%%%%%%%%%%%%%%%%%%%%%

 total number of charges    =             35

 total charge               =     -0.0000000

%%%% BOUNDARY %%%%%%%%%%%%%%%%%%%%%%%%%%%%%%%%%%%%%%%%%%%%%%%%%%%%%%%%%%%%%%%%%%

 boundary label             = solvent             
 boundary mode              = full                

 boundary is built as a type-2 function of a smooth density

 using the modified SCCS function:
 rhomax                     =      0.0050000
 rhomin                     =      0.0001000

 volume of the QM region    =   2771.6247496

 surface of the QM region   =    905.6001393

%%%% DENSITY %%%%%%%%%%%%%%%%%%%%%%%%%%%%%%%%%%%%%%%%%%%%%%%%%%%%%%%%%%%%%%%%%%%

 density label              = dvtot                                             

 integral of density        =    0.000000000    

%%%% DENSITY %%%%%%%%%%%%%%%%%%%%%%%%%%%%%%%%%%%%%%%%%%%%%%%%%%%%%%%%%%%%%%%%%%%

 density label              = vreference                                        

 integral of density        =    0.000000000    

%%%% DENSITY %%%%%%%%%%%%%%%%%%%%%%%%%%%%%%%%%%%%%%%%%%%%%%%%%%%%%%%%%%%%%%%%%%%

 density label              = velectrostatic                                    

 integral of density        =    0.000000000    

%%%% CHARGES %%%%%%%%%%%%%%%%%%%%%%%%%%%%%%%%%%%%%%%%%%%%%%%%%%%%%%%%%%%%%%%%%%%

 total number of charges    =             34

 total charge               =     -1.0000000

%%%% DENSITY %%%%%%%%%%%%%%%%%%%%%%%%%%%%%%%%%%%%%%%%%%%%%%%%%%%%%%%%%%%%%%%%%%%

 density label              = vsoftcavity                                       

 integral of density        =    0.000000000    

%%%% ELECTRONS %%%%%%%%%%%%%%%%%%%%%%%%%%%%%%%%%%%%%%%%%%%%%%%%%%%%%%%%%%%%%%%%%

 number of electrons        =             24

 total electronic charge    =     24.0000000

%%%% ELECTRONS %%%%%%%%%%%%%%%%%%%%%%%%%%%%%%%%%%%%%%%%%%%%%%%%%%%%%%%%%%%%%%%%%

 number of electrons        =             24

 total electronic charge    =     24.0000000

%%%% CHARGES %%%%%%%%%%%%%%%%%%%%%%%%%%%%%%%%%%%%%%%%%%%%%%%%%%%%%%%%%%%%%%%%%%%

 total number of charges    =             34

 total charge               =     -1.0000000

%%%% CHARGES %%%%%%%%%%%%%%%%%%%%%%%%%%%%%%%%%%%%%%%%%%%%%%%%%%%%%%%%%%%%%%%%%%%

 total number of charges    =             35

 total charge               =     -0.0000000

%%%% BOUNDARY %%%%%%%%%%%%%%%%%%%%%%%%%%%%%%%%%%%%%%%%%%%%%%%%%%%%%%%%%%%%%%%%%%

 boundary label             = solvent             
 boundary mode              = full                

 boundary is built as a type-2 function of a smooth density

 using the modified SCCS function:
 rhomax                     =      0.0050000
 rhomin                     =      0.0001000

 volume of the QM region    =    994.3250268

 surface of the QM region   =    491.9117991

%%%% DENSITY %%%%%%%%%%%%%%%%%%%%%%%%%%%%%%%%%%%%%%%%%%%%%%%%%%%%%%%%%%%%%%%%%%%

 density label              = vreference                                        

 integral of density        =  -0.6906738556E-12

%%%% COMPUTE ELECTROSTATIC POTENTIAL %%%%%%%%%%%%%%%%%%%%%%%%%%%%%%%%%%%%%%%%%%%

   i |      alpha     |       pAp      |      rzold     |    delta_qm    |    delta_en    |       tol
 ---------------------------------------------------------------------------------------------------------
   1 |   0.970134E+00 |   0.921753E+02 |   0.894224E+02 |   0.138294E-01 |   0.330486E+03 |   0.100000E-04
   2 |   0.133155E+00 |   0.125701E+03 |   0.167377E+02 |   0.286565E-02 |   0.141903E+02 |   0.100000E-04
   3 |   0.216171E+00 |   0.811178E+00 |   0.175353E+00 |   0.149830E-02 |   0.387917E+01 |   0.100000E-04
   4 |   0.222708E+00 |   0.107558E+00 |   0.239540E-01 |   0.109505E-02 |   0.207211E+01 |   0.100000E-04
   5 |   0.379086E+00 |   0.105591E-01 |   0.400281E-02 |   0.570251E-03 |   0.561922E+00 |   0.100000E-04
   6 |   0.386703E+00 |   0.329204E-02 |   0.127304E-02 |   0.273759E-03 |   0.129504E+00 |   0.100000E-04
   7 |   0.408828E+00 |   0.516852E-03 |   0.211303E-03 |   0.159301E-03 |   0.438513E-01 |   0.100000E-04
   8 |   0.304154E+00 |   0.402810E-03 |   0.122516E-03 |   0.938824E-04 |   0.152304E-01 |   0.100000E-04
   9 |   0.406564E+00 |   0.133177E-03 |   0.541450E-04 |   0.407687E-04 |   0.287209E-02 |   0.100000E-04
  10 |   0.417054E+00 |   0.284649E-04 |   0.118714E-04 |   0.209297E-04 |   0.756951E-03 |   0.100000E-04
  11 |   0.554316E+00 |   0.204038E-05 |   0.113102E-05 |   0.113340E-04 |   0.221979E-03 |   0.100000E-04
  12 |   0.678177E+00 |   0.392389E-06 |   0.266109E-06 |   0.492444E-05 |   0.419042E-04 |   0.100000E-04
  13 |   0.475354E+00 |   0.215554E-06 |   0.102464E-06 |   0.246470E-05 |   0.104972E-04 |   0.100000E-04
  14 |   0.341852E+00 |   0.860365E-07 |   0.294117E-07 |   0.150045E-05 |   0.389034E-05 |   0.100000E-04

 Charges are converged, EXIT

%%%% DENSITY %%%%%%%%%%%%%%%%%%%%%%%%%%%%%%%%%%%%%%%%%%%%%%%%%%%%%%%%%%%%%%%%%%%

 density label              = velectrostatic                                    

 integral of density        =   0.3467843296E-12

%%%% CHARGES %%%%%%%%%%%%%%%%%%%%%%%%%%%%%%%%%%%%%%%%%%%%%%%%%%%%%%%%%%%%%%%%%%%

 total number of charges    =             35

 total charge               =     -0.0000000

%%%% DENSITY %%%%%%%%%%%%%%%%%%%%%%%%%%%%%%%%%%%%%%%%%%%%%%%%%%%%%%%%%%%%%%%%%%%

 density label              = vsoftcavity                                       

 integral of density        =    68.78561434    

%%%% DENSITY %%%%%%%%%%%%%%%%%%%%%%%%%%%%%%%%%%%%%%%%%%%%%%%%%%%%%%%%%%%%%%%%%%%

 density label              = dvtot                                             

 integral of density        =    68.78561434    

%%%% ELECTRONS %%%%%%%%%%%%%%%%%%%%%%%%%%%%%%%%%%%%%%%%%%%%%%%%%%%%%%%%%%%%%%%%%

 number of electrons        =             24

 total electronic charge    =     24.0000000

%%%% ELECTRONS %%%%%%%%%%%%%%%%%%%%%%%%%%%%%%%%%%%%%%%%%%%%%%%%%%%%%%%%%%%%%%%%%

 number of electrons        =             24

 total electronic charge    =     24.0000000

%%%% CHARGES %%%%%%%%%%%%%%%%%%%%%%%%%%%%%%%%%%%%%%%%%%%%%%%%%%%%%%%%%%%%%%%%%%%

 total number of charges    =             34

 total charge               =     -1.0000000

%%%% CHARGES %%%%%%%%%%%%%%%%%%%%%%%%%%%%%%%%%%%%%%%%%%%%%%%%%%%%%%%%%%%%%%%%%%%

 total number of charges    =             35

 total charge               =     -0.0000000

%%%% BOUNDARY %%%%%%%%%%%%%%%%%%%%%%%%%%%%%%%%%%%%%%%%%%%%%%%%%%%%%%%%%%%%%%%%%%

 boundary label             = solvent             
 boundary mode              = full                

 boundary is built as a type-2 function of a smooth density

 using the modified SCCS function:
 rhomax                     =      0.0050000
 rhomin                     =      0.0001000

 volume of the QM region    =    821.6650041

 surface of the QM region   =    443.1946708

%%%% DENSITY %%%%%%%%%%%%%%%%%%%%%%%%%%%%%%%%%%%%%%%%%%%%%%%%%%%%%%%%%%%%%%%%%%%

 density label              = vreference                                        

 integral of density        =   0.3523765641E-12

%%%% COMPUTE ELECTROSTATIC POTENTIAL %%%%%%%%%%%%%%%%%%%%%%%%%%%%%%%%%%%%%%%%%%%

 Warning: Bad guess with residual norm =   0.641100E+03, reset to no guess

   i |      alpha     |       pAp      |      rzold     |    delta_qm    |    delta_en    |       tol
 ---------------------------------------------------------------------------------------------------------
   1 |   0.972744E+00 |   0.952307E+02 |   0.926351E+02 |   0.188330E-01 |   0.612888E+03 |   0.100000E-04
   2 |   0.113714E+00 |   0.167412E+03 |   0.190372E+02 |   0.383396E-02 |   0.254003E+02 |   0.100000E-04
   3 |   0.180079E+00 |   0.109997E+01 |   0.198081E+00 |   0.200354E-02 |   0.693648E+01 |   0.100000E-04
   4 |   0.190188E+00 |   0.126036E+00 |   0.239706E-01 |   0.154978E-02 |   0.415035E+01 |   0.100000E-04
   5 |   0.372513E+00 |   0.129650E-01 |   0.482964E-02 |   0.865763E-03 |   0.129522E+01 |   0.100000E-04
   6 |   0.354087E+00 |   0.555040E-02 |   0.196532E-02 |   0.468521E-03 |   0.379317E+00 |   0.100000E-04
   7 |   0.450898E+00 |   0.104882E-02 |   0.472913E-03 |   0.286374E-03 |   0.141713E+00 |   0.100000E-04
   8 |   0.377682E+00 |   0.750016E-03 |   0.283267E-03 |   0.163137E-03 |   0.459883E-01 |   0.100000E-04
   9 |   0.249464E+00 |   0.910470E-03 |   0.227130E-03 |   0.846891E-04 |   0.123936E-01 |   0.100000E-04
  10 |   0.351598E+00 |   0.165767E-03 |   0.582834E-04 |   0.407701E-04 |   0.287228E-02 |   0.100000E-04
  11 |   0.436762E+00 |   0.108417E-04 |   0.473527E-05 |   0.234779E-04 |   0.952494E-03 |   0.100000E-04
  12 |   0.441930E+00 |   0.239521E-05 |   0.105852E-05 |   0.154789E-04 |   0.414021E-03 |   0.100000E-04
  13 |   0.528107E+00 |   0.857218E-06 |   0.452703E-06 |   0.873099E-05 |   0.131726E-03 |   0.100000E-04
  14 |   0.410105E+00 |   0.526224E-06 |   0.215807E-06 |   0.583731E-05 |   0.588802E-04 |   0.100000E-04
  15 |   0.366478E+00 |   0.237552E-06 |   0.870578E-07 |   0.366467E-05 |   0.232067E-04 |   0.100000E-04
  16 |   0.381069E+00 |   0.919090E-07 |   0.350236E-07 |   0.189028E-05 |   0.617439E-05 |   0.100000E-04

 Charges are converged, EXIT

%%%% DENSITY %%%%%%%%%%%%%%%%%%%%%%%%%%%%%%%%%%%%%%%%%%%%%%%%%%%%%%%%%%%%%%%%%%%

 density label              = velectrostatic                                    

 integral of density        =   0.9988388717E-12

%%%% CHARGES %%%%%%%%%%%%%%%%%%%%%%%%%%%%%%%%%%%%%%%%%%%%%%%%%%%%%%%%%%%%%%%%%%%

 total number of charges    =             35

 total charge               =     -0.0000000

%%%% DENSITY %%%%%%%%%%%%%%%%%%%%%%%%%%%%%%%%%%%%%%%%%%%%%%%%%%%%%%%%%%%%%%%%%%%

 density label              = vsoftcavity                                       

 integral of density        =    46.96335992    

%%%% DENSITY %%%%%%%%%%%%%%%%%%%%%%%%%%%%%%%%%%%%%%%%%%%%%%%%%%%%%%%%%%%%%%%%%%%

 density label              = dvtot                                             

 integral of density        =    46.96335992    

%%%% ELECTRONS %%%%%%%%%%%%%%%%%%%%%%%%%%%%%%%%%%%%%%%%%%%%%%%%%%%%%%%%%%%%%%%%%

 number of electrons        =             24

 total electronic charge    =     24.0000000

%%%% ELECTRONS %%%%%%%%%%%%%%%%%%%%%%%%%%%%%%%%%%%%%%%%%%%%%%%%%%%%%%%%%%%%%%%%%

 number of electrons        =             24

 total electronic charge    =     24.0000000

%%%% CHARGES %%%%%%%%%%%%%%%%%%%%%%%%%%%%%%%%%%%%%%%%%%%%%%%%%%%%%%%%%%%%%%%%%%%

 total number of charges    =             34

 total charge               =     -1.0000000

%%%% CHARGES %%%%%%%%%%%%%%%%%%%%%%%%%%%%%%%%%%%%%%%%%%%%%%%%%%%%%%%%%%%%%%%%%%%

 total number of charges    =             35

 total charge               =     -0.0000000

%%%% BOUNDARY %%%%%%%%%%%%%%%%%%%%%%%%%%%%%%%%%%%%%%%%%%%%%%%%%%%%%%%%%%%%%%%%%%

 boundary label             = solvent             
 boundary mode              = full                

 boundary is built as a type-2 function of a smooth density

 using the modified SCCS function:
 rhomax                     =      0.0050000
 rhomin                     =      0.0001000

 volume of the QM region    =    754.0368284

 surface of the QM region   =    423.5615171

%%%% DENSITY %%%%%%%%%%%%%%%%%%%%%%%%%%%%%%%%%%%%%%%%%%%%%%%%%%%%%%%%%%%%%%%%%%%

 density label              = vreference                                        

 integral of density        =   0.5925136924E-12

%%%% COMPUTE ELECTROSTATIC POTENTIAL %%%%%%%%%%%%%%%%%%%%%%%%%%%%%%%%%%%%%%%%%%%

 Warning: Bad guess with residual norm =   0.881686E+03, reset to no guess

   i |      alpha     |       pAp      |      rzold     |    delta_qm    |    delta_en    |       tol
 ---------------------------------------------------------------------------------------------------------
   1 |   0.974464E+00 |   0.959269E+02 |   0.934773E+02 |   0.220841E-01 |   0.842760E+03 |   0.100000E-04
   2 |   0.100612E+00 |   0.204590E+03 |   0.205842E+02 |   0.425180E-02 |   0.312384E+02 |   0.100000E-04
   3 |   0.181296E+00 |   0.123670E+01 |   0.224209E+00 |   0.211105E-02 |   0.770087E+01 |   0.100000E-04
   4 |   0.180676E+00 |   0.115051E+00 |   0.207870E-01 |   0.168626E-02 |   0.491354E+01 |   0.100000E-04
   5 |   0.284074E+00 |   0.201470E-01 |   0.572323E-02 |   0.107592E-02 |   0.200033E+01 |   0.100000E-04
   6 |   0.338542E+00 |   0.721899E-02 |   0.244393E-02 |   0.613386E-03 |   0.650146E+00 |   0.100000E-04
   7 |   0.402521E+00 |   0.185491E-02 |   0.746639E-03 |   0.394834E-03 |   0.269384E+00 |   0.100000E-04
   8 |   0.400833E+00 |   0.102307E-02 |   0.410079E-03 |   0.230366E-03 |   0.917021E-01 |   0.100000E-04
   9 |   0.239592E+00 |   0.167670E-02 |   0.401724E-03 |   0.149256E-03 |   0.384955E-01 |   0.100000E-04
  10 |   0.327447E+00 |   0.494937E-03 |   0.162066E-03 |   0.679838E-04 |   0.798646E-02 |   0.100000E-04
  11 |   0.359235E+00 |   0.515729E-04 |   0.185268E-04 |   0.406665E-04 |   0.285770E-02 |   0.100000E-04
  12 |   0.294375E+00 |   0.148492E-04 |   0.437124E-05 |   0.284960E-04 |   0.140317E-02 |   0.100000E-04
  13 |   0.434390E+00 |   0.284874E-05 |   0.123746E-05 |   0.177817E-04 |   0.546374E-03 |   0.100000E-04
  14 |   0.420023E+00 |   0.157389E-05 |   0.661072E-06 |   0.120256E-04 |   0.249895E-03 |   0.100000E-04
  15 |   0.455490E+00 |   0.561215E-06 |   0.255628E-06 |   0.703476E-05 |   0.855150E-04 |   0.100000E-04
  16 |   0.442536E+00 |   0.241299E-06 |   0.106784E-06 |   0.409285E-05 |   0.289465E-04 |   0.100000E-04
  17 |   0.453704E+00 |   0.684142E-07 |   0.310398E-07 |   0.229339E-05 |   0.908867E-05 |   0.100000E-04

 Charges are converged, EXIT

%%%% DENSITY %%%%%%%%%%%%%%%%%%%%%%%%%%%%%%%%%%%%%%%%%%%%%%%%%%%%%%%%%%%%%%%%%%%

 density label              = velectrostatic                                    

 integral of density        =   0.2555980119E-12

%%%% CHARGES %%%%%%%%%%%%%%%%%%%%%%%%%%%%%%%%%%%%%%%%%%%%%%%%%%%%%%%%%%%%%%%%%%%

 total number of charges    =             35

 total charge               =     -0.0000000

%%%% DENSITY %%%%%%%%%%%%%%%%%%%%%%%%%%%%%%%%%%%%%%%%%%%%%%%%%%%%%%%%%%%%%%%%%%%

 density label              = vsoftcavity                                       

 integral of density        =    36.78330845    

%%%% DENSITY %%%%%%%%%%%%%%%%%%%%%%%%%%%%%%%%%%%%%%%%%%%%%%%%%%%%%%%%%%%%%%%%%%%

 density label              = dvtot                                             

 integral of density        =    36.78330845    

%%%% ELECTRONS %%%%%%%%%%%%%%%%%%%%%%%%%%%%%%%%%%%%%%%%%%%%%%%%%%%%%%%%%%%%%%%%%

 number of electrons        =             24

 total electronic charge    =     24.0000000

%%%% ELECTRONS %%%%%%%%%%%%%%%%%%%%%%%%%%%%%%%%%%%%%%%%%%%%%%%%%%%%%%%%%%%%%%%%%

 number of electrons        =             24

 total electronic charge    =     24.0000000

%%%% CHARGES %%%%%%%%%%%%%%%%%%%%%%%%%%%%%%%%%%%%%%%%%%%%%%%%%%%%%%%%%%%%%%%%%%%

 total number of charges    =             34

 total charge               =     -1.0000000

%%%% CHARGES %%%%%%%%%%%%%%%%%%%%%%%%%%%%%%%%%%%%%%%%%%%%%%%%%%%%%%%%%%%%%%%%%%%

 total number of charges    =             35

 total charge               =     -0.0000000

%%%% BOUNDARY %%%%%%%%%%%%%%%%%%%%%%%%%%%%%%%%%%%%%%%%%%%%%%%%%%%%%%%%%%%%%%%%%%

 boundary label             = solvent             
 boundary mode              = full                

 boundary is built as a type-2 function of a smooth density

 using the modified SCCS function:
 rhomax                     =      0.0050000
 rhomin                     =      0.0001000

 volume of the QM region    =    715.7769512

 surface of the QM region   =    412.3532996

%%%% DENSITY %%%%%%%%%%%%%%%%%%%%%%%%%%%%%%%%%%%%%%%%%%%%%%%%%%%%%%%%%%%%%%%%%%%

 density label              = vreference                                        

 integral of density        =  -0.1189501172E-12

%%%% COMPUTE ELECTROSTATIC POTENTIAL %%%%%%%%%%%%%%%%%%%%%%%%%%%%%%%%%%%%%%%%%%%

 Warning: Bad guess with residual norm =   0.134328E+04, reset to no guess

   i |      alpha     |       pAp      |      rzold     |    delta_qm    |    delta_en    |       tol
 ---------------------------------------------------------------------------------------------------------
   1 |   0.974113E+00 |   0.958766E+02 |   0.933947E+02 |   0.272197E-01 |   0.128030E+04 |   0.100000E-04
   2 |   0.931517E-01 |   0.242958E+03 |   0.226319E+02 |   0.513761E-02 |   0.456107E+02 |   0.100000E-04
   3 |   0.166247E+00 |   0.171853E+01 |   0.285701E+00 |   0.245237E-02 |   0.103924E+02 |   0.100000E-04
   4 |   0.169007E+00 |   0.143953E+00 |   0.243290E-01 |   0.199273E-02 |   0.686183E+01 |   0.100000E-04
   5 |   0.254239E+00 |   0.258637E-01 |   0.657556E-02 |   0.132852E-02 |   0.304984E+01 |   0.100000E-04
   6 |   0.323254E+00 |   0.855614E-02 |   0.276581E-02 |   0.798197E-03 |   0.110094E+01 |   0.100000E-04
   7 |   0.365359E+00 |   0.254000E-02 |   0.928010E-03 |   0.543361E-03 |   0.510177E+00 |   0.100000E-04
   8 |   0.350880E+00 |   0.142313E-02 |   0.499348E-03 |   0.345543E-03 |   0.206323E+00 |   0.100000E-04
   9 |   0.258296E+00 |   0.210686E-02 |   0.544193E-03 |   0.236524E-03 |   0.966701E-01 |   0.100000E-04
  10 |   0.354542E+00 |   0.755373E-03 |   0.267812E-03 |   0.109476E-03 |   0.207102E-01 |   0.100000E-04
  11 |   0.332953E+00 |   0.130967E-03 |   0.436059E-04 |   0.709024E-04 |   0.868692E-02 |   0.100000E-04
  12 |   0.270772E+00 |   0.418974E-04 |   0.113446E-04 |   0.513291E-04 |   0.455272E-02 |   0.100000E-04
  13 |   0.410263E+00 |   0.691004E-05 |   0.283493E-05 |   0.337098E-04 |   0.196362E-02 |   0.100000E-04
  14 |   0.411218E+00 |   0.402522E-05 |   0.165524E-05 |   0.232986E-04 |   0.938002E-03 |   0.100000E-04
  15 |   0.449871E+00 |   0.158566E-05 |   0.713344E-06 |   0.130966E-04 |   0.296387E-03 |   0.100000E-04
  16 |   0.428438E+00 |   0.722829E-06 |   0.309687E-06 |   0.805096E-05 |   0.112006E-03 |   0.100000E-04
  17 |   0.490436E+00 |   0.182373E-06 |   0.894423E-07 |   0.427961E-05 |   0.316484E-04 |   0.100000E-04
  18 |   0.300822E+00 |   0.964001E-07 |   0.289993E-07 |   0.318146E-05 |   0.174903E-04 |   0.100000E-04
  19 |   0.282000E+00 |   0.658470E-07 |   0.185688E-07 |   0.238996E-05 |   0.987018E-05 |   0.100000E-04

 Charges are converged, EXIT

%%%% DENSITY %%%%%%%%%%%%%%%%%%%%%%%%%%%%%%%%%%%%%%%%%%%%%%%%%%%%%%%%%%%%%%%%%%%

 density label              = velectrostatic                                    

 integral of density        =   0.9289688360E-13

%%%% CHARGES %%%%%%%%%%%%%%%%%%%%%%%%%%%%%%%%%%%%%%%%%%%%%%%%%%%%%%%%%%%%%%%%%%%

 total number of charges    =             35

 total charge               =     -0.0000000

%%%% DENSITY %%%%%%%%%%%%%%%%%%%%%%%%%%%%%%%%%%%%%%%%%%%%%%%%%%%%%%%%%%%%%%%%%%%

 density label              = vsoftcavity                                       

 integral of density        =    32.87410687    

%%%% DENSITY %%%%%%%%%%%%%%%%%%%%%%%%%%%%%%%%%%%%%%%%%%%%%%%%%%%%%%%%%%%%%%%%%%%

 density label              = dvtot                                             

 integral of density        =    32.87410687    

%%%% ELECTRONS %%%%%%%%%%%%%%%%%%%%%%%%%%%%%%%%%%%%%%%%%%%%%%%%%%%%%%%%%%%%%%%%%

 number of electrons        =             24

 total electronic charge    =     24.0000000

%%%% ELECTRONS %%%%%%%%%%%%%%%%%%%%%%%%%%%%%%%%%%%%%%%%%%%%%%%%%%%%%%%%%%%%%%%%%

 number of electrons        =             24

 total electronic charge    =     24.0000000

%%%% CHARGES %%%%%%%%%%%%%%%%%%%%%%%%%%%%%%%%%%%%%%%%%%%%%%%%%%%%%%%%%%%%%%%%%%%

 total number of charges    =             34

 total charge               =     -1.0000000

%%%% CHARGES %%%%%%%%%%%%%%%%%%%%%%%%%%%%%%%%%%%%%%%%%%%%%%%%%%%%%%%%%%%%%%%%%%%

 total number of charges    =             35

 total charge               =     -0.0000000

%%%% BOUNDARY %%%%%%%%%%%%%%%%%%%%%%%%%%%%%%%%%%%%%%%%%%%%%%%%%%%%%%%%%%%%%%%%%%

 boundary label             = solvent             
 boundary mode              = full                

 boundary is built as a type-2 function of a smooth density

 using the modified SCCS function:
 rhomax                     =      0.0050000
 rhomin                     =      0.0001000

 volume of the QM region    =    715.6459535

 surface of the QM region   =    412.4485894

%%%% DENSITY %%%%%%%%%%%%%%%%%%%%%%%%%%%%%%%%%%%%%%%%%%%%%%%%%%%%%%%%%%%%%%%%%%%

 density label              = vreference                                        

 integral of density        =  -0.6094877689E-12

%%%% COMPUTE ELECTROSTATIC POTENTIAL %%%%%%%%%%%%%%%%%%%%%%%%%%%%%%%%%%%%%%%%%%%

 Warning: Bad guess with residual norm =   0.138289E+04, reset to no guess

   i |      alpha     |       pAp      |      rzold     |    delta_qm    |    delta_en    |       tol
 ---------------------------------------------------------------------------------------------------------
   1 |   0.974047E+00 |   0.958677E+02 |   0.933797E+02 |   0.276148E-01 |   0.131773E+04 |   0.100000E-04
   2 |   0.930122E-01 |   0.243891E+03 |   0.226848E+02 |   0.528287E-02 |   0.482263E+02 |   0.100000E-04
   3 |   0.166635E+00 |   0.180784E+01 |   0.301250E+00 |   0.248998E-02 |   0.107136E+02 |   0.100000E-04
   4 |   0.170879E+00 |   0.141897E+00 |   0.242472E-01 |   0.201053E-02 |   0.698496E+01 |   0.100000E-04
   5 |   0.248673E+00 |   0.268651E-01 |   0.668063E-02 |   0.134962E-02 |   0.314750E+01 |   0.100000E-04
   6 |   0.320539E+00 |   0.883824E-02 |   0.283300E-02 |   0.810608E-03 |   0.113544E+01 |   0.100000E-04
   7 |   0.366059E+00 |   0.255020E-02 |   0.933523E-03 |   0.552355E-03 |   0.527206E+00 |   0.100000E-04
   8 |   0.366168E+00 |   0.134856E-02 |   0.493799E-03 |   0.347753E-03 |   0.208971E+00 |   0.100000E-04
   9 |   0.251093E+00 |   0.217041E-02 |   0.544973E-03 |   0.243001E-03 |   0.102037E+00 |   0.100000E-04
  10 |   0.348883E+00 |   0.799312E-03 |   0.278866E-03 |   0.112135E-03 |   0.217284E-01 |   0.100000E-04
  11 |   0.333556E+00 |   0.136336E-03 |   0.454756E-04 |   0.725910E-04 |   0.910562E-02 |   0.100000E-04
  12 |   0.270122E+00 |   0.441543E-04 |   0.119270E-04 |   0.523802E-04 |   0.474108E-02 |   0.100000E-04
  13 |   0.406304E+00 |   0.716967E-05 |   0.291306E-05 |   0.345836E-04 |   0.206673E-02 |   0.100000E-04
  14 |   0.408041E+00 |   0.416393E-05 |   0.169905E-05 |   0.240309E-04 |   0.997889E-03 |   0.100000E-04
  15 |   0.451228E+00 |   0.161618E-05 |   0.729266E-06 |   0.134357E-04 |   0.311937E-03 |   0.100000E-04
  16 |   0.430424E+00 |   0.743250E-06 |   0.319912E-06 |   0.824244E-05 |   0.117397E-03 |   0.100000E-04
  17 |   0.503796E+00 |   0.182816E-06 |   0.921019E-07 |   0.426885E-05 |   0.314895E-04 |   0.100000E-04
  18 |   0.500820E+00 |   0.455164E-07 |   0.227956E-07 |   0.282398E-05 |   0.137806E-04 |   0.100000E-04
  19 |   0.419706E+00 |   0.180499E-07 |   0.757567E-08 |   0.201147E-05 |   0.699148E-05 |   0.100000E-04

 Charges are converged, EXIT

%%%% DENSITY %%%%%%%%%%%%%%%%%%%%%%%%%%%%%%%%%%%%%%%%%%%%%%%%%%%%%%%%%%%%%%%%%%%

 density label              = velectrostatic                                    

 integral of density        =   0.4310625930E-12

%%%% CHARGES %%%%%%%%%%%%%%%%%%%%%%%%%%%%%%%%%%%%%%%%%%%%%%%%%%%%%%%%%%%%%%%%%%%

 total number of charges    =             35

 total charge               =     -0.0000000

%%%% DENSITY %%%%%%%%%%%%%%%%%%%%%%%%%%%%%%%%%%%%%%%%%%%%%%%%%%%%%%%%%%%%%%%%%%%

 density label              = vsoftcavity                                       

 integral of density        =    33.15718941    

%%%% DENSITY %%%%%%%%%%%%%%%%%%%%%%%%%%%%%%%%%%%%%%%%%%%%%%%%%%%%%%%%%%%%%%%%%%%

 density label              = dvtot                                             

 integral of density        =    33.15718941    

%%%% ELECTRONS %%%%%%%%%%%%%%%%%%%%%%%%%%%%%%%%%%%%%%%%%%%%%%%%%%%%%%%%%%%%%%%%%

 number of electrons        =             24

 total electronic charge    =     24.0000000

%%%% ELECTRONS %%%%%%%%%%%%%%%%%%%%%%%%%%%%%%%%%%%%%%%%%%%%%%%%%%%%%%%%%%%%%%%%%

 number of electrons        =             24

 total electronic charge    =     24.0000000

%%%% CHARGES %%%%%%%%%%%%%%%%%%%%%%%%%%%%%%%%%%%%%%%%%%%%%%%%%%%%%%%%%%%%%%%%%%%

 total number of charges    =             34

 total charge               =     -1.0000000

%%%% CHARGES %%%%%%%%%%%%%%%%%%%%%%%%%%%%%%%%%%%%%%%%%%%%%%%%%%%%%%%%%%%%%%%%%%%

 total number of charges    =             35

 total charge               =     -0.0000000

%%%% BOUNDARY %%%%%%%%%%%%%%%%%%%%%%%%%%%%%%%%%%%%%%%%%%%%%%%%%%%%%%%%%%%%%%%%%%

 boundary label             = solvent             
 boundary mode              = full                

 boundary is built as a type-2 function of a smooth density

 using the modified SCCS function:
 rhomax                     =      0.0050000
 rhomin                     =      0.0001000

 volume of the QM region    =    716.5814186

 surface of the QM region   =    412.8887220

%%%% DENSITY %%%%%%%%%%%%%%%%%%%%%%%%%%%%%%%%%%%%%%%%%%%%%%%%%%%%%%%%%%%%%%%%%%%

 density label              = vreference                                        

 integral of density        =  -0.1320359460E-11

%%%% COMPUTE ELECTROSTATIC POTENTIAL %%%%%%%%%%%%%%%%%%%%%%%%%%%%%%%%%%%%%%%%%%%

 Warning: Bad guess with residual norm =   0.142414E+04, reset to no guess

   i |      alpha     |       pAp      |      rzold     |    delta_qm    |    delta_en    |       tol
 ---------------------------------------------------------------------------------------------------------
   1 |   0.973852E+00 |   0.958661E+02 |   0.933595E+02 |   0.280171E-01 |   0.135641E+04 |   0.100000E-04
   2 |   0.930166E-01 |   0.245224E+03 |   0.228099E+02 |   0.544156E-02 |   0.511670E+02 |   0.100000E-04
   3 |   0.166485E+00 |   0.191380E+01 |   0.318620E+00 |   0.253008E-02 |   0.110615E+02 |   0.100000E-04
   4 |   0.170837E+00 |   0.146368E+00 |   0.250052E-01 |   0.203259E-02 |   0.713911E+01 |   0.100000E-04
   5 |   0.245562E+00 |   0.278176E-01 |   0.683096E-02 |   0.137270E-02 |   0.325608E+01 |   0.100000E-04
   6 |   0.320131E+00 |   0.902446E-02 |   0.288901E-02 |   0.825299E-03 |   0.117697E+01 |   0.100000E-04
   7 |   0.366791E+00 |   0.258021E-02 |   0.946399E-03 |   0.562975E-03 |   0.547673E+00 |   0.100000E-04
   8 |   0.374602E+00 |   0.131769E-02 |   0.493609E-03 |   0.352391E-03 |   0.214582E+00 |   0.100000E-04
   9 |   0.248260E+00 |   0.219795E-02 |   0.545662E-03 |   0.249227E-03 |   0.107334E+00 |   0.100000E-04
  10 |   0.346166E+00 |   0.828939E-03 |   0.286950E-03 |   0.114730E-03 |   0.227457E-01 |   0.100000E-04
  11 |   0.335394E+00 |   0.141007E-03 |   0.472931E-04 |   0.741445E-04 |   0.949951E-02 |   0.100000E-04
  12 |   0.269699E+00 |   0.460430E-04 |   0.124178E-04 |   0.534942E-04 |   0.494490E-02 |   0.100000E-04
  13 |   0.405205E+00 |   0.740848E-05 |   0.300195E-05 |   0.355522E-04 |   0.218413E-02 |   0.100000E-04
  14 |   0.405842E+00 |   0.432096E-05 |   0.175362E-05 |   0.248058E-04 |   0.106329E-02 |   0.100000E-04
  15 |   0.451602E+00 |   0.167987E-05 |   0.758631E-06 |   0.137644E-04 |   0.327384E-03 |   0.100000E-04
  16 |   0.430354E+00 |   0.777602E-06 |   0.334644E-06 |   0.846829E-05 |   0.123918E-03 |   0.100000E-04
  17 |   0.491317E+00 |   0.197888E-06 |   0.972257E-07 |   0.445453E-05 |   0.342884E-04 |   0.100000E-04
  18 |   0.341855E+00 |   0.835710E-07 |   0.285691E-07 |   0.323811E-05 |   0.181187E-04 |   0.100000E-04
  19 |   0.248857E+00 |   0.785635E-07 |   0.195511E-07 |   0.251825E-05 |   0.109582E-04 |   0.100000E-04
  20 |   0.579173E+00 |   0.917475E-08 |   0.531377E-08 |   0.143925E-05 |   0.357945E-05 |   0.100000E-04

 Charges are converged, EXIT

%%%% DENSITY %%%%%%%%%%%%%%%%%%%%%%%%%%%%%%%%%%%%%%%%%%%%%%%%%%%%%%%%%%%%%%%%%%%

 density label              = velectrostatic                                    

 integral of density        =  -0.3638241971E-12

%%%% CHARGES %%%%%%%%%%%%%%%%%%%%%%%%%%%%%%%%%%%%%%%%%%%%%%%%%%%%%%%%%%%%%%%%%%%

 total number of charges    =             35

 total charge               =     -0.0000000

%%%% DENSITY %%%%%%%%%%%%%%%%%%%%%%%%%%%%%%%%%%%%%%%%%%%%%%%%%%%%%%%%%%%%%%%%%%%

 density label              = vsoftcavity                                       

 integral of density        =    33.67662784    

%%%% DENSITY %%%%%%%%%%%%%%%%%%%%%%%%%%%%%%%%%%%%%%%%%%%%%%%%%%%%%%%%%%%%%%%%%%%

 density label              = dvtot                                             

 integral of density        =    33.67662784    

%%%% ELECTRONS %%%%%%%%%%%%%%%%%%%%%%%%%%%%%%%%%%%%%%%%%%%%%%%%%%%%%%%%%%%%%%%%%

 number of electrons        =             24

 total electronic charge    =     24.0000000

%%%% ELECTRONS %%%%%%%%%%%%%%%%%%%%%%%%%%%%%%%%%%%%%%%%%%%%%%%%%%%%%%%%%%%%%%%%%

 number of electrons        =             24

 total electronic charge    =     24.0000000

%%%% CHARGES %%%%%%%%%%%%%%%%%%%%%%%%%%%%%%%%%%%%%%%%%%%%%%%%%%%%%%%%%%%%%%%%%%%

 total number of charges    =             34

 total charge               =     -1.0000000

%%%% CHARGES %%%%%%%%%%%%%%%%%%%%%%%%%%%%%%%%%%%%%%%%%%%%%%%%%%%%%%%%%%%%%%%%%%%

 total number of charges    =             35

 total charge               =     -0.0000000

%%%% BOUNDARY %%%%%%%%%%%%%%%%%%%%%%%%%%%%%%%%%%%%%%%%%%%%%%%%%%%%%%%%%%%%%%%%%%

 boundary label             = solvent             
 boundary mode              = full                

 boundary is built as a type-2 function of a smooth density

 using the modified SCCS function:
 rhomax                     =      0.0050000
 rhomin                     =      0.0001000

 volume of the QM region    =    716.5739215

 surface of the QM region   =    413.0305959

%%%% DENSITY %%%%%%%%%%%%%%%%%%%%%%%%%%%%%%%%%%%%%%%%%%%%%%%%%%%%%%%%%%%%%%%%%%%

 density label              = vreference                                        

 integral of density        =   0.1253318437E-12

%%%% COMPUTE ELECTROSTATIC POTENTIAL %%%%%%%%%%%%%%%%%%%%%%%%%%%%%%%%%%%%%%%%%%%

 Warning: Bad guess with residual norm =   0.148435E+04, reset to no guess

   i |      alpha     |       pAp      |      rzold     |    delta_qm    |    delta_en    |       tol
 ---------------------------------------------------------------------------------------------------------
   1 |   0.973532E+00 |   0.959294E+02 |   0.933904E+02 |   0.285927E-01 |   0.141272E+04 |   0.100000E-04
   2 |   0.928698E-01 |   0.248885E+03 |   0.231139E+02 |   0.558364E-02 |   0.538738E+02 |   0.100000E-04
   3 |   0.165739E+00 |   0.201518E+01 |   0.333995E+00 |   0.256025E-02 |   0.113268E+02 |   0.100000E-04
   4 |   0.170188E+00 |   0.150895E+00 |   0.256804E-01 |   0.205286E-02 |   0.728218E+01 |   0.100000E-04
   5 |   0.243506E+00 |   0.285101E-01 |   0.694238E-02 |   0.139164E-02 |   0.334656E+01 |   0.100000E-04
   6 |   0.319905E+00 |   0.914418E-02 |   0.292527E-02 |   0.837060E-03 |   0.121076E+01 |   0.100000E-04
   7 |   0.364626E+00 |   0.264082E-02 |   0.962911E-03 |   0.573385E-03 |   0.568115E+00 |   0.100000E-04
   8 |   0.372060E+00 |   0.133599E-02 |   0.497069E-03 |   0.359800E-03 |   0.223700E+00 |   0.100000E-04
   9 |   0.249064E+00 |   0.221197E-02 |   0.550921E-03 |   0.255494E-03 |   0.112799E+00 |   0.100000E-04
  10 |   0.349104E+00 |   0.835348E-03 |   0.291623E-03 |   0.117447E-03 |   0.238355E-01 |   0.100000E-04
  11 |   0.335932E+00 |   0.146272E-03 |   0.491375E-04 |   0.761849E-04 |   0.100296E-01 |   0.100000E-04
  12 |   0.269156E+00 |   0.483632E-04 |   0.130172E-04 |   0.550721E-04 |   0.524091E-02 |   0.100000E-04
  13 |   0.403902E+00 |   0.773216E-05 |   0.312303E-05 |   0.368368E-04 |   0.234480E-02 |   0.100000E-04
  14 |   0.405800E+00 |   0.452543E-05 |   0.183642E-05 |   0.256772E-04 |   0.113931E-02 |   0.100000E-04
  15 |   0.451592E+00 |   0.177280E-05 |   0.800585E-06 |   0.141654E-04 |   0.346737E-03 |   0.100000E-04
  16 |   0.430339E+00 |   0.821612E-06 |   0.353572E-06 |   0.871187E-05 |   0.131149E-03 |   0.100000E-04
  17 |   0.492651E+00 |   0.206891E-06 |   0.101925E-06 |   0.456286E-05 |   0.359765E-04 |   0.100000E-04
  18 |   0.391602E+00 |   0.718601E-07 |   0.281405E-07 |   0.322156E-05 |   0.179340E-04 |   0.100000E-04
  19 |   0.228380E+00 |   0.799521E-07 |   0.182595E-07 |   0.259016E-05 |   0.115930E-04 |   0.100000E-04
  20 |   0.547595E+00 |   0.106547E-07 |   0.583448E-08 |   0.149572E-05 |   0.386584E-05 |   0.100000E-04

 Charges are converged, EXIT

%%%% DENSITY %%%%%%%%%%%%%%%%%%%%%%%%%%%%%%%%%%%%%%%%%%%%%%%%%%%%%%%%%%%%%%%%%%%

 density label              = velectrostatic                                    

 integral of density        =   0.3518502362E-12

%%%% CHARGES %%%%%%%%%%%%%%%%%%%%%%%%%%%%%%%%%%%%%%%%%%%%%%%%%%%%%%%%%%%%%%%%%%%

 total number of charges    =             35

 total charge               =     -0.0000000

%%%% DENSITY %%%%%%%%%%%%%%%%%%%%%%%%%%%%%%%%%%%%%%%%%%%%%%%%%%%%%%%%%%%%%%%%%%%

 density label              = vsoftcavity                                       

 integral of density        =    34.07652823    

%%%% DENSITY %%%%%%%%%%%%%%%%%%%%%%%%%%%%%%%%%%%%%%%%%%%%%%%%%%%%%%%%%%%%%%%%%%%

 density label              = dvtot                                             

 integral of density        =    34.07652823    

%%%% ELECTRONS %%%%%%%%%%%%%%%%%%%%%%%%%%%%%%%%%%%%%%%%%%%%%%%%%%%%%%%%%%%%%%%%%

 number of electrons        =             24

 total electronic charge    =     24.0000000

%%%% ELECTRONS %%%%%%%%%%%%%%%%%%%%%%%%%%%%%%%%%%%%%%%%%%%%%%%%%%%%%%%%%%%%%%%%%

 number of electrons        =             24

 total electronic charge    =     24.0000000

%%%% CHARGES %%%%%%%%%%%%%%%%%%%%%%%%%%%%%%%%%%%%%%%%%%%%%%%%%%%%%%%%%%%%%%%%%%%

 total number of charges    =             34

 total charge               =     -1.0000000

%%%% CHARGES %%%%%%%%%%%%%%%%%%%%%%%%%%%%%%%%%%%%%%%%%%%%%%%%%%%%%%%%%%%%%%%%%%%

 total number of charges    =             35

 total charge               =     -0.0000000

%%%% BOUNDARY %%%%%%%%%%%%%%%%%%%%%%%%%%%%%%%%%%%%%%%%%%%%%%%%%%%%%%%%%%%%%%%%%%

 boundary label             = solvent             
 boundary mode              = full                

 boundary is built as a type-2 function of a smooth density

 using the modified SCCS function:
 rhomax                     =      0.0050000
 rhomin                     =      0.0001000

 volume of the QM region    =    716.3382880

 surface of the QM region   =    412.9844915

%%%% DENSITY %%%%%%%%%%%%%%%%%%%%%%%%%%%%%%%%%%%%%%%%%%%%%%%%%%%%%%%%%%%%%%%%%%%

 density label              = vreference                                        

 integral of density        =  -0.3454027188E-13

%%%% COMPUTE ELECTROSTATIC POTENTIAL %%%%%%%%%%%%%%%%%%%%%%%%%%%%%%%%%%%%%%%%%%%

 Warning: Bad guess with residual norm =   0.151402E+04, reset to no guess

   i |      alpha     |       pAp      |      rzold     |    delta_qm    |    delta_en    |       tol
 ---------------------------------------------------------------------------------------------------------
   1 |   0.973329E+00 |   0.959483E+02 |   0.933893E+02 |   0.288708E-01 |   0.144033E+04 |   0.100000E-04
   2 |   0.928062E-01 |   0.251072E+03 |   0.233010E+02 |   0.564035E-02 |   0.549739E+02 |   0.100000E-04
   3 |   0.165452E+00 |   0.205998E+01 |   0.340829E+00 |   0.256699E-02 |   0.113865E+02 |   0.100000E-04
   4 |   0.170254E+00 |   0.151626E+00 |   0.258149E-01 |   0.205601E-02 |   0.730458E+01 |   0.100000E-04
   5 |   0.242437E+00 |   0.287445E-01 |   0.696873E-02 |   0.139582E-02 |   0.336670E+01 |   0.100000E-04
   6 |   0.319809E+00 |   0.918364E-02 |   0.293701E-02 |   0.838233E-03 |   0.121415E+01 |   0.100000E-04
   7 |   0.363244E+00 |   0.266424E-02 |   0.967768E-03 |   0.575334E-03 |   0.571985E+00 |   0.100000E-04
   8 |   0.371769E+00 |   0.133374E-02 |   0.495841E-03 |   0.361272E-03 |   0.225534E+00 |   0.100000E-04
   9 |   0.249377E+00 |   0.220659E-02 |   0.550273E-03 |   0.257049E-03 |   0.114176E+00 |   0.100000E-04
  10 |   0.349889E+00 |   0.835649E-03 |   0.292384E-03 |   0.118056E-03 |   0.240837E-01 |   0.100000E-04
  11 |   0.335280E+00 |   0.147756E-03 |   0.495397E-04 |   0.768168E-04 |   0.101966E-01 |   0.100000E-04
  12 |   0.268749E+00 |   0.493110E-04 |   0.132523E-04 |   0.556163E-04 |   0.534501E-02 |   0.100000E-04
  13 |   0.403436E+00 |   0.782983E-05 |   0.315884E-05 |   0.372423E-04 |   0.239671E-02 |   0.100000E-04
  14 |   0.407427E+00 |   0.456535E-05 |   0.186004E-05 |   0.259045E-04 |   0.115956E-02 |   0.100000E-04
  15 |   0.452103E+00 |   0.179575E-05 |   0.811867E-06 |   0.142777E-04 |   0.352256E-03 |   0.100000E-04
  16 |   0.430804E+00 |   0.832329E-06 |   0.358570E-06 |   0.875769E-05 |   0.132533E-03 |   0.100000E-04
  17 |   0.493072E+00 |   0.208920E-06 |   0.103012E-06 |   0.457833E-05 |   0.362208E-04 |   0.100000E-04
  18 |   0.417658E+00 |   0.664735E-07 |   0.277632E-07 |   0.318533E-05 |   0.175328E-04 |   0.100000E-04
  19 |   0.226224E+00 |   0.730559E-07 |   0.165270E-07 |   0.259371E-05 |   0.116248E-04 |   0.100000E-04
  20 |   0.519100E+00 |   0.118227E-07 |   0.613714E-08 |   0.150900E-05 |   0.393482E-05 |   0.100000E-04

 Charges are converged, EXIT

%%%% DENSITY %%%%%%%%%%%%%%%%%%%%%%%%%%%%%%%%%%%%%%%%%%%%%%%%%%%%%%%%%%%%%%%%%%%

 density label              = velectrostatic                                    

 integral of density        =  -0.1187395861E-11

%%%% CHARGES %%%%%%%%%%%%%%%%%%%%%%%%%%%%%%%%%%%%%%%%%%%%%%%%%%%%%%%%%%%%%%%%%%%

 total number of charges    =             35

 total charge               =     -0.0000000

%%%% DENSITY %%%%%%%%%%%%%%%%%%%%%%%%%%%%%%%%%%%%%%%%%%%%%%%%%%%%%%%%%%%%%%%%%%%

 density label              = vsoftcavity                                       

 integral of density        =    34.28043152    

%%%% DENSITY %%%%%%%%%%%%%%%%%%%%%%%%%%%%%%%%%%%%%%%%%%%%%%%%%%%%%%%%%%%%%%%%%%%

 density label              = dvtot                                             

 integral of density        =    34.28043152    

%%%% ELECTRONS %%%%%%%%%%%%%%%%%%%%%%%%%%%%%%%%%%%%%%%%%%%%%%%%%%%%%%%%%%%%%%%%%

 number of electrons        =             24

 total electronic charge    =     24.0000000

%%%% ELECTRONS %%%%%%%%%%%%%%%%%%%%%%%%%%%%%%%%%%%%%%%%%%%%%%%%%%%%%%%%%%%%%%%%%

 number of electrons        =             24

 total electronic charge    =     24.0000000

%%%% CHARGES %%%%%%%%%%%%%%%%%%%%%%%%%%%%%%%%%%%%%%%%%%%%%%%%%%%%%%%%%%%%%%%%%%%

 total number of charges    =             34

 total charge               =     -1.0000000

%%%% CHARGES %%%%%%%%%%%%%%%%%%%%%%%%%%%%%%%%%%%%%%%%%%%%%%%%%%%%%%%%%%%%%%%%%%%

 total number of charges    =             35

 total charge               =     -0.0000000

%%%% BOUNDARY %%%%%%%%%%%%%%%%%%%%%%%%%%%%%%%%%%%%%%%%%%%%%%%%%%%%%%%%%%%%%%%%%%

 boundary label             = solvent             
 boundary mode              = full                

 boundary is built as a type-2 function of a smooth density

 using the modified SCCS function:
 rhomax                     =      0.0050000
 rhomin                     =      0.0001000

 volume of the QM region    =    716.4676368

 surface of the QM region   =    413.0631385

%%%% DENSITY %%%%%%%%%%%%%%%%%%%%%%%%%%%%%%%%%%%%%%%%%%%%%%%%%%%%%%%%%%%%%%%%%%%

 density label              = vreference                                        

 integral of density        =  -0.3016517077E-12

%%%% COMPUTE ELECTROSTATIC POTENTIAL %%%%%%%%%%%%%%%%%%%%%%%%%%%%%%%%%%%%%%%%%%%

 Warning: Bad guess with residual norm =   0.157402E+04, reset to no guess

   i |      alpha     |       pAp      |      rzold     |    delta_qm    |    delta_en    |       tol
 ---------------------------------------------------------------------------------------------------------
   1 |   0.972842E+00 |   0.959899E+02 |   0.933830E+02 |   0.294224E-01 |   0.149589E+04 |   0.100000E-04
   2 |   0.928320E-01 |   0.255284E+03 |   0.236985E+02 |   0.576681E-02 |   0.574665E+02 |   0.100000E-04
   3 |   0.164990E+00 |   0.216530E+01 |   0.357253E+00 |   0.257639E-02 |   0.114701E+02 |   0.100000E-04
   4 |   0.170390E+00 |   0.153820E+00 |   0.262093E-01 |   0.205716E-02 |   0.731273E+01 |   0.100000E-04
   5 |   0.240402E+00 |   0.291974E-01 |   0.701912E-02 |   0.140226E-02 |   0.339783E+01 |   0.100000E-04
   6 |   0.320480E+00 |   0.922572E-02 |   0.295666E-02 |   0.838249E-03 |   0.121420E+01 |   0.100000E-04
   7 |   0.360732E+00 |   0.270875E-02 |   0.977132E-03 |   0.577107E-03 |   0.575515E+00 |   0.100000E-04
   8 |   0.371512E+00 |   0.132240E-02 |   0.491287E-03 |   0.363140E-03 |   0.227873E+00 |   0.100000E-04
   9 |   0.250205E+00 |   0.218401E-02 |   0.546452E-03 |   0.259030E-03 |   0.115943E+00 |   0.100000E-04
  10 |   0.351400E+00 |   0.831206E-03 |   0.292086E-03 |   0.118300E-03 |   0.241831E-01 |   0.100000E-04
  11 |   0.335367E+00 |   0.147752E-03 |   0.495511E-04 |   0.774086E-04 |   0.103543E-01 |   0.100000E-04
  12 |   0.268837E+00 |   0.501023E-04 |   0.134694E-04 |   0.562082E-04 |   0.545938E-02 |   0.100000E-04
  13 |   0.403103E+00 |   0.791052E-05 |   0.318875E-05 |   0.377448E-04 |   0.246183E-02 |   0.100000E-04
  14 |   0.410152E+00 |   0.459882E-05 |   0.188621E-05 |   0.261567E-04 |   0.118225E-02 |   0.100000E-04
  15 |   0.452279E+00 |   0.182594E-05 |   0.825835E-06 |   0.143995E-04 |   0.358293E-03 |   0.100000E-04
  16 |   0.432241E+00 |   0.842343E-06 |   0.364095E-06 |   0.876760E-05 |   0.132833E-03 |   0.100000E-04
  17 |   0.490678E+00 |   0.211764E-06 |   0.103908E-06 |   0.458652E-05 |   0.363505E-04 |   0.100000E-04
  18 |   0.428892E+00 |   0.651586E-07 |   0.279460E-07 |   0.317688E-05 |   0.174400E-04 |   0.100000E-04
  19 |   0.228282E+00 |   0.679532E-07 |   0.155125E-07 |   0.260449E-05 |   0.117216E-04 |   0.100000E-04
  20 |   0.504906E+00 |   0.125958E-07 |   0.635970E-08 |   0.151978E-05 |   0.399119E-05 |   0.100000E-04

 Charges are converged, EXIT

%%%% DENSITY %%%%%%%%%%%%%%%%%%%%%%%%%%%%%%%%%%%%%%%%%%%%%%%%%%%%%%%%%%%%%%%%%%%

 density label              = velectrostatic                                    

 integral of density        =   0.2856644962E-12

%%%% CHARGES %%%%%%%%%%%%%%%%%%%%%%%%%%%%%%%%%%%%%%%%%%%%%%%%%%%%%%%%%%%%%%%%%%%

 total number of charges    =             35

 total charge               =     -0.0000000

%%%% DENSITY %%%%%%%%%%%%%%%%%%%%%%%%%%%%%%%%%%%%%%%%%%%%%%%%%%%%%%%%%%%%%%%%%%%

 density label              = vsoftcavity                                       

 integral of density        =    34.89408251    

%%%% DENSITY %%%%%%%%%%%%%%%%%%%%%%%%%%%%%%%%%%%%%%%%%%%%%%%%%%%%%%%%%%%%%%%%%%%

 density label              = dvtot                                             

 integral of density        =    34.89408251    

%%%% ELECTRONS %%%%%%%%%%%%%%%%%%%%%%%%%%%%%%%%%%%%%%%%%%%%%%%%%%%%%%%%%%%%%%%%%

 number of electrons        =             24

 total electronic charge    =     24.0000000

%%%% ELECTRONS %%%%%%%%%%%%%%%%%%%%%%%%%%%%%%%%%%%%%%%%%%%%%%%%%%%%%%%%%%%%%%%%%

 number of electrons        =             24

 total electronic charge    =     24.0000000

%%%% CHARGES %%%%%%%%%%%%%%%%%%%%%%%%%%%%%%%%%%%%%%%%%%%%%%%%%%%%%%%%%%%%%%%%%%%

 total number of charges    =             34

 total charge               =     -1.0000000

%%%% CHARGES %%%%%%%%%%%%%%%%%%%%%%%%%%%%%%%%%%%%%%%%%%%%%%%%%%%%%%%%%%%%%%%%%%%

 total number of charges    =             35

 total charge               =     -0.0000000

%%%% BOUNDARY %%%%%%%%%%%%%%%%%%%%%%%%%%%%%%%%%%%%%%%%%%%%%%%%%%%%%%%%%%%%%%%%%%

 boundary label             = solvent             
 boundary mode              = full                

 boundary is built as a type-2 function of a smooth density

 using the modified SCCS function:
 rhomax                     =      0.0050000
 rhomin                     =      0.0001000

 volume of the QM region    =    716.4676368

 surface of the QM region   =    413.0631385

%%%% DENSITY %%%%%%%%%%%%%%%%%%%%%%%%%%%%%%%%%%%%%%%%%%%%%%%%%%%%%%%%%%%%%%%%%%%

 density label              = dvtot                                             

 integral of density        =    34.89408251    

%%%% DENSITY %%%%%%%%%%%%%%%%%%%%%%%%%%%%%%%%%%%%%%%%%%%%%%%%%%%%%%%%%%%%%%%%%%%

 density label              = vreference                                        

 integral of density        =  -0.3016517077E-12

%%%% DENSITY %%%%%%%%%%%%%%%%%%%%%%%%%%%%%%%%%%%%%%%%%%%%%%%%%%%%%%%%%%%%%%%%%%%

 density label              = velectrostatic                                    

 integral of density        =   0.2856644962E-12

%%%% CHARGES %%%%%%%%%%%%%%%%%%%%%%%%%%%%%%%%%%%%%%%%%%%%%%%%%%%%%%%%%%%%%%%%%%%

 total number of charges    =             34

 total charge               =     -1.0000000

%%%% DENSITY %%%%%%%%%%%%%%%%%%%%%%%%%%%%%%%%%%%%%%%%%%%%%%%%%%%%%%%%%%%%%%%%%%%

 density label              = vsoftcavity                                       

 integral of density        =    34.89408251    
