
     Program PWSCF v.6.7MaX starts on 22Jan2021 at 10:54:43 

     This program is part of the open-source Quantum ESPRESSO suite
     for quantum simulation of materials; please cite
         "P. Giannozzi et al., J. Phys.:Condens. Matter 21 395502 (2009);
         "P. Giannozzi et al., J. Phys.:Condens. Matter 29 465901 (2017);
          URL http://www.quantum-espresso.org", 
     in publications or presentations arising from this work. More details at
     http://www.quantum-espresso.org/quote

     Parallel version (MPI), running on     1 processors

     MPI processes distributed on     1 nodes
     Reading input from isolated.in

     Current dimensions of program PWSCF are:
     Max number of different atomic species (ntypx) = 10
     Max number of k-points (npk) =  40000
     Max angular momentum in pseudopotentials (lmaxx) =  3
     file C.pbe-rrkjus.UPF: wavefunction(s)  2S 2P renormalized
     file H.pbe-rrkjus.UPF: wavefunction(s)  1S renormalized
     file N.pbe-rrkjus.UPF: wavefunction(s)  2S renormalized
     file O.pbe-rrkjus.UPF: wavefunction(s)  2S renormalized

     gamma-point specific algorithms are used

     Subspace diagonalization in iterative solution of the eigenvalue problem:
     a serial algorithm will be used


     G-vector sticks info
     --------------------
     sticks:   dense  smooth     PW     G-vecs:    dense   smooth      PW
     Sum        9549    3809    949               701475   177509   22119



     bravais-lattice index     =            1
     lattice parameter (alat)  =      20.0000  a.u.
     unit-cell volume          =    8000.0000 (a.u.)^3
     number of atoms/cell      =           10
     number of atomic types    =            4
     number of electrons       =        24.00
     number of Kohn-Sham states=           12
     kinetic-energy cutoff     =      30.0000  Ry
     charge density cutoff     =     300.0000  Ry
     scf convergence threshold =      5.0E-06
     mixing beta               =       0.7000
     number of iterations used =            8  plain     mixing
     Exchange-correlation= SLA  PW   PBE  PBE
                           (   1   4   3   4   0   0   0)


     Environ Module
     ==============

     Plese cite
         O. Andreussi, I. Dabo and N. Marzari, J. Chem. Phys. 136, 064102 (2012)         
     in publications or presentations arising from this work.

     compensation onset threshold      =               0.1000E+03 
     static permittivity               =                   100.00 
     epsilon calculation mode          =                     full 

     Electrostatic Setup
     -------------------
     electrostatic problem to solve    = generalized              
     numerical solver adopted          = cg                       
     type of auxiliary density adopted = none                     
     type of core tool for poisson     = fft                      



     celldm(1)=  20.000000  celldm(2)=   0.000000  celldm(3)=   0.000000
     celldm(4)=   0.000000  celldm(5)=   0.000000  celldm(6)=   0.000000

     crystal axes: (cart. coord. in units of alat)
               a(1) = (   1.000000   0.000000   0.000000 )  
               a(2) = (   0.000000   1.000000   0.000000 )  
               a(3) = (   0.000000   0.000000   1.000000 )  

     reciprocal axes: (cart. coord. in units 2 pi/alat)
               b(1) = (  1.000000  0.000000  0.000000 )  
               b(2) = (  0.000000  1.000000  0.000000 )  
               b(3) = (  0.000000  0.000000  1.000000 )  


     PseudoPot. # 1 for C  read from file:
     /Users/gabrielmedrano/Desktop/q-e/Environ/tests/../..//pseudo/C.pbe-rrkjus.UPF
     MD5 check sum: c9ac5a99bc85b198593446162950cd17
     Pseudo is Ultrasoft, Zval =  4.0
     Generated by new atomic code, or converted to UPF format
     Using radial grid of  627 points,  4 beta functions with: 
                l(1) =   0
                l(2) =   0
                l(3) =   1
                l(4) =   1
     Q(r) pseudized with 0 coefficients 


     PseudoPot. # 2 for H  read from file:
     /Users/gabrielmedrano/Desktop/q-e/Environ/tests/../..//pseudo/H.pbe-rrkjus.UPF
     MD5 check sum: 2d52a7f45632fd764c17cc6affed14c8
     Pseudo is Ultrasoft, Zval =  1.0
     Generated by new atomic code, or converted to UPF format
     Using radial grid of 1061 points,  2 beta functions with: 
                l(1) =   0
                l(2) =   0
     Q(r) pseudized with 0 coefficients 


     PseudoPot. # 3 for N  read from file:
     /Users/gabrielmedrano/Desktop/q-e/Environ/tests/../..//pseudo/N.pbe-rrkjus.UPF
     MD5 check sum: 28c76d763763edb36c62a6ca2be9aebd
     Pseudo is Ultrasoft, Zval =  5.0
     Generated by new atomic code, or converted to UPF format
     Using radial grid of 1257 points,  4 beta functions with: 
                l(1) =   0
                l(2) =   0
                l(3) =   1
                l(4) =   1
     Q(r) pseudized with 0 coefficients 


     PseudoPot. # 4 for O  read from file:
     /Users/gabrielmedrano/Desktop/q-e/Environ/tests/../..//pseudo/O.pbe-rrkjus.UPF
     MD5 check sum: fadcf19ee70a498d3030e2e79cf929a4
     Pseudo is Ultrasoft, Zval =  6.0
     Generated by new atomic code, or converted to UPF format
     Using radial grid of 1269 points,  4 beta functions with: 
                l(1) =   0
                l(2) =   0
                l(3) =   1
                l(4) =   1
     Q(r) pseudized with 0 coefficients 


     atomic species   valence    mass     pseudopotential
        C              4.00    12.00000     C ( 1.00)
        H              1.00     1.00000     H ( 1.00)
        N              5.00    14.00000     N ( 1.00)
        O              6.00    16.00000     O ( 1.00)

     No symmetry found



   Cartesian axes

     site n.     atom                  positions (alat units)
         1           C   tau(   1) = (   0.0000000   0.0000000   0.0000000  )
         2           C   tau(   2) = (   0.0000000   0.0000000   0.1455089  )
         3           N   tau(   3) = (   0.1170969   0.0000000  -0.0545024  )
         4           H   tau(   4) = (   0.0476617  -0.0825466   0.1792090  )
         5           H   tau(   5) = (  -0.0953183  -0.0000030   0.1792090  )
         6           H   tau(   6) = (   0.0476566   0.0825496   0.1792090  )
         7           O   tau(   7) = (  -0.0984002  -0.0000019  -0.0641310  )
         8           H   tau(   8) = (   0.1263131  -0.0000015  -0.1475548  )
         9           H   tau(   9) = (   0.1944645   0.0000134  -0.0025716  )
        10           H   tau(  10) = (  -0.0770366  -0.0000045  -0.1522861  )

     number of k points=     1
                       cart. coord. in units 2pi/alat
        k(    1) = (   0.0000000   0.0000000   0.0000000), wk =   2.0000000

     Dense  grid:   350738 G-vectors     FFT dimensions: ( 120, 120, 120)

     Smooth grid:    88755 G-vectors     FFT dimensions: (  72,  72,  72)

     Estimated max dynamical RAM per process >     624.11 MB

     Initial potential from superposition of free atoms

     starting charge   24.42266, renormalised to   24.00000

     negative rho (up, down):  4.438E-04 0.000E+00
     Starting wfcs are   22 randomized atomic wfcs

     total cpu time spent up to now is        6.8 secs

     Self-consistent Calculation

     iteration #  1     ecut=    30.00 Ry     beta= 0.70
     Davidson diagonalization with overlap
     ethr =  1.00E-02,  avg # of iterations =  2.0

     negative rho (up, down):  1.234E-04 0.000E+00

     add environment contribution to local potential
     polarization accuracy = 3.9E-06, # of iterations =  14

     total cpu time spent up to now is       12.3 secs

     total energy              =     -80.29071716 Ry
     estimated scf accuracy    <       3.64924908 Ry
     electrostatic embedding   =       0.00490874 Ry
     correction to one-el term =      -0.00000000 Ry

     iteration #  2     ecut=    30.00 Ry     beta= 0.70
     Davidson diagonalization with overlap
     ethr =  1.00E-02,  avg # of iterations =  4.0

     negative rho (up, down):  4.947E-04 0.000E+00

     add environment contribution to local potential
     polarization accuracy = 6.2E-06, # of iterations =  16

     total cpu time spent up to now is       18.2 secs

     total energy              =     -81.15254123 Ry
     estimated scf accuracy    <       1.04561542 Ry
     electrostatic embedding   =      -0.16808214 Ry
     correction to one-el term =      -4.98037513 Ry

     iteration #  3     ecut=    30.00 Ry     beta= 0.70
     Davidson diagonalization with overlap
     ethr =  4.36E-03,  avg # of iterations =  4.0

     negative rho (up, down):  2.232E-04 0.000E+00

     add environment contribution to local potential
     polarization accuracy = 9.1E-06, # of iterations =  17

     total cpu time spent up to now is       24.2 secs

     total energy              =     -81.33174845 Ry
     estimated scf accuracy    <       0.11404157 Ry
     electrostatic embedding   =      -0.13326499 Ry
     correction to one-el term =      -4.25817636 Ry

     iteration #  4     ecut=    30.00 Ry     beta= 0.70
     Davidson diagonalization with overlap
     ethr =  4.75E-04,  avg # of iterations =  5.0

     negative rho (up, down):  1.274E-04 0.000E+00

     add environment contribution to local potential
     polarization accuracy = 9.9E-06, # of iterations =  19

     total cpu time spent up to now is       30.4 secs

     total energy              =     -81.36382755 Ry
     estimated scf accuracy    <       0.01960759 Ry
     electrostatic embedding   =      -0.11069322 Ry
     correction to one-el term =      -4.01174237 Ry

     iteration #  5     ecut=    30.00 Ry     beta= 0.70
     Davidson diagonalization with overlap
     ethr =  8.17E-05,  avg # of iterations =  4.0

     negative rho (up, down):  7.689E-05 0.000E+00

     add environment contribution to local potential
     polarization accuracy = 7.0E-06, # of iterations =  19

     total cpu time spent up to now is       36.6 secs

     total energy              =     -81.36887837 Ry
     estimated scf accuracy    <       0.00175247 Ry
     electrostatic embedding   =      -0.10513447 Ry
     correction to one-el term =      -3.78817303 Ry

     iteration #  6     ecut=    30.00 Ry     beta= 0.70
     Davidson diagonalization with overlap
     ethr =  7.30E-06,  avg # of iterations =  2.0

     negative rho (up, down):  1.016E-04 0.000E+00

     add environment contribution to local potential
     polarization accuracy = 3.6E-06, # of iterations =  20

     total cpu time spent up to now is       42.9 secs

     total energy              =     -81.36939046 Ry
     estimated scf accuracy    <       0.00023860 Ry
     electrostatic embedding   =      -0.10591657 Ry
     correction to one-el term =      -3.76527731 Ry

     iteration #  7     ecut=    30.00 Ry     beta= 0.70
     Davidson diagonalization with overlap
     ethr =  9.94E-07,  avg # of iterations =  5.0

     negative rho (up, down):  3.145E-04 0.000E+00

     add environment contribution to local potential
     polarization accuracy = 3.9E-06, # of iterations =  20

     total cpu time spent up to now is       49.2 secs

     total energy              =     -81.36960259 Ry
     estimated scf accuracy    <       0.00004596 Ry
     electrostatic embedding   =      -0.10733766 Ry
     correction to one-el term =      -3.75988144 Ry

     iteration #  8     ecut=    30.00 Ry     beta= 0.70
     Davidson diagonalization with overlap
     ethr =  1.91E-07,  avg # of iterations =  5.0

     negative rho (up, down):  3.745E-04 0.000E+00

     add environment contribution to local potential
     polarization accuracy = 4.0E-06, # of iterations =  20

     total cpu time spent up to now is       55.5 secs

     total energy              =     -81.36969728 Ry
     estimated scf accuracy    <       0.00001009 Ry
     electrostatic embedding   =      -0.10883779 Ry
     correction to one-el term =      -3.75915513 Ry

     iteration #  9     ecut=    30.00 Ry     beta= 0.70
     Davidson diagonalization with overlap
     ethr =  4.20E-08,  avg # of iterations =  3.0

     negative rho (up, down):  3.090E-04 0.000E+00

     add environment contribution to local potential
     polarization accuracy = 4.0E-06, # of iterations =  20

     total cpu time spent up to now is       61.8 secs

     total energy              =     -81.36971840 Ry
     estimated scf accuracy    <       0.00000550 Ry
     electrostatic embedding   =      -0.10969912 Ry
     correction to one-el term =      -3.76323413 Ry

     iteration # 10     ecut=    30.00 Ry     beta= 0.70
     Davidson diagonalization with overlap
     ethr =  2.29E-08,  avg # of iterations =  5.0

     negative rho (up, down):  2.791E-04 0.000E+00

     the potential shift due to the Gaussian-smeared nuclei is    -0.0668 ev

     total cpu time spent up to now is       64.7 secs

     End of self-consistent calculation

          k = 0.0000 0.0000 0.0000 ( 11060 PWs)   bands (ev):

   -28.9227 -23.0838 -18.6448 -16.0080 -14.6256 -13.3816 -11.6770 -10.9546
    -9.6387  -9.6308  -9.3220  -7.3747

     highest occupied level (ev):    -7.3747

!    total energy              =     -81.36972306 Ry
     estimated scf accuracy    <       0.00000133 Ry

     The total energy is the sum of the following terms:
     one-electron contribution =    -241.99065005 Ry
     hartree contribution      =     123.16233700 Ry
     xc contribution           =     -22.96397519 Ry
     ewald contribution        =      64.30784069 Ry
     electrostatic embedding   =      -0.11157757 Ry
     correction to one-el term =      -3.77369794 Ry

     convergence has been achieved in  10 iterations
 forces lc
       1    0.0497    0.0000   -0.1008
       2    0.0478    0.0000   -0.0557
       3    0.0083    0.0000   -0.1042
       4    0.0124   -0.0005   -0.0138
       5    0.0058    0.0000   -0.0078
       6    0.0124    0.0005   -0.0138
       7    0.2095    0.0000   -0.2532
       8   -0.0191    0.0000   -0.0441
       9    0.0267    0.0000    0.0080
      10    0.0445   -0.0000   -0.0986
 WARNING: Unphysical forces due to core electrons are non-negligible 
 atom type   8 is subject to a spurious force of     0.000361 
 WARNING: Unphysical forces due to core electrons are non-negligible 
 atom type   9 is subject to a spurious force of     0.000446 
 WARNING: Unphysical forces due to core electrons are non-negligible 
 atom type  10 is subject to a spurious force of     0.010211 

     Forces acting on atoms (cartesian axes, Ry/au):

     atom    1 type  1   force =     0.21841406    0.00000416    0.09517562
     atom    2 type  1   force =    -0.03063807    0.00000380   -0.07995949
     atom    3 type  3   force =    -0.13979493   -0.00000002    0.04385869
     atom    4 type  2   force =     0.01846362   -0.02805954    0.00867276
     atom    5 type  2   force =    -0.03097371   -0.00000193    0.01147674
     atom    6 type  2   force =     0.01846182    0.02805797    0.00867390
     atom    7 type  4   force =    -0.09263968   -0.00000239   -0.00046345
     atom    8 type  2   force =     0.00686479   -0.00000114   -0.05396763
     atom    9 type  2   force =     0.04316867    0.00000081    0.03734037
     atom   10 type  2   force =    -0.01132657   -0.00000172   -0.07080751

     Total force =     0.330153     Total SCF correction =     0.001363

     Writing output data file /Users/gabrielmedrano/Desktop/q-e/Environ/tests/../..//tempdir/pwscf.save/

     init_run     :      6.21s CPU      6.68s WALL (       1 calls)
     electrons    :     59.95s CPU     57.97s WALL (       1 calls)
     forces       :      2.85s CPU      3.07s WALL (       1 calls)

     Called by init_run:
     wfcinit      :      0.12s CPU      0.12s WALL (       1 calls)
     potinit      :      1.66s CPU      1.78s WALL (       1 calls)
     hinit0       :      3.78s CPU      3.88s WALL (       1 calls)

     Called by electrons:
     c_bands      :      2.32s CPU      1.90s WALL (      10 calls)
     sum_band     :     13.44s CPU      7.56s WALL (      10 calls)
     v_of_rho     :      5.80s CPU      6.70s WALL (      11 calls)
     newd         :      4.10s CPU      5.71s WALL (      11 calls)
     mix_rho      :      0.77s CPU      0.86s WALL (      10 calls)

     Called by c_bands:
     init_us_2    :      0.08s CPU      0.08s WALL (      21 calls)
     regterg      :      2.22s CPU      1.79s WALL (      10 calls)

     Called by *egterg:
     rdiaghg      :      0.01s CPU      0.01s WALL (      49 calls)
     h_psi        :      1.92s CPU      1.72s WALL (      50 calls)
     s_psi        :      0.14s CPU      0.03s WALL (      50 calls)
     g_psi        :      0.01s CPU      0.01s WALL (      39 calls)

     Called by h_psi:
     h_psi:calbec :      0.06s CPU      0.05s WALL (      50 calls)
     vloc_psi     :      1.58s CPU      1.58s WALL (      50 calls)
     add_vuspsi   :      0.28s CPU      0.08s WALL (      50 calls)

     General routines
     calbec       :      0.07s CPU      0.07s WALL (      64 calls)
     fft          :     24.86s CPU     25.99s WALL (     636 calls)
     ffts         :      0.10s CPU      0.10s WALL (      21 calls)
     fftw         :      1.43s CPU      1.43s WALL (     474 calls)
     interpolate  :      0.48s CPU      0.54s WALL (      11 calls)

     Parallel routines
     fft_scatt_xy :      2.24s CPU      2.24s WALL (     511 calls)
     fft_scatt_yz :      2.96s CPU      2.97s WALL (     511 calls)

     Environ routines
     calc_eelect  :      0.05s CPU      0.05s WALL (      20 calls)
     calc_velect  :     22.64s CPU     23.87s WALL (      18 calls)
     dielectric   :      0.49s CPU      0.56s WALL (      13 calls)
     calc_felect  :      0.32s CPU      0.33s WALL (       1 calls)

     PWSCF        :   1m 9.10s CPU   1m 7.90s WALL


   This run was terminated on:  10:55:51  22Jan2021            

=------------------------------------------------------------------------------=
   JOB DONE.
=------------------------------------------------------------------------------=
 Calling electrostatic_initbase now
 electrolyte_distance:    0.0000000000000000     
 sc_distance:    0.0000000000000000     
 velectrostatic started
 vreference created

%%%% IONS %%%%%%%%%%%%%%%%%%%%%%%%%%%%%%%%%%%%%%%%%%%%%%%%%%%%%%%%%%%%%%%%%%%%%%
 number of ions             =         10
 ionic center of charge     =      0.0095530    -0.0000002     0.0063981
 total ionic charge         =    -25.0000000
 ionic dipole               =      0.0000000     0.0000000     0.0000000
 ionic quadrupole (pc)      =    -79.0828051    -5.4513517  -105.8059620
 ionic quadrupole (gauss)   =    -82.2078051    -8.5763517  -108.9309620
 ion   1 type =  1 coordinates =      0.0000000     0.0000000     0.0000000
 ion   2 type =  1 coordinates =      0.0000000     0.0000000     2.9101782
 ion   3 type =  3 coordinates =      2.3419379     0.0000000    -1.0900479
 ion   4 type =  2 coordinates =      0.9532347    -1.6509323     3.5841800
 ion   5 type =  2 coordinates =     -1.9063663    -0.0000596     3.5841809
 ion   6 type =  2 coordinates =      0.9531315     1.6509919     3.5841800
 ion   7 type =  4 coordinates =     -1.9680045    -0.0000375    -1.2826193
 ion   8 type =  2 coordinates =      2.5262613    -0.0000303    -2.9510950
 ion   9 type =  2 coordinates =      3.8892907     0.0002681    -0.0514326
 ion  10 type =  2 coordinates =     -1.5407317    -0.0000890    -3.0457220

%%%% SYSTEM %%%%%%%%%%%%%%%%%%%%%%%%%%%%%%%%%%%%%%%%%%%%%%%%%%%%%%%%%%%%%%%%%%%%
 system is built from all present ionic types
 system defined dimension   =  0 
 system defined axis        =  3 
 system center              =      0.0095530    -0.0000002     0.0063981 
 system width               =      0.2021425 

%%%% IONS %%%%%%%%%%%%%%%%%%%%%%%%%%%%%%%%%%%%%%%%%%%%%%%%%%%%%%%%%%%%%%%%%%%%%%
 number of ions             =         10
 ionic center of charge     =      0.0095530    -0.0000002     0.0063981
 total ionic charge         =    -25.0000000
 ionic dipole               =      0.0000000     0.0000000     0.0000000
 ionic quadrupole (pc)      =    -79.0828051    -5.4513517  -105.8059620
 ionic quadrupole (gauss)   =    -82.2078051    -8.5763517  -108.9309620
 ion   1 type =  1 coordinates =      0.0000000     0.0000000     0.0000000
 ion   2 type =  1 coordinates =      0.0000000     0.0000000     2.9101782
 ion   3 type =  3 coordinates =      2.3419379     0.0000000    -1.0900479
 ion   4 type =  2 coordinates =      0.9532347    -1.6509323     3.5841800
 ion   5 type =  2 coordinates =     -1.9063663    -0.0000596     3.5841809
 ion   6 type =  2 coordinates =      0.9531315     1.6509919     3.5841800
 ion   7 type =  4 coordinates =     -1.9680045    -0.0000375    -1.2826193
 ion   8 type =  2 coordinates =      2.5262613    -0.0000303    -2.9510950
 ion   9 type =  2 coordinates =      3.8892907     0.0002681    -0.0514326
 ion  10 type =  2 coordinates =     -1.5407317    -0.0000890    -3.0457220

%%%% SYSTEM %%%%%%%%%%%%%%%%%%%%%%%%%%%%%%%%%%%%%%%%%%%%%%%%%%%%%%%%%%%%%%%%%%%%
 system is built from all present ionic types
 system defined dimension   =  0 
 system defined axis        =  3 
 system center              =      0.0095530    -0.0000002     0.0063981 
 system width               =      0.2021425 

%%%% ELECTRONS %%%%%%%%%%%%%%%%%%%%%%%%%%%%%%%%%%%%%%%%%%%%%%%%%%%%%%%%%%%%%%%%%
 number of electrons        =         24
 total electronic charge    =     24.0000000

%%%% ELECTRONS %%%%%%%%%%%%%%%%%%%%%%%%%%%%%%%%%%%%%%%%%%%%%%%%%%%%%%%%%%%%%%%%%
 number of electrons        =         24
 total electronic charge    =     24.0000000

%%%% BOUNDARY %%%%%%%%%%%%%%%%%%%%%%%%%%%%%%%%%%%%%%%%%%%%%%%%%%%%%%%%%%%%%%%%%%
 boundary label             = solvent              
 boundary mode              = full                 
 boundary is built as a function of a smooth density
 function type              =  2 
 using the modified SCCS function with parameters 
 rhomax                     =      0.0050000 
 rhomin                     =      0.0001000 
 volume of the QM region    =   2771.6247498 
 surface of the QM region   =    905.6004064 

%%%% DIELECTRIC %%%%%%%%%%%%%%%%%%%%%%%%%%%%%%%%%%%%%%%%%%%%%%%%%%%%%%%%%%%%%%%%%
 dielectric build on homogeneous background
 environment bulk permitt.  =    100.0000000 
 dielectric flags
 need gradient              =  F 
 need factor depend. sqrt   =  T 
 total dielectric charge    =      0.0000000

%%%% DENSITY %%%%%%%%%%%%%%%%%%%%%%%%%%%%%%%%%%%%%%%%%%%%%%%%%%%%%%%%%%%%%%%%%%%
 density label              = dvtot                                                                           
 integral of density        =      0.000000000    

%%%% DENSITY %%%%%%%%%%%%%%%%%%%%%%%%%%%%%%%%%%%%%%%%%%%%%%%%%%%%%%%%%%%%%%%%%%%
 density label              = vreference                                                                      
 integral of density        =      0.000000000    

%%%% DENSITY %%%%%%%%%%%%%%%%%%%%%%%%%%%%%%%%%%%%%%%%%%%%%%%%%%%%%%%%%%%%%%%%%%%
 density label              = velectrostatic                                                                  
 integral of density        =      0.000000000    

%%%% CHARGES %%%%%%%%%%%%%%%%%%%%%%%%%%%%%%%%%%%%%%%%%%%%%%%%%%%%%%%%%%%%%%%%%%%
 total number of charges    =         34
 total charge               =     -1.0000000

%%%% DENSITY %%%%%%%%%%%%%%%%%%%%%%%%%%%%%%%%%%%%%%%%%%%%%%%%%%%%%%%%%%%%%%%%%%%
 density label              = vsoftcavity                                                                     
 integral of density        =      0.000000000    

%%%% ELECTRONS %%%%%%%%%%%%%%%%%%%%%%%%%%%%%%%%%%%%%%%%%%%%%%%%%%%%%%%%%%%%%%%%%
 number of electrons        =         24
 total electronic charge    =     24.0000000

%%%% ELECTRONS %%%%%%%%%%%%%%%%%%%%%%%%%%%%%%%%%%%%%%%%%%%%%%%%%%%%%%%%%%%%%%%%%
 number of electrons        =         24
 total electronic charge    =     24.0000000

%%%% BOUNDARY %%%%%%%%%%%%%%%%%%%%%%%%%%%%%%%%%%%%%%%%%%%%%%%%%%%%%%%%%%%%%%%%%%
 boundary label             = solvent              
 boundary mode              = full                 
 boundary is built as a function of a smooth density
 function type              =  2 
 using the modified SCCS function with parameters 
 rhomax                     =      0.0050000 
 rhomin                     =      0.0001000 
 volume of the QM region    =    994.3251120 
 surface of the QM region   =    491.9117886 

%%%% DIELECTRIC %%%%%%%%%%%%%%%%%%%%%%%%%%%%%%%%%%%%%%%%%%%%%%%%%%%%%%%%%%%%%%%%%
 dielectric build on homogeneous background
 environment bulk permitt.  =    100.0000000 
 dielectric flags
 need gradient              =  F 
 need factor depend. sqrt   =  T 
 total dielectric charge    =      0.0000000

%%%% DENSITY %%%%%%%%%%%%%%%%%%%%%%%%%%%%%%%%%%%%%%%%%%%%%%%%%%%%%%%%%%%%%%%%%%%
 density label              = vreference                                                                      
 integral of density        =    -0.2399915657E-11

%%%% COMPUTE ELECTROSTATIC POTENTIAL %%%%%%%%%%%%%%%%%%%%%%%%%%%%%%%%%%%%%%%%%%%
 Iteration #          1
  pAp =    92.175191973624081       rzold =    89.422362386345355       alpha =   0.97013481037211780     
 delta_qm =   0.138297E-01 delta_en =   0.330497E+03 tol =   0.100000E-04
 Iteration #          2
  pAp =    125.70779394305205       rzold =    16.738233413683567       alpha =   0.13315191436154145     
 delta_qm =   0.286581E-02 delta_en =   0.141919E+02 tol =   0.100000E-04
 Iteration #          3
  pAp =   0.81107712098738882       rzold =   0.17532230076867641       alpha =   0.21615984008430986     
 delta_qm =   0.149840E-02 delta_en =   0.387970E+01 tol =   0.100000E-04
 Iteration #          4
  pAp =   0.10753552161573002       rzold =    2.3947774164542506E-002  alpha =   0.22269640584548472     
 delta_qm =   0.109505E-02 delta_en =   0.207209E+01 tol =   0.100000E-04
 Iteration #          5
  pAp =    1.0554851442807146E-002  rzold =    4.0008219617937660E-003  alpha =   0.37905052320942151     
 delta_qm =   0.570310E-03 delta_en =   0.562038E+00 tol =   0.100000E-04
 Iteration #          6
  pAp =    3.2900292763751262E-003  rzold =    1.2723674322910868E-003  alpha =   0.38673437997273691     
 delta_qm =   0.273777E-03 delta_en =   0.129520E+00 tol =   0.100000E-04
 Iteration #          7
  pAp =    5.1678156339555017E-004  rzold =    2.1129224963541872E-004  alpha =   0.40886181822568884     
 delta_qm =   0.159291E-03 delta_en =   0.438458E-01 tol =   0.100000E-04
 Iteration #          8
  pAp =    4.0284094225751790E-004  rzold =    1.2252776640112389E-004  alpha =   0.30415916940934334     
 delta_qm =   0.938664E-04 delta_en =   0.152252E-01 tol =   0.100000E-04
 Iteration #          9
  pAp =    1.3321572647817829E-004  rzold =    5.4150985778496716E-005  alpha =   0.40649093924632873     
 delta_qm =   0.407666E-04 delta_en =   0.287179E-02 tol =   0.100000E-04
 Iteration #         10
  pAp =    2.8464276051468021E-005  rzold =    1.1869696961122885E-005  alpha =   0.41700329703311440     
 delta_qm =   0.209300E-04 delta_en =   0.756976E-03 tol =   0.100000E-04
 Iteration #         11
  pAp =    2.0393155419774816E-006  rzold =    1.1303761723892665E-006  alpha =   0.55429194213523447     
 delta_qm =   0.113347E-04 delta_en =   0.222007E-03 tol =   0.100000E-04
 Iteration #         12
  pAp =    3.9229724648761236E-007  rzold =    2.6606780420351473E-007  alpha =   0.67823010889248336     
 delta_qm =   0.492475E-05 delta_en =   0.419094E-04 tol =   0.100000E-04
 Iteration #         13
  pAp =    2.1575457787213084E-007  rzold =    1.0253279538617403E-007  alpha =   0.47522882896575730     
 delta_qm =   0.246439E-05 delta_en =   0.104945E-04 tol =   0.100000E-04
 Iteration #         14
  pAp =    8.6038716141793563E-008  rzold =    2.9414601855944909E-008  alpha =   0.34187634561479330     
 delta_qm =   0.150048E-05 delta_en =   0.389050E-05 tol =   0.100000E-04
 Charges are converged, EXIT

%%%% DENSITY %%%%%%%%%%%%%%%%%%%%%%%%%%%%%%%%%%%%%%%%%%%%%%%%%%%%%%%%%%%%%%%%%%%
 density label              = velectrostatic                                                                  
 integral of density        =     0.4899726715E-11

%%%% CHARGES %%%%%%%%%%%%%%%%%%%%%%%%%%%%%%%%%%%%%%%%%%%%%%%%%%%%%%%%%%%%%%%%%%%
 total number of charges    =         35
 total charge               =      0.0000000

%%%% DENSITY %%%%%%%%%%%%%%%%%%%%%%%%%%%%%%%%%%%%%%%%%%%%%%%%%%%%%%%%%%%%%%%%%%%
 density label              = vsoftcavity                                                                     
 integral of density        =      68.75314388    

%%%% DENSITY %%%%%%%%%%%%%%%%%%%%%%%%%%%%%%%%%%%%%%%%%%%%%%%%%%%%%%%%%%%%%%%%%%%
 density label              = dvtot                                                                           
 integral of density        =      68.75314388    

%%%% ELECTRONS %%%%%%%%%%%%%%%%%%%%%%%%%%%%%%%%%%%%%%%%%%%%%%%%%%%%%%%%%%%%%%%%%
 number of electrons        =         24
 total electronic charge    =     24.0000000

%%%% ELECTRONS %%%%%%%%%%%%%%%%%%%%%%%%%%%%%%%%%%%%%%%%%%%%%%%%%%%%%%%%%%%%%%%%%
 number of electrons        =         24
 total electronic charge    =     24.0000000

%%%% BOUNDARY %%%%%%%%%%%%%%%%%%%%%%%%%%%%%%%%%%%%%%%%%%%%%%%%%%%%%%%%%%%%%%%%%%
 boundary label             = solvent              
 boundary mode              = full                 
 boundary is built as a function of a smooth density
 function type              =  2 
 using the modified SCCS function with parameters 
 rhomax                     =      0.0050000 
 rhomin                     =      0.0001000 
 volume of the QM region    =    821.6762871 
 surface of the QM region   =    443.1999413 

%%%% DIELECTRIC %%%%%%%%%%%%%%%%%%%%%%%%%%%%%%%%%%%%%%%%%%%%%%%%%%%%%%%%%%%%%%%%%
 dielectric build on homogeneous background
 environment bulk permitt.  =    100.0000000 
 dielectric flags
 need gradient              =  F 
 need factor depend. sqrt   =  T 
 total dielectric charge    =     -0.0006218

%%%% DENSITY %%%%%%%%%%%%%%%%%%%%%%%%%%%%%%%%%%%%%%%%%%%%%%%%%%%%%%%%%%%%%%%%%%%
 density label              = vreference                                                                      
 integral of density        =    -0.6587405518E-11

%%%% COMPUTE ELECTROSTATIC POTENTIAL %%%%%%%%%%%%%%%%%%%%%%%%%%%%%%%%%%%%%%%%%%%
 Warning: bad guess with residual norm =   0.641070E+03, reset to no guess
 Iteration #          1
  pAp =    95.230695283219902       rzold =    92.635407409897354       alpha =   0.97274735981288329     
 delta_qm =   0.188326E-01 delta_en =   0.612862E+03 tol =   0.100000E-04
 Iteration #          2
  pAp =    167.41686842633061       rzold =    19.036865818276237       alpha =   0.11370936511486079     
 delta_qm =   0.383344E-02 delta_en =   0.253933E+02 tol =   0.100000E-04
 Iteration #          3
  pAp =    1.0994067658697948       rzold =   0.19794246138913707       alpha =   0.18004479100375106     
 delta_qm =   0.200357E-02 delta_en =   0.693669E+01 tol =   0.100000E-04
 Iteration #          4
  pAp =   0.12594021067014421       rzold =    2.3953962179729071E-002  alpha =   0.19020106487250518     
 delta_qm =   0.154956E-02 delta_en =   0.414915E+01 tol =   0.100000E-04
 Iteration #          5
  pAp =    1.2956942991459460E-002  rzold =    4.8261490351446555E-003  alpha =   0.37247590255863600     
 delta_qm =   0.865818E-03 delta_en =   0.129538E+01 tol =   0.100000E-04
 Iteration #          6
  pAp =    5.5441093751978036E-003  rzold =    1.9633963699902121E-003  alpha =   0.35414098768932778     
 delta_qm =   0.468578E-03 delta_en =   0.379408E+00 tol =   0.100000E-04
 Iteration #          7
  pAp =    1.0492449399246851E-003  rzold =    4.7309177835289562E-004  alpha =   0.45088783405222255     
 delta_qm =   0.286320E-03 delta_en =   0.141660E+00 tol =   0.100000E-04
 Iteration #          8
  pAp =    7.5108668457802912E-004  rzold =    2.8341419978390248E-004  alpha =   0.37733886860626281     
 delta_qm =   0.163168E-03 delta_en =   0.460059E-01 tol =   0.100000E-04
 Iteration #          9
  pAp =    9.0994787509467861E-004  rzold =    2.2711871840419150E-004  alpha =   0.24959530608339534     
 delta_qm =   0.847090E-04 delta_en =   0.123995E-01 tol =   0.100000E-04
 Iteration #         10
  pAp =    1.6572141233891477E-004  rzold =    5.8277781967069369E-005  alpha =   0.35166114712977592     
 delta_qm =   0.407605E-04 delta_en =   0.287093E-02 tol =   0.100000E-04
 Iteration #         11
  pAp =    1.0841116907027589E-005  rzold =    4.7332827030071961E-006  alpha =   0.43660470997586215     
 delta_qm =   0.234752E-04 delta_en =   0.952277E-03 tol =   0.100000E-04
 Iteration #         12
  pAp =    2.3913065162091055E-006  rzold =    1.0570368929453307E-006  alpha =   0.44203320895099302     
 delta_qm =   0.154805E-04 delta_en =   0.414111E-03 tol =   0.100000E-04
 Iteration #         13
  pAp =    8.5690717437638807E-007  rzold =    4.5264639621971380E-007  alpha =   0.52823270682629775     
 delta_qm =   0.872982E-05 delta_en =   0.131691E-03 tol =   0.100000E-04
 Iteration #         14
  pAp =    5.2671878210456349E-007  rzold =    2.1596591940836783E-007  alpha =   0.41002129930786213     
 delta_qm =   0.583636E-05 delta_en =   0.588610E-04 tol =   0.100000E-04
 Iteration #         15
  pAp =    2.3754760969440149E-007  rzold =    8.7024763123806704E-008  alpha =   0.36634661672984914     
 delta_qm =   0.366522E-05 delta_en =   0.232137E-04 tol =   0.100000E-04
 Iteration #         16
  pAp =    9.1703057734505261E-008  rzold =    3.4949364989300602E-008  alpha =   0.38111449991650764     
 delta_qm =   0.189137E-05 delta_en =   0.618151E-05 tol =   0.100000E-04
 Charges are converged, EXIT

%%%% DENSITY %%%%%%%%%%%%%%%%%%%%%%%%%%%%%%%%%%%%%%%%%%%%%%%%%%%%%%%%%%%%%%%%%%%
 density label              = velectrostatic                                                                  
 integral of density        =    -0.7780039987E-11

%%%% CHARGES %%%%%%%%%%%%%%%%%%%%%%%%%%%%%%%%%%%%%%%%%%%%%%%%%%%%%%%%%%%%%%%%%%%
 total number of charges    =         35
 total charge               =     -0.0000000

%%%% DENSITY %%%%%%%%%%%%%%%%%%%%%%%%%%%%%%%%%%%%%%%%%%%%%%%%%%%%%%%%%%%%%%%%%%%
 density label              = vsoftcavity                                                                     
 integral of density        =      46.93440212    

%%%% DENSITY %%%%%%%%%%%%%%%%%%%%%%%%%%%%%%%%%%%%%%%%%%%%%%%%%%%%%%%%%%%%%%%%%%%
 density label              = dvtot                                                                           
 integral of density        =      46.93440212    

%%%% ELECTRONS %%%%%%%%%%%%%%%%%%%%%%%%%%%%%%%%%%%%%%%%%%%%%%%%%%%%%%%%%%%%%%%%%
 number of electrons        =         24
 total electronic charge    =     24.0000000

%%%% ELECTRONS %%%%%%%%%%%%%%%%%%%%%%%%%%%%%%%%%%%%%%%%%%%%%%%%%%%%%%%%%%%%%%%%%
 number of electrons        =         24
 total electronic charge    =     24.0000000

%%%% BOUNDARY %%%%%%%%%%%%%%%%%%%%%%%%%%%%%%%%%%%%%%%%%%%%%%%%%%%%%%%%%%%%%%%%%%
 boundary label             = solvent              
 boundary mode              = full                 
 boundary is built as a function of a smooth density
 function type              =  2 
 using the modified SCCS function with parameters 
 rhomax                     =      0.0050000 
 rhomin                     =      0.0001000 
 volume of the QM region    =    754.0462763 
 surface of the QM region   =    423.5670534 

%%%% DIELECTRIC %%%%%%%%%%%%%%%%%%%%%%%%%%%%%%%%%%%%%%%%%%%%%%%%%%%%%%%%%%%%%%%%%
 dielectric build on homogeneous background
 environment bulk permitt.  =    100.0000000 
 dielectric flags
 need gradient              =  F 
 need factor depend. sqrt   =  T 
 total dielectric charge    =     -0.0000270

%%%% DENSITY %%%%%%%%%%%%%%%%%%%%%%%%%%%%%%%%%%%%%%%%%%%%%%%%%%%%%%%%%%%%%%%%%%%
 density label              = vreference                                                                      
 integral of density        =    -0.4452561776E-11

%%%% COMPUTE ELECTROSTATIC POTENTIAL %%%%%%%%%%%%%%%%%%%%%%%%%%%%%%%%%%%%%%%%%%%
 Warning: bad guess with residual norm =   0.881510E+03, reset to no guess
 Iteration #          1
  pAp =    95.926640957480203       rzold =    93.477564654496419       alpha =   0.97446927903928848     
 delta_qm =   0.220820E-01 delta_en =   0.842599E+03 tol =   0.100000E-04
 Iteration #          2
  pAp =    204.61133526462453       rzold =    20.584198165692690       alpha =   0.10060145562840435     
 delta_qm =   0.425001E-02 delta_en =   0.312121E+02 tol =   0.100000E-04
 Iteration #          3
  pAp =    1.2351772500996552       rzold =   0.22386281375950423       alpha =   0.18123942433480117     
 delta_qm =   0.211097E-02 delta_en =   0.770031E+01 tol =   0.100000E-04
 Iteration #          4
  pAp =   0.11505438472359880       rzold =    2.0782960551032823E-002  alpha =   0.18063597142308677     
 delta_qm =   0.168584E-02 delta_en =   0.491106E+01 tol =   0.100000E-04
 Iteration #          5
  pAp =    2.0130717781629191E-002  rzold =    5.7182540023343028E-003  alpha =   0.28405614068826912     
 delta_qm =   0.107604E-02 delta_en =   0.200078E+01 tol =   0.100000E-04
 Iteration #          6
  pAp =    7.2048124423319546E-003  rzold =    2.4398980014262760E-003  alpha =   0.33864837162042255     
 delta_qm =   0.613548E-03 delta_en =   0.650490E+00 tol =   0.100000E-04
 Iteration #          7
  pAp =    1.8547290429250119E-003  rzold =    7.4681418904163743E-004  alpha =   0.40265406523417002     
 delta_qm =   0.394743E-03 delta_en =   0.269260E+00 tol =   0.100000E-04
 Iteration #          8
  pAp =    1.0261686069506339E-003  rzold =    4.1056821750540311E-004  alpha =   0.40009820484125802     
 delta_qm =   0.230418E-03 delta_en =   0.917437E-01 tol =   0.100000E-04
 Iteration #          9
  pAp =    1.6762073815076890E-003  rzold =    4.0183675039214375E-004  alpha =   0.23972973441430967     
 delta_qm =   0.149288E-03 delta_en =   0.385118E-01 tol =   0.100000E-04
 Iteration #         10
  pAp =    4.9434031261126274E-004  rzold =    1.6198518539390996E-004  alpha =   0.32767949783065980     
 delta_qm =   0.679771E-04 delta_en =   0.798490E-02 tol =   0.100000E-04
 Iteration #         11
  pAp =    5.1595886709794880E-005  rzold =    1.8526526750162313E-005  alpha =   0.35906983931425035     
 delta_qm =   0.406564E-04 delta_en =   0.285628E-02 tol =   0.100000E-04
 Iteration #         12
  pAp =    1.4832821564166134E-005  rzold =    4.3658294282182103E-006  alpha =   0.29433573439360977     
 delta_qm =   0.284957E-04 delta_en =   0.140314E-02 tol =   0.100000E-04
 Iteration #         13
  pAp =    2.8450900216746700E-006  rzold =    1.2361791144279581E-006  alpha =   0.43449560646953495     
 delta_qm =   0.177853E-04 delta_en =   0.546597E-03 tol =   0.100000E-04
 Iteration #         14
  pAp =    1.5728356481688716E-006  rzold =    6.6116164060383443E-007  alpha =   0.42036282772047590     
 delta_qm =   0.120226E-04 delta_en =   0.249769E-03 tol =   0.100000E-04
 Iteration #         15
  pAp =    5.6221062272361419E-007  rzold =    2.5591463715372674E-007  alpha =   0.45519352856400186     
 delta_qm =   0.703480E-05 delta_en =   0.855161E-04 tol =   0.100000E-04
 Iteration #         16
  pAp =    2.4131256842746654E-007  rzold =    1.0671963869068673E-007  alpha =   0.44224649957577489     
 delta_qm =   0.409493E-05 delta_en =   0.289759E-04 tol =   0.100000E-04
 Iteration #         17
  pAp =    6.8242127385594816E-008  rzold =    3.0983465153473992E-008  alpha =   0.45402255674717240     
 delta_qm =   0.229432E-05 delta_en =   0.909601E-05 tol =   0.100000E-04
 Charges are converged, EXIT

%%%% DENSITY %%%%%%%%%%%%%%%%%%%%%%%%%%%%%%%%%%%%%%%%%%%%%%%%%%%%%%%%%%%%%%%%%%%
 density label              = velectrostatic                                                                  
 integral of density        =     0.1028063231E-10

%%%% CHARGES %%%%%%%%%%%%%%%%%%%%%%%%%%%%%%%%%%%%%%%%%%%%%%%%%%%%%%%%%%%%%%%%%%%
 total number of charges    =         35
 total charge               =      0.0000000

%%%% DENSITY %%%%%%%%%%%%%%%%%%%%%%%%%%%%%%%%%%%%%%%%%%%%%%%%%%%%%%%%%%%%%%%%%%%
 density label              = vsoftcavity                                                                     
 integral of density        =      36.73926874    

%%%% DENSITY %%%%%%%%%%%%%%%%%%%%%%%%%%%%%%%%%%%%%%%%%%%%%%%%%%%%%%%%%%%%%%%%%%%
 density label              = dvtot                                                                           
 integral of density        =      36.73926874    

%%%% ELECTRONS %%%%%%%%%%%%%%%%%%%%%%%%%%%%%%%%%%%%%%%%%%%%%%%%%%%%%%%%%%%%%%%%%
 number of electrons        =         24
 total electronic charge    =     24.0000000

%%%% ELECTRONS %%%%%%%%%%%%%%%%%%%%%%%%%%%%%%%%%%%%%%%%%%%%%%%%%%%%%%%%%%%%%%%%%
 number of electrons        =         24
 total electronic charge    =     24.0000000

%%%% BOUNDARY %%%%%%%%%%%%%%%%%%%%%%%%%%%%%%%%%%%%%%%%%%%%%%%%%%%%%%%%%%%%%%%%%%
 boundary label             = solvent              
 boundary mode              = full                 
 boundary is built as a function of a smooth density
 function type              =  2 
 using the modified SCCS function with parameters 
 rhomax                     =      0.0050000 
 rhomin                     =      0.0001000 
 volume of the QM region    =    715.7876513 
 surface of the QM region   =    412.3602411 

%%%% DIELECTRIC %%%%%%%%%%%%%%%%%%%%%%%%%%%%%%%%%%%%%%%%%%%%%%%%%%%%%%%%%%%%%%%%%
 dielectric build on homogeneous background
 environment bulk permitt.  =    100.0000000 
 dielectric flags
 need gradient              =  F 
 need factor depend. sqrt   =  T 
 total dielectric charge    =     -0.0003356

%%%% DENSITY %%%%%%%%%%%%%%%%%%%%%%%%%%%%%%%%%%%%%%%%%%%%%%%%%%%%%%%%%%%%%%%%%%%
 density label              = vreference                                                                      
 integral of density        =     0.2533825002E-11

%%%% COMPUTE ELECTROSTATIC POTENTIAL %%%%%%%%%%%%%%%%%%%%%%%%%%%%%%%%%%%%%%%%%%%
 Warning: bad guess with residual norm =   0.134241E+04, reset to no guess
 Iteration #          1
  pAp =    95.876264748853046       rzold =    93.394894904320623       alpha =   0.97411903925301691     
 delta_qm =   0.272111E-01 delta_en =   0.127949E+04 tol =   0.100000E-04
 Iteration #          2
  pAp =    243.05043237392050       rzold =    22.635548402309734       alpha =    9.3131076465176224E-002
 delta_qm =   0.513222E-02 delta_en =   0.455150E+02 tol =   0.100000E-04
 Iteration #          3
  pAp =    1.7153581358552297       rzold =   0.28496628621365244       alpha =   0.16612640839084966     
 delta_qm =   0.245269E-02 delta_en =   0.103951E+02 tol =   0.100000E-04
 Iteration #          4
  pAp =   0.14407981950456014       rzold =    2.4341551357932610E-002  alpha =   0.16894490457882755     
 delta_qm =   0.199197E-02 delta_en =   0.685659E+01 tol =   0.100000E-04
 Iteration #          5
  pAp =    2.5855800246491867E-002  rzold =    6.5721204945146071E-003  alpha =   0.25418360413757901     
 delta_qm =   0.132884E-02 delta_en =   0.305134E+01 tol =   0.100000E-04
 Iteration #          6
  pAp =    8.5312398000234463E-003  rzold =    2.7589857116495143E-003  alpha =   0.32339797922945873     
 delta_qm =   0.798693E-03 delta_en =   0.110231E+01 tol =   0.100000E-04
 Iteration #          7
  pAp =    2.5404598347365062E-003  rzold =    9.2832410409026235E-004  alpha =   0.36541577685936810     
 delta_qm =   0.543498E-03 delta_en =   0.510434E+00 tol =   0.100000E-04
 Iteration #          8
  pAp =    1.4356046792227837E-003  rzold =    5.0112186027047409E-004  alpha =   0.34906675042447927     
 delta_qm =   0.345861E-03 delta_en =   0.206704E+00 tol =   0.100000E-04
 Iteration #          9
  pAp =    2.1013852783490173E-003  rzold =    5.4438306193832530E-004  alpha =   0.25905913948632375     
 delta_qm =   0.236547E-03 delta_en =   0.966891E-01 tol =   0.100000E-04
 Iteration #         10
  pAp =    7.5291806349523261E-004  rzold =    2.6749119510334680E-004  alpha =   0.35527264927286545     
 delta_qm =   0.109442E-03 delta_en =   0.206972E-01 tol =   0.100000E-04
 Iteration #         11
  pAp =    1.3096539387613324E-004  rzold =    4.3605227402496397E-005  alpha =   0.33295228695099499     
 delta_qm =   0.708673E-04 delta_en =   0.867832E-02 tol =   0.100000E-04
 Iteration #         12
  pAp =    4.1724245662553961E-005  rzold =    1.1305248715356383E-005  alpha =   0.27095154234274016     
 delta_qm =   0.513037E-04 delta_en =   0.454822E-02 tol =   0.100000E-04
 Iteration #         13
  pAp =    6.9079074017503014E-006  rzold =    2.8318933439174024E-006  alpha =   0.40994952294813147     
 delta_qm =   0.337059E-04 delta_en =   0.196316E-02 tol =   0.100000E-04
 Iteration #         14
  pAp =    4.0202096096433034E-006  rzold =    1.6543597129073793E-006  alpha =   0.41151081001822787     
 delta_qm =   0.232851E-04 delta_en =   0.936913E-03 tol =   0.100000E-04
 Iteration #         15
  pAp =    1.5909360971699259E-006  rzold =    7.1471633322687870E-007  alpha =   0.44924264054242574     
 delta_qm =   0.130937E-04 delta_en =   0.296257E-03 tol =   0.100000E-04
 Iteration #         16
  pAp =    7.2374006576811745E-007  rzold =    3.0980770535046346E-007  alpha =   0.42806488130743370     
 delta_qm =   0.805628E-05 delta_en =   0.112154E-03 tol =   0.100000E-04
 Iteration #         17
  pAp =    1.8177741587654879E-007  rzold =    8.9222797130881277E-008  alpha =   0.49083543574783517     
 delta_qm =   0.428450E-05 delta_en =   0.317207E-04 tol =   0.100000E-04
 Iteration #         18
  pAp =    9.6269162900597847E-008  rzold =    2.8962811402568206E-008  alpha =   0.30085242802488671     
 delta_qm =   0.318311E-05 delta_en =   0.175084E-04 tol =   0.100000E-04
 Iteration #         19
  pAp =    6.5759446308051990E-008  rzold =    1.8564862216042606E-008  alpha =   0.28231475868995282     
 delta_qm =   0.238824E-05 delta_en =   0.985601E-05 tol =   0.100000E-04
 Charges are converged, EXIT

%%%% DENSITY %%%%%%%%%%%%%%%%%%%%%%%%%%%%%%%%%%%%%%%%%%%%%%%%%%%%%%%%%%%%%%%%%%%
 density label              = velectrostatic                                                                  
 integral of density        =     0.4802684999E-11

%%%% CHARGES %%%%%%%%%%%%%%%%%%%%%%%%%%%%%%%%%%%%%%%%%%%%%%%%%%%%%%%%%%%%%%%%%%%
 total number of charges    =         35
 total charge               =     -0.0000000

%%%% DENSITY %%%%%%%%%%%%%%%%%%%%%%%%%%%%%%%%%%%%%%%%%%%%%%%%%%%%%%%%%%%%%%%%%%%
 density label              = vsoftcavity                                                                     
 integral of density        =      32.78474309    

%%%% DENSITY %%%%%%%%%%%%%%%%%%%%%%%%%%%%%%%%%%%%%%%%%%%%%%%%%%%%%%%%%%%%%%%%%%%
 density label              = dvtot                                                                           
 integral of density        =      32.78474309    

%%%% ELECTRONS %%%%%%%%%%%%%%%%%%%%%%%%%%%%%%%%%%%%%%%%%%%%%%%%%%%%%%%%%%%%%%%%%
 number of electrons        =         24
 total electronic charge    =     24.0000000

%%%% ELECTRONS %%%%%%%%%%%%%%%%%%%%%%%%%%%%%%%%%%%%%%%%%%%%%%%%%%%%%%%%%%%%%%%%%
 number of electrons        =         24
 total electronic charge    =     24.0000000

%%%% BOUNDARY %%%%%%%%%%%%%%%%%%%%%%%%%%%%%%%%%%%%%%%%%%%%%%%%%%%%%%%%%%%%%%%%%%
 boundary label             = solvent              
 boundary mode              = full                 
 boundary is built as a function of a smooth density
 function type              =  2 
 using the modified SCCS function with parameters 
 rhomax                     =      0.0050000 
 rhomin                     =      0.0001000 
 volume of the QM region    =    715.6657040 
 surface of the QM region   =    412.4596185 

%%%% DIELECTRIC %%%%%%%%%%%%%%%%%%%%%%%%%%%%%%%%%%%%%%%%%%%%%%%%%%%%%%%%%%%%%%%%%
 dielectric build on homogeneous background
 environment bulk permitt.  =    100.0000000 
 dielectric flags
 need gradient              =  F 
 need factor depend. sqrt   =  T 
 total dielectric charge    =     -0.0006059

%%%% DENSITY %%%%%%%%%%%%%%%%%%%%%%%%%%%%%%%%%%%%%%%%%%%%%%%%%%%%%%%%%%%%%%%%%%%
 density label              = vreference                                                                      
 integral of density        =    -0.4553402922E-11

%%%% COMPUTE ELECTROSTATIC POTENTIAL %%%%%%%%%%%%%%%%%%%%%%%%%%%%%%%%%%%%%%%%%%%
 Warning: bad guess with residual norm =   0.138108E+04, reset to no guess
 Iteration #          1
  pAp =    95.867124598373479       rzold =    93.380124198735231       alpha =   0.97405783880493646     
 delta_qm =   0.275971E-01 delta_en =   0.131604E+04 tol =   0.100000E-04
 Iteration #          2
  pAp =    243.97401260023213       rzold =    22.686280160422566       alpha =    9.2986461626122313E-002
 delta_qm =   0.527408E-02 delta_en =   0.480659E+02 tol =   0.100000E-04
 Iteration #          3
  pAp =    1.8024429716585977       rzold =   0.30009821842403506       alpha =   0.16649526400709722     
 delta_qm =   0.249030E-02 delta_en =   0.107163E+02 tol =   0.100000E-04
 Iteration #          4
  pAp =   0.14206659427486057       rzold =    2.4263743933357097E-002  alpha =   0.17079133949261352     
 delta_qm =   0.200962E-02 delta_en =   0.697863E+01 tol =   0.100000E-04
 Iteration #          5
  pAp =    2.6858631600418816E-002  rzold =    6.6782709644902412E-003  alpha =   0.24864524238778063     
 delta_qm =   0.134992E-02 delta_en =   0.314890E+01 tol =   0.100000E-04
 Iteration #          6
  pAp =    8.8084278138006646E-003  rzold =    2.8247848098732651E-003  alpha =   0.32069114597811815     
 delta_qm =   0.811232E-03 delta_en =   0.113719E+01 tol =   0.100000E-04
 Iteration #          7
  pAp =    2.5498166206565477E-003  rzold =    9.3373886493140399E-004  alpha =   0.36619843849436406     
 delta_qm =   0.552533E-03 delta_en =   0.527546E+00 tol =   0.100000E-04
 Iteration #          8
  pAp =    1.3643238253576227E-003  rzold =    4.9608936778689622E-004  alpha =   0.36361555707411253     
 delta_qm =   0.348201E-03 delta_en =   0.209509E+00 tol =   0.100000E-04
 Iteration #          9
  pAp =    2.1664939185467220E-003  rzold =    5.4576846593041672E-004  alpha =   0.25191322313820141     
 delta_qm =   0.243035E-03 delta_en =   0.102066E+00 tol =   0.100000E-04
 Iteration #         10
  pAp =    7.9496630319830027E-004  rzold =    2.7831713295373649E-004  alpha =   0.35009928324510592     
 delta_qm =   0.112109E-03 delta_en =   0.217184E-01 tol =   0.100000E-04
 Iteration #         11
  pAp =    1.3633449897371605E-004  rzold =    4.5485798524943186E-005  alpha =   0.33363381145158572     
 delta_qm =   0.725410E-04 delta_en =   0.909307E-02 tol =   0.100000E-04
 Iteration #         12
  pAp =    4.3904429666539928E-005  rzold =    1.1869955103412550E-005  alpha =   0.27035894085326839     
 delta_qm =   0.523398E-04 delta_en =   0.473378E-02 tol =   0.100000E-04
 Iteration #         13
  pAp =    7.1672981576425625E-006  rzold =    2.9095232153443891E-006  alpha =   0.40594421375395623     
 delta_qm =   0.345693E-04 delta_en =   0.206502E-02 tol =   0.100000E-04
 Iteration #         14
  pAp =    4.1577181654871504E-006  rzold =    1.6974630681929220E-006  alpha =   0.40826794905999458     
 delta_qm =   0.240107E-04 delta_en =   0.996213E-03 tol =   0.100000E-04
 Iteration #         15
  pAp =    1.6226670734856313E-006  rzold =    7.3090147760634337E-007  alpha =   0.45043218633647558     
 delta_qm =   0.134313E-04 delta_en =   0.311733E-03 tol =   0.100000E-04
 Iteration #         16
  pAp =    7.4459815533324194E-007  rzold =    3.2012759662250501E-007  alpha =   0.42993337322899111     
 delta_qm =   0.825040E-05 delta_en =   0.117623E-03 tol =   0.100000E-04
 Iteration #         17
  pAp =    1.8213870124648914E-007  rzold =    9.1869763237808711E-008  alpha =   0.50439452246604599     
 delta_qm =   0.427550E-05 delta_en =   0.315877E-04 tol =   0.100000E-04
 Iteration #         18
  pAp =    4.5439643881137952E-008  rzold =    2.2762584733252199E-008  alpha =   0.50094108996089592     
 delta_qm =   0.282244E-05 delta_en =   0.137656E-04 tol =   0.100000E-04
 Iteration #         19
  pAp =    1.8185106183548643E-008  rzold =    7.6100123484545352E-009  alpha =   0.41847500210579014     
 delta_qm =   0.201347E-05 delta_en =   0.700544E-05 tol =   0.100000E-04
 Charges are converged, EXIT

%%%% DENSITY %%%%%%%%%%%%%%%%%%%%%%%%%%%%%%%%%%%%%%%%%%%%%%%%%%%%%%%%%%%%%%%%%%%
 density label              = velectrostatic                                                                  
 integral of density        =     0.1858069254E-11

%%%% CHARGES %%%%%%%%%%%%%%%%%%%%%%%%%%%%%%%%%%%%%%%%%%%%%%%%%%%%%%%%%%%%%%%%%%%
 total number of charges    =         35
 total charge               =      0.0000000

%%%% DENSITY %%%%%%%%%%%%%%%%%%%%%%%%%%%%%%%%%%%%%%%%%%%%%%%%%%%%%%%%%%%%%%%%%%%
 density label              = vsoftcavity                                                                     
 integral of density        =      33.03673431    

%%%% DENSITY %%%%%%%%%%%%%%%%%%%%%%%%%%%%%%%%%%%%%%%%%%%%%%%%%%%%%%%%%%%%%%%%%%%
 density label              = dvtot                                                                           
 integral of density        =      33.03673431    

%%%% ELECTRONS %%%%%%%%%%%%%%%%%%%%%%%%%%%%%%%%%%%%%%%%%%%%%%%%%%%%%%%%%%%%%%%%%
 number of electrons        =         24
 total electronic charge    =     24.0000000

%%%% ELECTRONS %%%%%%%%%%%%%%%%%%%%%%%%%%%%%%%%%%%%%%%%%%%%%%%%%%%%%%%%%%%%%%%%%
 number of electrons        =         24
 total electronic charge    =     24.0000000

%%%% BOUNDARY %%%%%%%%%%%%%%%%%%%%%%%%%%%%%%%%%%%%%%%%%%%%%%%%%%%%%%%%%%%%%%%%%%
 boundary label             = solvent              
 boundary mode              = full                 
 boundary is built as a function of a smooth density
 function type              =  2 
 using the modified SCCS function with parameters 
 rhomax                     =      0.0050000 
 rhomin                     =      0.0001000 
 volume of the QM region    =    716.6114116 
 surface of the QM region   =    412.9049653 

%%%% DIELECTRIC %%%%%%%%%%%%%%%%%%%%%%%%%%%%%%%%%%%%%%%%%%%%%%%%%%%%%%%%%%%%%%%%%
 dielectric build on homogeneous background
 environment bulk permitt.  =    100.0000000 
 dielectric flags
 need gradient              =  F 
 need factor depend. sqrt   =  T 
 total dielectric charge    =     -0.0006352

%%%% DENSITY %%%%%%%%%%%%%%%%%%%%%%%%%%%%%%%%%%%%%%%%%%%%%%%%%%%%%%%%%%%%%%%%%%%
 density label              = vreference                                                                      
 integral of density        =     0.3906110003E-11

%%%% COMPUTE ELECTROSTATIC POTENTIAL %%%%%%%%%%%%%%%%%%%%%%%%%%%%%%%%%%%%%%%%%%%
 Warning: bad guess with residual norm =   0.142063E+04, reset to no guess
 Iteration #          1
  pAp =    95.864946965273617       rzold =    93.360081416412683       alpha =   0.97387089203973265     
 delta_qm =   0.279832E-01 delta_en =   0.135313E+04 tol =   0.100000E-04
 Iteration #          2
  pAp =    245.30811182543553       rzold =    22.808973140221749       alpha =    9.2980916817185857E-002
 delta_qm =   0.542715E-02 delta_en =   0.508965E+02 tol =   0.100000E-04
 Iteration #          3
  pAp =    1.9052218163627705       rzold =   0.31683969671570800       alpha =   0.16630068687780500     
 delta_qm =   0.253085E-02 delta_en =   0.110682E+02 tol =   0.100000E-04
 Iteration #          4
  pAp =   0.14662462903940332       rzold =    2.5033267931345467E-002  alpha =   0.17073030701150574     
 delta_qm =   0.203174E-02 delta_en =   0.713313E+01 tol =   0.100000E-04
 Iteration #          5
  pAp =    2.7821468657951768E-002  rzold =    6.8330292335667571E-003  alpha =   0.24560275079560837     
 delta_qm =   0.137295E-02 delta_en =   0.325727E+01 tol =   0.100000E-04
 Iteration #          6
  pAp =    8.9946706332226824E-003  rzold =    2.8803481294001764E-003  alpha =   0.32022830483212283     
 delta_qm =   0.826166E-03 delta_en =   0.117945E+01 tol =   0.100000E-04
 Iteration #          7
  pAp =    2.5787326206880472E-003  rzold =    9.4646244012370215E-004  alpha =   0.36702620214699527     
 delta_qm =   0.563336E-03 delta_en =   0.548376E+00 tol =   0.100000E-04
 Iteration #          8
  pAp =    1.3384222033433044E-003  rzold =    4.9675102479835751E-004  alpha =   0.37114673049916613     
 delta_qm =   0.353058E-03 delta_en =   0.215395E+00 tol =   0.100000E-04
 Iteration #          9
  pAp =    2.1965527128818703E-003  rzold =    5.4733741970251478E-004  alpha =   0.24918018879884279     
 delta_qm =   0.249291E-03 delta_en =   0.107388E+00 tol =   0.100000E-04
 Iteration #         10
  pAp =    8.2235603372146128E-004  rzold =    2.8618564635232171E-004  alpha =   0.34800698799183993     
 delta_qm =   0.114745E-03 delta_en =   0.227515E-01 tol =   0.100000E-04
 Iteration #         11
  pAp =    1.4103907729330820E-004  rzold =    4.7331065777279041E-005  alpha =   0.33558831130785288     
 delta_qm =   0.740962E-04 delta_en =   0.948714E-02 tol =   0.100000E-04
 Iteration #         12
  pAp =    4.5677044194682558E-005  rzold =    1.2336776740965243E-005  alpha =   0.27008701982518857     
 delta_qm =   0.534439E-04 delta_en =   0.493560E-02 tol =   0.100000E-04
 Iteration #         13
  pAp =    7.4089070619679990E-006  rzold =    2.9988793851985279E-006  alpha =   0.40476677060677657     
 delta_qm =   0.355274E-04 delta_en =   0.218107E-02 tol =   0.100000E-04
 Iteration #         14
  pAp =    4.3168952846314838E-006  rzold =    1.7520219733693376E-006  alpha =   0.40585232159943413     
 delta_qm =   0.247772E-04 delta_en =   0.106084E-02 tol =   0.100000E-04
 Iteration #         15
  pAp =    1.6884854362582624E-006  rzold =    7.6081264863498091E-007  alpha =   0.45058881308503673     
 delta_qm =   0.137589E-04 delta_en =   0.327122E-03 tol =   0.100000E-04
 Iteration #         16
  pAp =    7.8004317402282803E-007  rzold =    3.3518077274438114E-007  alpha =   0.42969515522556456     
 delta_qm =   0.848264E-05 delta_en =   0.124339E-03 tol =   0.100000E-04
 Iteration #         17
  pAp =    1.9705031789410984E-007  rzold =    9.7026274797295146E-008  alpha =   0.49239339390172798     
 delta_qm =   0.446393E-05 delta_en =   0.344332E-04 tol =   0.100000E-04
 Iteration #         18
  pAp =    8.3383859787107238E-008  rzold =    2.8522377536276239E-008  alpha =   0.34206113280314177     
 delta_qm =   0.324091E-05 delta_en =   0.181501E-04 tol =   0.100000E-04
 Iteration #         19
  pAp =    7.8461637327601955E-008  rzold =    1.9554170286703248E-008  alpha =   0.24921950334860399     
 delta_qm =   0.251602E-05 delta_en =   0.109389E-04 tol =   0.100000E-04
 Iteration #         20
  pAp =    9.2686432922434056E-009  rzold =    5.3366210325887920E-009  alpha =   0.57577154113319029     
 delta_qm =   0.144584E-05 delta_en =   0.361231E-05 tol =   0.100000E-04
 Charges are converged, EXIT

%%%% DENSITY %%%%%%%%%%%%%%%%%%%%%%%%%%%%%%%%%%%%%%%%%%%%%%%%%%%%%%%%%%%%%%%%%%%
 density label              = velectrostatic                                                                  
 integral of density        =    -0.1475387713E-11

%%%% CHARGES %%%%%%%%%%%%%%%%%%%%%%%%%%%%%%%%%%%%%%%%%%%%%%%%%%%%%%%%%%%%%%%%%%%
 total number of charges    =         35
 total charge               =     -0.0000000

%%%% DENSITY %%%%%%%%%%%%%%%%%%%%%%%%%%%%%%%%%%%%%%%%%%%%%%%%%%%%%%%%%%%%%%%%%%%
 density label              = vsoftcavity                                                                     
 integral of density        =      33.49636189    

%%%% DENSITY %%%%%%%%%%%%%%%%%%%%%%%%%%%%%%%%%%%%%%%%%%%%%%%%%%%%%%%%%%%%%%%%%%%
 density label              = dvtot                                                                           
 integral of density        =      33.49636189    

%%%% ELECTRONS %%%%%%%%%%%%%%%%%%%%%%%%%%%%%%%%%%%%%%%%%%%%%%%%%%%%%%%%%%%%%%%%%
 number of electrons        =         24
 total electronic charge    =     24.0000000

%%%% ELECTRONS %%%%%%%%%%%%%%%%%%%%%%%%%%%%%%%%%%%%%%%%%%%%%%%%%%%%%%%%%%%%%%%%%
 number of electrons        =         24
 total electronic charge    =     24.0000000

%%%% BOUNDARY %%%%%%%%%%%%%%%%%%%%%%%%%%%%%%%%%%%%%%%%%%%%%%%%%%%%%%%%%%%%%%%%%%
 boundary label             = solvent              
 boundary mode              = full                 
 boundary is built as a function of a smooth density
 function type              =  2 
 using the modified SCCS function with parameters 
 rhomax                     =      0.0050000 
 rhomin                     =      0.0001000 
 volume of the QM region    =    716.6235529 
 surface of the QM region   =    413.0546125 

%%%% DIELECTRIC %%%%%%%%%%%%%%%%%%%%%%%%%%%%%%%%%%%%%%%%%%%%%%%%%%%%%%%%%%%%%%%%%
 dielectric build on homogeneous background
 environment bulk permitt.  =    100.0000000 
 dielectric flags
 need gradient              =  F 
 need factor depend. sqrt   =  T 
 total dielectric charge    =     -0.0006840

%%%% DENSITY %%%%%%%%%%%%%%%%%%%%%%%%%%%%%%%%%%%%%%%%%%%%%%%%%%%%%%%%%%%%%%%%%%%
 density label              = vreference                                                                      
 integral of density        =     0.2173298578E-11

%%%% COMPUTE ELECTROSTATIC POTENTIAL %%%%%%%%%%%%%%%%%%%%%%%%%%%%%%%%%%%%%%%%%%%
 Warning: bad guess with residual norm =   0.147614E+04, reset to no guess
 Iteration #          1
  pAp =    95.925377225542306       rzold =    93.390942323367284       alpha =   0.97357909892586614     
 delta_qm =   0.285151E-01 delta_en =   0.140506E+04 tol =   0.100000E-04
 Iteration #          2
  pAp =    248.77495912955158       rzold =    23.093157387014053       alpha =    9.2827499471070579E-002
 delta_qm =   0.555723E-02 delta_en =   0.533654E+02 tol =   0.100000E-04
 Iteration #          3
  pAp =    1.9981120317215837       rzold =   0.33078445221142849       alpha =   0.16554850126517826     
 delta_qm =   0.256027E-02 delta_en =   0.113270E+02 tol =   0.100000E-04
 Iteration #          4
  pAp =   0.15097010623842466       rzold =    2.5679839495486075E-002  alpha =   0.17009883701698081     
 delta_qm =   0.205094E-02 delta_en =   0.726860E+01 tol =   0.100000E-04
 Iteration #          5
  pAp =    2.8491206960764844E-002  rzold =    6.9417960967969958E-003  alpha =   0.24364696470586600     
 delta_qm =   0.139117E-02 delta_en =   0.334429E+01 tol =   0.100000E-04
 Iteration #          6
  pAp =    9.1049647092305581E-003  rzold =    2.9125227063366691E-003  alpha =   0.31988292095014614     
 delta_qm =   0.838080E-03 delta_en =   0.121371E+01 tol =   0.100000E-04
 Iteration #          7
  pAp =    2.6337237855068871E-003  rzold =    9.6198733631082064E-004  alpha =   0.36525748888495396     
 delta_qm =   0.573571E-03 delta_en =   0.568483E+00 tol =   0.100000E-04
 Iteration #          8
  pAp =    1.3627090163455125E-003  rzold =    5.0134566508236650E-004  alpha =   0.36790368234802312     
 delta_qm =   0.360285E-03 delta_en =   0.224304E+00 tol =   0.100000E-04
 Iteration #          9
  pAp =    2.2104544573755503E-003  rzold =    5.5275220264467220E-004  alpha =   0.25006269674560461     
 delta_qm =   0.255373E-03 delta_en =   0.112692E+00 tol =   0.100000E-04
 Iteration #         10
  pAp =    8.2681994947525700E-004  rzold =    2.9050171483104584E-004  alpha =   0.35134821676159766     
 delta_qm =   0.117439E-03 delta_en =   0.238326E-01 tol =   0.100000E-04
 Iteration #         11
  pAp =    1.4637543814506333E-004  rzold =    4.9205795394547529E-005  alpha =   0.33616155837417760     
 delta_qm =   0.760452E-04 delta_en =   0.999280E-02 tol =   0.100000E-04
 Iteration #         12
  pAp =    4.7854606632248571E-005  rzold =    1.2900098487460580E-005  alpha =   0.26956858274052509     
 delta_qm =   0.549385E-04 delta_en =   0.521553E-02 tol =   0.100000E-04
 Iteration #         13
  pAp =    7.7225597009736681E-006  rzold =    3.1156399421965774E-006  alpha =   0.40344653364139799     
 delta_qm =   0.367524E-04 delta_en =   0.233407E-02 tol =   0.100000E-04
 Iteration #         14
  pAp =    4.5153322374545193E-006  rzold =    1.8315631497363565E-006  alpha =   0.40563197864901407     
 delta_qm =   0.256124E-04 delta_en =   0.113356E-02 tol =   0.100000E-04
 Iteration #         15
  pAp =    1.7801804762953708E-006  rzold =    8.0196133580295339E-007  alpha =   0.45049440013625364     
 delta_qm =   0.141445E-04 delta_en =   0.345718E-03 tol =   0.100000E-04
 Iteration #         16
  pAp =    8.2424344557322280E-007  rzold =    3.5380378784375221E-007  alpha =   0.42924671071869819     
 delta_qm =   0.872727E-05 delta_en =   0.131613E-03 tol =   0.100000E-04
 Iteration #         17
  pAp =    2.0527504042447399E-007  rzold =    1.0148473998262847E-007  alpha =   0.49438421628257984     
 delta_qm =   0.457095E-05 delta_en =   0.361041E-04 tol =   0.100000E-04
 Iteration #         18
  pAp =    7.1315419229807607E-008  rzold =    2.7988851206008262E-008  alpha =   0.39246563377572913     
 delta_qm =   0.321884E-05 delta_en =   0.179037E-04 tol =   0.100000E-04
 Iteration #         19
  pAp =    7.9565045420113243E-008  rzold =    1.8211638755317095E-008  alpha =   0.22888994355696524     
 delta_qm =   0.258313E-05 delta_en =   0.115302E-04 tol =   0.100000E-04
 Iteration #         20
  pAp =    1.0799518765651872E-008  rzold =    5.8575645868789820E-009  alpha =   0.54239125964659707     
 delta_qm =   0.150268E-05 delta_en =   0.390193E-05 tol =   0.100000E-04
 Charges are converged, EXIT

%%%% DENSITY %%%%%%%%%%%%%%%%%%%%%%%%%%%%%%%%%%%%%%%%%%%%%%%%%%%%%%%%%%%%%%%%%%%
 density label              = velectrostatic                                                                  
 integral of density        =     0.9152859540E-11

%%%% CHARGES %%%%%%%%%%%%%%%%%%%%%%%%%%%%%%%%%%%%%%%%%%%%%%%%%%%%%%%%%%%%%%%%%%%
 total number of charges    =         35
 total charge               =      0.0000000

%%%% DENSITY %%%%%%%%%%%%%%%%%%%%%%%%%%%%%%%%%%%%%%%%%%%%%%%%%%%%%%%%%%%%%%%%%%%
 density label              = vsoftcavity                                                                     
 integral of density        =      33.82937150    

%%%% DENSITY %%%%%%%%%%%%%%%%%%%%%%%%%%%%%%%%%%%%%%%%%%%%%%%%%%%%%%%%%%%%%%%%%%%
 density label              = dvtot                                                                           
 integral of density        =      33.82937150    

%%%% ELECTRONS %%%%%%%%%%%%%%%%%%%%%%%%%%%%%%%%%%%%%%%%%%%%%%%%%%%%%%%%%%%%%%%%%
 number of electrons        =         24
 total electronic charge    =     24.0000000

%%%% ELECTRONS %%%%%%%%%%%%%%%%%%%%%%%%%%%%%%%%%%%%%%%%%%%%%%%%%%%%%%%%%%%%%%%%%
 number of electrons        =         24
 total electronic charge    =     24.0000000

%%%% BOUNDARY %%%%%%%%%%%%%%%%%%%%%%%%%%%%%%%%%%%%%%%%%%%%%%%%%%%%%%%%%%%%%%%%%%
 boundary label             = solvent              
 boundary mode              = full                 
 boundary is built as a function of a smooth density
 function type              =  2 
 using the modified SCCS function with parameters 
 rhomax                     =      0.0050000 
 rhomin                     =      0.0001000 
 volume of the QM region    =    716.3733868 
 surface of the QM region   =    413.0076269 

%%%% DIELECTRIC %%%%%%%%%%%%%%%%%%%%%%%%%%%%%%%%%%%%%%%%%%%%%%%%%%%%%%%%%%%%%%%%%
 dielectric build on homogeneous background
 environment bulk permitt.  =    100.0000000 
 dielectric flags
 need gradient              =  F 
 need factor depend. sqrt   =  T 
 total dielectric charge    =     -0.0004866

%%%% DENSITY %%%%%%%%%%%%%%%%%%%%%%%%%%%%%%%%%%%%%%%%%%%%%%%%%%%%%%%%%%%%%%%%%%%
 density label              = vreference                                                                      
 integral of density        =    -0.3040777506E-11

%%%% COMPUTE ELECTROSTATIC POTENTIAL %%%%%%%%%%%%%%%%%%%%%%%%%%%%%%%%%%%%%%%%%%%
 Warning: bad guess with residual norm =   0.150408E+04, reset to no guess
 Iteration #          1
  pAp =    95.943118418137246       rzold =    93.389809544935900       alpha =   0.97338726408627274     
 delta_qm =   0.287778E-01 delta_en =   0.143106E+04 tol =   0.100000E-04
 Iteration #          2
  pAp =    250.94568690695982       rzold =    23.275786706263155       alpha =    9.2752288326409235E-002
 delta_qm =   0.560804E-02 delta_en =   0.543458E+02 tol =   0.100000E-04
 Iteration #          3
  pAp =    2.0386586143247740       rzold =   0.33686053797184173       alpha =   0.16523636454130580     
 delta_qm =   0.256652E-02 delta_en =   0.113824E+02 tol =   0.100000E-04
 Iteration #          4
  pAp =   0.15162828968774553       rzold =    2.5797747144477027E-002  alpha =   0.17013808701267688     
 delta_qm =   0.205336E-02 delta_en =   0.728573E+01 tol =   0.100000E-04
 Iteration #          5
  pAp =    2.8704824999600101E-002  rzold =    6.9641372973090095E-003  alpha =   0.24261207993450681     
 delta_qm =   0.139507E-02 delta_en =   0.336306E+01 tol =   0.100000E-04
 Iteration #          6
  pAp =    9.1340285580513887E-003  rzold =    2.9206632996006720E-003  alpha =   0.31975631355194195     
 delta_qm =   0.839379E-03 delta_en =   0.121747E+01 tol =   0.100000E-04
 Iteration #          7
  pAp =    2.6541528026890041E-003  rzold =    9.6630827078602254E-004  alpha =   0.36407409166760324     
 delta_qm =   0.575456E-03 delta_en =   0.572227E+00 tol =   0.100000E-04
 Iteration #          8
  pAp =    1.3649152680765451E-003  rzold =    5.0086184808943485E-004  alpha =   0.36695453542347384     
 delta_qm =   0.361695E-03 delta_en =   0.226063E+00 tol =   0.100000E-04
 Iteration #          9
  pAp =    2.2046090487825797E-003  rzold =    5.5217254599056013E-004  alpha =   0.25046279579387493     
 delta_qm =   0.256872E-03 delta_en =   0.114019E+00 tol =   0.100000E-04
 Iteration #         10
  pAp =    8.2532607090322083E-004  rzold =    2.9095709700929768E-004  alpha =   0.35253593369573299     
 delta_qm =   0.118034E-03 delta_en =   0.240746E-01 tol =   0.100000E-04
 Iteration #         11
  pAp =    1.4797402648954416E-004  rzold =    4.9644313651855215E-005  alpha =   0.33549342968891288     
 delta_qm =   0.766145E-04 delta_en =   0.101430E-01 tol =   0.100000E-04
 Iteration #         12
  pAp =    4.8755587594593204E-005  rzold =    1.3119566908648681E-005  alpha =   0.26908847900140143     
 delta_qm =   0.554355E-04 delta_en =   0.531030E-02 tol =   0.100000E-04
 Iteration #         13
  pAp =    7.8155869165736630E-006  rzold =    3.1494458165797509E-006  alpha =   0.40296984093428284     
 delta_qm =   0.371257E-04 delta_en =   0.238173E-02 tol =   0.100000E-04
 Iteration #         14
  pAp =    4.5524193998240635E-006  rzold =    1.8541429602680986E-006  alpha =   0.40728737785884916     
 delta_qm =   0.258214E-04 delta_en =   0.115214E-02 tol =   0.100000E-04
 Iteration #         15
  pAp =    1.8030633788311581E-006  rzold =    8.1306483962196119E-007  alpha =   0.45093525228660192     
 delta_qm =   0.142512E-04 delta_en =   0.350949E-03 tol =   0.100000E-04
 Iteration #         16
  pAp =    8.3546948829095089E-007  rzold =    3.5873972583117813E-007  alpha =   0.42938698642965595     
 delta_qm =   0.877474E-05 delta_en =   0.133049E-03 tol =   0.100000E-04
 Iteration #         17
  pAp =    2.0682876082113394E-007  rzold =    1.0240416135126670E-007  alpha =   0.49511567416789820     
 delta_qm =   0.458611E-05 delta_en =   0.363440E-04 tol =   0.100000E-04
 Iteration #         18
  pAp =    6.5965347961048224E-008  rzold =    2.7578418960127600E-008  alpha =   0.41807433467056582     
 delta_qm =   0.318026E-05 delta_en =   0.174771E-04 tol =   0.100000E-04
 Iteration #         19
  pAp =    7.2693093439434666E-008  rzold =    1.6502240690999997E-008  alpha =   0.22701249747679378     
 delta_qm =   0.258399E-05 delta_en =   0.115378E-04 tol =   0.100000E-04
 Iteration #         20
  pAp =    1.1984745555309069E-008  rzold =    6.1541837439419392E-009  alpha =   0.51350141023358853     
 delta_qm =   0.151665E-05 delta_en =   0.397482E-05 tol =   0.100000E-04
 Charges are converged, EXIT

%%%% DENSITY %%%%%%%%%%%%%%%%%%%%%%%%%%%%%%%%%%%%%%%%%%%%%%%%%%%%%%%%%%%%%%%%%%%
 density label              = velectrostatic                                                                  
 integral of density        =     0.9121682833E-11

%%%% CHARGES %%%%%%%%%%%%%%%%%%%%%%%%%%%%%%%%%%%%%%%%%%%%%%%%%%%%%%%%%%%%%%%%%%%
 total number of charges    =         35
 total charge               =      0.0000000

%%%% DENSITY %%%%%%%%%%%%%%%%%%%%%%%%%%%%%%%%%%%%%%%%%%%%%%%%%%%%%%%%%%%%%%%%%%%
 density label              = vsoftcavity                                                                     
 integral of density        =      34.00221432    

%%%% DENSITY %%%%%%%%%%%%%%%%%%%%%%%%%%%%%%%%%%%%%%%%%%%%%%%%%%%%%%%%%%%%%%%%%%%
 density label              = dvtot                                                                           
 integral of density        =      34.00221432    

%%%% ELECTRONS %%%%%%%%%%%%%%%%%%%%%%%%%%%%%%%%%%%%%%%%%%%%%%%%%%%%%%%%%%%%%%%%%
 number of electrons        =         24
 total electronic charge    =     24.0000000

%%%% ELECTRONS %%%%%%%%%%%%%%%%%%%%%%%%%%%%%%%%%%%%%%%%%%%%%%%%%%%%%%%%%%%%%%%%%
 number of electrons        =         24
 total electronic charge    =     24.0000000

%%%% BOUNDARY %%%%%%%%%%%%%%%%%%%%%%%%%%%%%%%%%%%%%%%%%%%%%%%%%%%%%%%%%%%%%%%%%%
 boundary label             = solvent              
 boundary mode              = full                 
 boundary is built as a function of a smooth density
 function type              =  2 
 using the modified SCCS function with parameters 
 rhomax                     =      0.0050000 
 rhomin                     =      0.0001000 
 volume of the QM region    =    716.5242879 
 surface of the QM region   =    413.0934884 

%%%% DIELECTRIC %%%%%%%%%%%%%%%%%%%%%%%%%%%%%%%%%%%%%%%%%%%%%%%%%%%%%%%%%%%%%%%%%
 dielectric build on homogeneous background
 environment bulk permitt.  =    100.0000000 
 dielectric flags
 need gradient              =  F 
 need factor depend. sqrt   =  T 
 total dielectric charge    =     -0.0003159

%%%% DENSITY %%%%%%%%%%%%%%%%%%%%%%%%%%%%%%%%%%%%%%%%%%%%%%%%%%%%%%%%%%%%%%%%%%%
 density label              = vreference                                                                      
 integral of density        =    -0.1843841952E-11

%%%% COMPUTE ELECTROSTATIC POTENTIAL %%%%%%%%%%%%%%%%%%%%%%%%%%%%%%%%%%%%%%%%%%%
 Warning: bad guess with residual norm =   0.154717E+04, reset to no guess
 Iteration #          1
  pAp =    95.974050467671745       rzold =    93.384645500543428       alpha =   0.97301973862194613     
 delta_qm =   0.291759E-01 delta_en =   0.147093E+04 tol =   0.100000E-04
 Iteration #          2
  pAp =    254.15378189678094       rzold =    23.577799242373963       alpha =    9.2769814662642225E-002
 delta_qm =   0.569783E-02 delta_en =   0.560999E+02 tol =   0.100000E-04
 Iteration #          3
  pAp =    2.1158909121927563       rzold =   0.34881648420871653       alpha =   0.16485560866993296     
 delta_qm =   0.257339E-02 delta_en =   0.114434E+02 tol =   0.100000E-04
 Iteration #          4
  pAp =   0.15314815011801697       rzold =    2.6075513281025302E-002  alpha =   0.17026332515888271     
 delta_qm =   0.205307E-02 delta_en =   0.728370E+01 tol =   0.100000E-04
 Iteration #          5
  pAp =    2.9040552505874898E-002  rzold =    6.9997492177209407E-003  alpha =   0.24103361037311163     
 delta_qm =   0.139958E-02 delta_en =   0.338483E+01 tol =   0.100000E-04
 Iteration #          6
  pAp =    9.1573867614447076E-003  rzold =    2.9312334797681645E-003  alpha =   0.32009497426815253     
 delta_qm =   0.839730E-03 delta_en =   0.121849E+01 tol =   0.100000E-04
 Iteration #          7
  pAp =    2.6799407277134746E-003  rzold =    9.7210794201166870E-004  alpha =   0.36273486646888314     
 delta_qm =   0.576716E-03 delta_en =   0.574736E+00 tol =   0.100000E-04
 Iteration #          8
  pAp =    1.3601041236501728E-003  rzold =    4.9833254705552923E-004  alpha =   0.36639293888627561     
 delta_qm =   0.362734E-03 delta_en =   0.227364E+00 tol =   0.100000E-04
 Iteration #          9
  pAp =    2.1883768823595120E-003  rzold =    5.4901314081346061E-004  alpha =   0.25087686917141694     
 delta_qm =   0.258252E-03 delta_en =   0.115247E+00 tol =   0.100000E-04
 Iteration #         10
  pAp =    8.1952578534423982E-004  rzold =    2.9024222340794396E-004  alpha =   0.35415874472580311     
 delta_qm =   0.118205E-03 delta_en =   0.241442E-01 tol =   0.100000E-04
 Iteration #         11
  pAp =    1.4830248909446017E-004  rzold =    4.9764643066356614E-005  alpha =   0.33556175199904698     
 delta_qm =   0.769482E-04 delta_en =   0.102315E-01 tol =   0.100000E-04
 Iteration #         12
  pAp =    4.9368003250325748E-005  rzold =    1.3275913467687592E-005  alpha =   0.26891736739625971     
 delta_qm =   0.557983E-04 delta_en =   0.538004E-02 tol =   0.100000E-04
 Iteration #         13
  pAp =    7.8613143727039433E-006  rzold =    3.1667131431458091E-006  alpha =   0.40282235171020142     
 delta_qm =   0.374535E-04 delta_en =   0.242398E-02 tol =   0.100000E-04
 Iteration #         14
  pAp =    4.5733639930360229E-006  rzold =    1.8721035382040443E-006  alpha =   0.40934934132834028     
 delta_qm =   0.259773E-04 delta_en =   0.116609E-02 tol =   0.100000E-04
 Iteration #         15
  pAp =    1.8237966782665050E-006  rzold =    8.2281897857079677E-007  alpha =   0.45115718675004690     
 delta_qm =   0.143251E-04 delta_en =   0.354599E-03 tol =   0.100000E-04
 Iteration #         16
  pAp =    8.4359493537528113E-007  rzold =    3.6259717797029658E-007  alpha =   0.42982379666491455     
 delta_qm =   0.878281E-05 delta_en =   0.133294E-03 tol =   0.100000E-04
 Iteration #         17
  pAp =    2.0776066940213092E-007  rzold =    1.0266565258377719E-007  alpha =   0.49415345493069629     
 delta_qm =   0.458712E-05 delta_en =   0.363601E-04 tol =   0.100000E-04
 Iteration #         18
  pAp =    6.4090149806639995E-008  rzold =    2.7517959568040582E-008  alpha =   0.42936332105732750     
 delta_qm =   0.316085E-05 delta_en =   0.172644E-04 tol =   0.100000E-04
 Iteration #         19
  pAp =    6.7584047327725124E-008  rzold =    1.5484061690690178E-008  alpha =   0.22910823342090855     
 delta_qm =   0.258266E-05 delta_en =   0.115260E-04 tol =   0.100000E-04
 Iteration #         20
  pAp =    1.2712355910000990E-008  rzold =    6.3314950134078462E-009  alpha =   0.49805835033510742     
 delta_qm =   0.152323E-05 delta_en =   0.400937E-05 tol =   0.100000E-04
 Charges are converged, EXIT

%%%% DENSITY %%%%%%%%%%%%%%%%%%%%%%%%%%%%%%%%%%%%%%%%%%%%%%%%%%%%%%%%%%%%%%%%%%%
 density label              = velectrostatic                                                                  
 integral of density        =     0.1864754441E-10

%%%% CHARGES %%%%%%%%%%%%%%%%%%%%%%%%%%%%%%%%%%%%%%%%%%%%%%%%%%%%%%%%%%%%%%%%%%%
 total number of charges    =         35
 total charge               =      0.0000000

%%%% DENSITY %%%%%%%%%%%%%%%%%%%%%%%%%%%%%%%%%%%%%%%%%%%%%%%%%%%%%%%%%%%%%%%%%%%
 density label              = vsoftcavity                                                                     
 integral of density        =      34.45904223    

%%%% DENSITY %%%%%%%%%%%%%%%%%%%%%%%%%%%%%%%%%%%%%%%%%%%%%%%%%%%%%%%%%%%%%%%%%%%
 density label              = dvtot                                                                           
 integral of density        =      34.45904223    

%%%% ELECTRONS %%%%%%%%%%%%%%%%%%%%%%%%%%%%%%%%%%%%%%%%%%%%%%%%%%%%%%%%%%%%%%%%%
 number of electrons        =         24
 total electronic charge    =     24.0000000

%%%% ELECTRONS %%%%%%%%%%%%%%%%%%%%%%%%%%%%%%%%%%%%%%%%%%%%%%%%%%%%%%%%%%%%%%%%%
 number of electrons        =         24
 total electronic charge    =     24.0000000

%%%% BOUNDARY %%%%%%%%%%%%%%%%%%%%%%%%%%%%%%%%%%%%%%%%%%%%%%%%%%%%%%%%%%%%%%%%%%
 boundary label             = solvent              
 boundary mode              = full                 
 boundary is built as a function of a smooth density
 function type              =  2 
 using the modified SCCS function with parameters 
 rhomax                     =      0.0050000 
 rhomin                     =      0.0001000 
 volume of the QM region    =    716.5242879 
 surface of the QM region   =    413.0934884 

%%%% DIELECTRIC %%%%%%%%%%%%%%%%%%%%%%%%%%%%%%%%%%%%%%%%%%%%%%%%%%%%%%%%%%%%%%%%%
 dielectric build on homogeneous background
 environment bulk permitt.  =    100.0000000 
 dielectric flags
 need gradient              =  F 
 need factor depend. sqrt   =  T 
 total dielectric charge    =      0.0000655

%%%% DENSITY %%%%%%%%%%%%%%%%%%%%%%%%%%%%%%%%%%%%%%%%%%%%%%%%%%%%%%%%%%%%%%%%%%%
 density label              = dvtot                                                                           
 integral of density        =      34.45904223    

%%%% DENSITY %%%%%%%%%%%%%%%%%%%%%%%%%%%%%%%%%%%%%%%%%%%%%%%%%%%%%%%%%%%%%%%%%%%
 density label              = vreference                                                                      
 integral of density        =    -0.1843841952E-11

%%%% DENSITY %%%%%%%%%%%%%%%%%%%%%%%%%%%%%%%%%%%%%%%%%%%%%%%%%%%%%%%%%%%%%%%%%%%
 density label              = velectrostatic                                                                  
 integral of density        =     0.1864754441E-10

%%%% CHARGES %%%%%%%%%%%%%%%%%%%%%%%%%%%%%%%%%%%%%%%%%%%%%%%%%%%%%%%%%%%%%%%%%%%
 total number of charges    =         34
 total charge               =     -1.0000000

%%%% DENSITY %%%%%%%%%%%%%%%%%%%%%%%%%%%%%%%%%%%%%%%%%%%%%%%%%%%%%%%%%%%%%%%%%%%
 density label              = vsoftcavity                                                                     
 integral of density        =      34.45904223    
