
     Program PWSCF v.6.1 (svn rev. 13369) starts on 16Nov2017 at 15:41:25 

     This program is part of the open-source Quantum ESPRESSO suite
     for quantum simulation of materials; please cite
         "P. Giannozzi et al., J. Phys.:Condens. Matter 21 395502 (2009);
          URL http://www.quantum-espresso.org", 
     in publications or presentations arising from this work. More details at
     http://www.quantum-espresso.org/quote

     Serial version
     Reading input from isolated.in

     Current dimensions of program PWSCF are:
     Max number of different atomic species (ntypx) = 10
     Max number of k-points (npk) =  40000
     Max angular momentum in pseudopotentials (lmaxx) =  3
               file C.pbe-rrkjus.UPF: wavefunction(s)  2S 2P renormalized
               file H.pbe-rrkjus.UPF: wavefunction(s)  1S renormalized
               file N.pbe-rrkjus.UPF: wavefunction(s)  2S renormalized
               file O.pbe-rrkjus.UPF: wavefunction(s)  2S renormalized

     gamma-point specific algorithms are used

     G-vector sticks info
     --------------------
     sticks:   dense  smooth     PW     G-vecs:    dense   smooth      PW
     Sum        9549    3809    949               701475   177509   22119



     bravais-lattice index     =            1
     lattice parameter (alat)  =      20.0000  a.u.
     unit-cell volume          =    8000.0000 (a.u.)^3
     number of atoms/cell      =           10
     number of atomic types    =            4
     number of electrons       =        24.00
     number of Kohn-Sham states=           12
     kinetic-energy cutoff     =      30.0000  Ry
     charge density cutoff     =     300.0000  Ry
     convergence threshold     =      5.0E-03
     mixing beta               =       0.7000
     number of iterations used =            8  plain     mixing
     Exchange-correlation      =  SLA  PW   PBE  PBE ( 1  4  3  4 0 0)


     Environ Module
     ==============

     Plese cite
         O. Andreussi, I. Dabo and N. Marzari, J. Chem. Phys. 136, 064102 (2012)         
     in publications or presentations arising from this work.

     compensation onset threshold      =               0.1000E+03 
     static permittivity               =                   100.00 
     epsilon calculation mode          =                     full 

     Electrostatic Setup
     -------------------
     electrostatic problem to solve    = generalized              
     numerical solver adopted          = cg                       
     type of auxiliary density adopted = none                     
     type of core tool for poisson     = fft                      
     type of core tool for s(r) deriv  = analytic                 



     celldm(1)=  20.000000  celldm(2)=   0.000000  celldm(3)=   0.000000
     celldm(4)=   0.000000  celldm(5)=   0.000000  celldm(6)=   0.000000

     crystal axes: (cart. coord. in units of alat)
               a(1) = (   1.000000   0.000000   0.000000 )  
               a(2) = (   0.000000   1.000000   0.000000 )  
               a(3) = (   0.000000   0.000000   1.000000 )  

     reciprocal axes: (cart. coord. in units 2 pi/alat)
               b(1) = (  1.000000  0.000000  0.000000 )  
               b(2) = (  0.000000  1.000000  0.000000 )  
               b(3) = (  0.000000  0.000000  1.000000 )  


     PseudoPot. # 1 for C  read from file:
     /Users/oliviero/PWSCF/espresso-6.1-Environ-1.0/Environ/tests/../..//pseudo/C.pbe-rrkjus.UPF
     MD5 check sum: 00fb224312de0c5b6853bd333518df6f
     Pseudo is Ultrasoft, Zval =  4.0
     Generated by new atomic code, or converted to UPF format
     Using radial grid of  627 points,  4 beta functions with: 
                l(1) =   0
                l(2) =   0
                l(3) =   1
                l(4) =   1
     Q(r) pseudized with 0 coefficients 


     PseudoPot. # 2 for H  read from file:
     /Users/oliviero/PWSCF/espresso-6.1-Environ-1.0/Environ/tests/../..//pseudo/H.pbe-rrkjus.UPF
     MD5 check sum: 7cc9d459525c9a0585f487a71c3c9563
     Pseudo is Ultrasoft, Zval =  1.0
     Generated by new atomic code, or converted to UPF format
     Using radial grid of 1061 points,  2 beta functions with: 
                l(1) =   0
                l(2) =   0
     Q(r) pseudized with 0 coefficients 


     PseudoPot. # 3 for N  read from file:
     /Users/oliviero/PWSCF/espresso-6.1-Environ-1.0/Environ/tests/../..//pseudo/N.pbe-rrkjus.UPF
     MD5 check sum: 0c3fbe5807a93f9ba59d5a7019aa238b
     Pseudo is Ultrasoft, Zval =  5.0
     Generated by new atomic code, or converted to UPF format
     Using radial grid of 1257 points,  4 beta functions with: 
                l(1) =   0
                l(2) =   0
                l(3) =   1
                l(4) =   1
     Q(r) pseudized with 0 coefficients 


     PseudoPot. # 4 for O  read from file:
     /Users/oliviero/PWSCF/espresso-6.1-Environ-1.0/Environ/tests/../..//pseudo/O.pbe-rrkjus.UPF
     MD5 check sum: 390ba29e75625707450f3bd3f0eb6be9
     Pseudo is Ultrasoft, Zval =  6.0
     Generated by new atomic code, or converted to UPF format
     Using radial grid of 1269 points,  4 beta functions with: 
                l(1) =   0
                l(2) =   0
                l(3) =   1
                l(4) =   1
     Q(r) pseudized with 0 coefficients 


     atomic species   valence    mass     pseudopotential
        C              4.00    12.00000     C ( 1.00)
        H              1.00     1.00000     H ( 1.00)
        N              5.00    14.00000     N ( 1.00)
        O              6.00    16.00000     O ( 1.00)

     No symmetry found



   Cartesian axes

     site n.     atom                  positions (alat units)
         1           C   tau(   1) = (   0.0000000   0.0000000   0.0000000  )
         2           C   tau(   2) = (   0.0000000   0.0000000   0.1455089  )
         3           N   tau(   3) = (   0.1170969   0.0000000  -0.0545024  )
         4           H   tau(   4) = (   0.0476617  -0.0825466   0.1792090  )
         5           H   tau(   5) = (  -0.0953183  -0.0000030   0.1792090  )
         6           H   tau(   6) = (   0.0476566   0.0825496   0.1792090  )
         7           O   tau(   7) = (  -0.0984002  -0.0000019  -0.0641310  )
         8           H   tau(   8) = (   0.1263131  -0.0000015  -0.1475548  )
         9           H   tau(   9) = (   0.1944645   0.0000134  -0.0025716  )
        10           H   tau(  10) = (  -0.0770366  -0.0000045  -0.1522861  )

     number of k points=     1
                       cart. coord. in units 2pi/alat
        k(    1) = (   0.0000000   0.0000000   0.0000000), wk =   2.0000000

     Dense  grid:   350738 G-vectors     FFT dimensions: ( 120, 120, 120)

     Smooth grid:    88755 G-vectors     FFT dimensions: (  72,  72,  72)

     Estimated max dynamical RAM per process >     298.98MB

     Initial potential from superposition of free atoms
     Check: negative starting charge=   -0.000452

     starting charge   24.42266, renormalised to   24.00000

     negative rho (up, down):  4.438E-04 0.000E+00
     Starting wfc are   22 randomized atomic wfcs

     total cpu time spent up to now is       11.8 secs

     Self-consistent Calculation

     iteration #  1     ecut=    30.00 Ry     beta=0.70
     Davidson diagonalization with overlap
     ethr =  1.00E-02,  avg # of iterations =  2.0

     negative rho (up, down):  1.277E-04 0.000E+00

     add environment contribution to local potential
     polarization accuracy = 8.3E-06, # of iterations =  14

     total cpu time spent up to now is       20.8 secs

     total energy              =     -80.23412306 Ry
     Harris-Foulkes estimate   =     -83.01879009 Ry
     estimated scf accuracy    <       3.73442311 Ry
     electrostatic embedding   =       0.00490874 Ry
     correction to one-el term =       0.00000000 Ry

     iteration #  2     ecut=    30.00 Ry     beta=0.70
     Davidson diagonalization with overlap
     ethr =  1.00E-02,  avg # of iterations =  3.0

     negative rho (up, down):  5.315E-04 0.000E+00

     add environment contribution to local potential
     polarization accuracy = 9.7E-06, # of iterations =  17

     total cpu time spent up to now is       30.3 secs

     total energy              =     -81.13217781 Ry
     Harris-Foulkes estimate   =     -76.34188458 Ry
     estimated scf accuracy    <       1.06170728 Ry
     electrostatic embedding   =      -0.03334533 Ry
     correction to one-el term =      -5.32958870 Ry

     iteration #  3     ecut=    30.00 Ry     beta=0.70
     Davidson diagonalization with overlap
     ethr =  4.42E-03,  avg # of iterations =  3.0

     negative rho (up, down):  1.171E-04 0.000E+00

     add environment contribution to local potential
     polarization accuracy = 5.5E-06, # of iterations =  22

     total cpu time spent up to now is       40.4 secs

     total energy              =     -81.31905251 Ry
     Harris-Foulkes estimate   =     -76.84666571 Ry
     estimated scf accuracy    <       0.04362759 Ry
     electrostatic embedding   =      -0.07764268 Ry
     correction to one-el term =      -4.42008454 Ry

     iteration #  4     ecut=    30.00 Ry     beta=0.70
     Davidson diagonalization with overlap
     ethr =  1.82E-04,  avg # of iterations =  3.0

     negative rho (up, down):  1.998E-04 0.000E+00

     add environment contribution to local potential
     polarization accuracy = 8.2E-06, # of iterations =  22

     total cpu time spent up to now is       50.9 secs

     total energy              =     -81.34753511 Ry
     Harris-Foulkes estimate   =     -77.31713915 Ry
     estimated scf accuracy    <       0.01893811 Ry
     electrostatic embedding   =      -0.10034881 Ry
     correction to one-el term =      -3.93975657 Ry

     iteration #  5     ecut=    30.00 Ry     beta=0.70
     Davidson diagonalization with overlap
     ethr =  7.89E-05,  avg # of iterations =  3.0

     negative rho (up, down):  2.744E-04 0.000E+00

     total cpu time spent up to now is       55.8 secs

     End of self-consistent calculation

          k = 0.0000 0.0000 0.0000 ( 11060 PWs)   bands (ev):

   -28.7582 -23.0416 -18.6146 -15.8855 -14.5557 -13.3055 -11.5970 -10.8665
    -9.6077  -9.5799  -9.2343  -7.3343

     highest occupied level (ev):    -7.3343

!    total energy              =     -81.35236747 Ry
     Harris-Foulkes estimate   =     -77.34953714 Ry
     estimated scf accuracy    <       0.00127233 Ry

     The total energy is the sum of the following terms:

     one-electron contribution =    -241.86370081 Ry
     hartree contribution      =     123.16920756 Ry
     xc contribution           =     -22.96206914 Ry
     ewald contribution        =      64.30784006 Ry
     electrostatic embedding   =      -0.10126213 Ry
     correction to one-el term =      -3.90238300 Ry

     convergence has been achieved in   5 iterations
 WARNING: Unphysical forces due to core electrons are non-negligible 
 atom type   4 is subject to a spurious force of     0.000010 
 WARNING: Unphysical forces due to core electrons are non-negligible 
 atom type   6 is subject to a spurious force of     0.000010 
 WARNING: Unphysical forces due to core electrons are non-negligible 
 atom type   8 is subject to a spurious force of     0.000564 
 WARNING: Unphysical forces due to core electrons are non-negligible 
 atom type   9 is subject to a spurious force of     0.000359 
 WARNING: Unphysical forces due to core electrons are non-negligible 
 atom type  10 is subject to a spurious force of     0.014131 

     Forces acting on atoms (cartesian axes, Ry/au):

     atom    1 type  1   force =     0.21168714   -0.00011626    0.09743786
     atom    2 type  1   force =    -0.03231476    0.00000114   -0.07892331
     atom    3 type  3   force =    -0.13306310    0.00007754    0.04269502
     atom    4 type  2   force =     0.01466735   -0.02392750    0.00702133
     atom    5 type  2   force =    -0.02737593    0.00004105    0.01022179
     atom    6 type  2   force =     0.01460475    0.02395507    0.00696851
     atom    7 type  4   force =    -0.08362353   -0.00010068   -0.00002469
     atom    8 type  2   force =     0.00467268    0.00002561   -0.04603145
     atom    9 type  2   force =     0.03731435    0.00001862    0.03661292
     atom   10 type  2   force =    -0.00656895    0.00002541   -0.07597798

     Total force =     0.318302     Total SCF correction =     0.045896
     SCF correction compared to forces is large: reduce conv_thr to get better values

     Writing output data file pwscf.save

     init_run     :     10.80s CPU     11.60s WALL (       1 calls)
     electrons    :     39.54s CPU     44.19s WALL (       1 calls)
     forces       :      5.59s CPU      6.13s WALL (       1 calls)

     Called by init_run:
     wfcinit      :      0.22s CPU      0.21s WALL (       1 calls)
     potinit      :      1.75s CPU      1.87s WALL (       1 calls)

     Called by electrons:
     c_bands      :      1.87s CPU      1.77s WALL (       5 calls)
     sum_band     :      6.51s CPU      6.68s WALL (       5 calls)
     v_of_rho     :      6.87s CPU      7.38s WALL (       6 calls)
     newd         :      3.54s CPU      5.25s WALL (       6 calls)
     mix_rho      :      0.56s CPU      0.64s WALL (       5 calls)

     Called by c_bands:
     init_us_2    :      0.07s CPU      0.10s WALL (      11 calls)
     regterg      :      1.79s CPU      1.67s WALL (       5 calls)

     Called by sum_band:
     sum_band:bec :      0.00s CPU      0.00s WALL (       5 calls)
     addusdens    :      5.23s CPU      5.35s WALL (       5 calls)

     Called by *egterg:
     h_psi        :      1.65s CPU      1.60s WALL (      20 calls)
     s_psi        :      0.10s CPU      0.03s WALL (      20 calls)
     g_psi        :      0.01s CPU      0.01s WALL (      14 calls)
     rdiaghg      :      0.01s CPU      0.01s WALL (      19 calls)

     Called by h_psi:
     h_psi:pot    :      1.64s CPU      1.59s WALL (      20 calls)
     h_psi:calbec :      0.05s CPU      0.05s WALL (      20 calls)
     vloc_psi     :      1.48s CPU      1.50s WALL (      20 calls)
     add_vuspsi   :      0.11s CPU      0.03s WALL (      20 calls)

     General routines
     calbec       :      0.08s CPU      0.08s WALL (      29 calls)
     fft          :     17.27s CPU     17.53s WALL (     325 calls)
     ffts         :      0.10s CPU      0.11s WALL (      11 calls)
     fftw         :      1.34s CPU      1.36s WALL (     242 calls)
     interpolate  :      0.81s CPU      0.89s WALL (      11 calls)
     davcio       :      0.00s CPU      0.00s WALL (       1 calls)


     Environ routines
     calc_eelect  :      0.02s CPU      0.02s WALL (      10 calls)
     calc_velect  :     14.19s CPU     16.01s WALL (       8 calls)
     dielectric   :      0.46s CPU      0.58s WALL (       7 calls)
     calc_felect  :      0.24s CPU      0.26s WALL (       1 calls)

     PWSCF        :  0m56.22s CPU     1m 2.39s WALL


   This run was terminated on:  15:42:28  16Nov2017            

=------------------------------------------------------------------------------=
   JOB DONE.
=------------------------------------------------------------------------------=

%%%% IONS %%%%%%%%%%%%%%%%%%%%%%%%%%%%%%%%%%%%%%%%%%%%%%%%%%%%%%%%%%%%%%%%%%%%%%
 number of ions             =         10
 ionic center of charge     =      0.0095530    -0.0000002     0.0063981
 total ionic charge         =    -25.0000000
 ionic dipole               =      0.0000000     0.0000000     0.0000000
 ionic quadrupole (pc)      =    -79.0828058    -5.4513517  -105.8059629
 ionic quadrupole (gauss)   =    -82.2078058    -8.5763517  -108.9309629
 ion   1 type =  1 coordinates =      0.0000000     0.0000000     0.0000000
 ion   2 type =  1 coordinates =      0.0000000     0.0000000     2.9101782
 ion   3 type =  3 coordinates =      2.3419379     0.0000000    -1.0900479
 ion   4 type =  2 coordinates =      0.9532347    -1.6509323     3.5841800
 ion   5 type =  2 coordinates =     -1.9063663    -0.0000596     3.5841809
 ion   6 type =  2 coordinates =      0.9531315     1.6509919     3.5841800
 ion   7 type =  4 coordinates =     -1.9680045    -0.0000375    -1.2826193
 ion   8 type =  2 coordinates =      2.5262613    -0.0000303    -2.9510950
 ion   9 type =  2 coordinates =      3.8892907     0.0002681    -0.0514326
 ion  10 type =  2 coordinates =     -1.5407317    -0.0000890    -3.0457220

%%%% SYSTEM %%%%%%%%%%%%%%%%%%%%%%%%%%%%%%%%%%%%%%%%%%%%%%%%%%%%%%%%%%%%%%%%%%%%
 system is built from all present ionic types
 system defined dimension   =  0 
 system defined axis        =  3 
 system center              =      0.0095530    -0.0000002     0.0063981 
 system width               =      0.5223840 

%%%% ELECTRONS %%%%%%%%%%%%%%%%%%%%%%%%%%%%%%%%%%%%%%%%%%%%%%%%%%%%%%%%%%%%%%%%%
 number of electrons        =         24
 total electronic charge    =     24.0000000
 number of spin components  =  1

%%%% BOUNDARY %%%%%%%%%%%%%%%%%%%%%%%%%%%%%%%%%%%%%%%%%%%%%%%%%%%%%%%%%%%%%%%%%%
 boundary mode              = full                 
 boundary is built as a function of a smooth density
 function type              =  2 
 using the modified SCCS function with parameters 
 rhomax                     =      0.0050000 
 rhomin                     =      0.0001000 
 volume of the QM region    =    989.6664417 
 surface of the QM region   =    490.3840558 

%%%% DIELECTRIC %%%%%%%%%%%%%%%%%%%%%%%%%%%%%%%%%%%%%%%%%%%%%%%%%%%%%%%%%%%%%%%%%
 dielectric build on homogeneous background
 environment bulk permitt.  =    100.0000000 
 dielectric flags
 need gradient              =  F 
 need factor depend. sqrt   =  T 
 total dielectric charge    =      0.0000000

%%%% COMPUTE ELECTROSTATIC POTENTIAL %%%%%%%%%%%%%%%%%%%%%%%%%%%%%%%%%%%%%%%%%%%
 Iteration #          1
  pAp =    91.261454792163846       rzold =    89.323638108122964       alpha =   0.97876631828350746     
 delta_qm =   0.113586E-01 delta_en =   0.222942E+03 tol =   0.100000E-04
 Iteration #          2
  pAp =    74.580566543467768       rzold =    10.249634197479894       alpha =   0.13743036118539143     
 delta_qm =   0.471223E-02 delta_en =   0.383705E+02 tol =   0.100000E-04
 Iteration #          3
  pAp =   0.89207456102237670       rzold =   0.26010579802588024       alpha =   0.29157405601588027     
 delta_qm =   0.221675E-02 delta_en =   0.849134E+01 tol =   0.100000E-04
 Iteration #          4
  pAp =   0.37977134459953932       rzold =    7.9254297753043990E-002  alpha =   0.20868951509918668     
 delta_qm =   0.140998E-02 delta_en =   0.343536E+01 tol =   0.100000E-04
 Iteration #          5
  pAp =    2.8044152473287457E-002  rzold =    9.8462925071143501E-003  alpha =   0.35109966387799080     
 delta_qm =   0.853250E-03 delta_en =   0.125804E+01 tol =   0.100000E-04
 Iteration #          6
  pAp =    6.7981015317647190E-003  rzold =    2.3025214249100001E-003  alpha =   0.33870065255001991     
 delta_qm =   0.489136E-03 delta_en =   0.413430E+00 tol =   0.100000E-04
 Iteration #          7
  pAp =    1.1654237001344563E-003  rzold =    4.8501841514884513E-004  alpha =   0.41617346128527161     
 delta_qm =   0.279123E-03 delta_en =   0.134628E+00 tol =   0.100000E-04
 Iteration #          8
  pAp =    1.0775962362164907E-003  rzold =    2.9317792585162501E-004  alpha =   0.27206658300978431     
 delta_qm =   0.171834E-03 delta_en =   0.510223E-01 tol =   0.100000E-04
 Iteration #          9
  pAp =    1.6727613433105149E-004  rzold =    8.9472250390361643E-005  alpha =   0.53487755888290456     
 delta_qm =   0.576181E-04 delta_en =   0.573669E-02 tol =   0.100000E-04
 Iteration #         10
  pAp =    4.8334103466639189E-005  rzold =    2.0767968832017439E-005  alpha =   0.42967526740930978     
 delta_qm =   0.292080E-04 delta_en =   0.147417E-02 tol =   0.100000E-04
 Iteration #         11
  pAp =    9.6613183107689592E-006  rzold =    4.1909494602426201E-006  alpha =   0.43378650049974971     
 delta_qm =   0.153945E-04 delta_en =   0.409520E-03 tol =   0.100000E-04
 Iteration #         12
  pAp =    9.5704391421811687E-007  rzold =    5.3503532758368595E-007  alpha =   0.55904992407876875     
 delta_qm =   0.815480E-05 delta_en =   0.114913E-03 tol =   0.100000E-04
 Iteration #         13
  pAp =    4.6795008326156297E-007  rzold =    2.0132547288622943E-007  alpha =   0.43022852241634835     
 delta_qm =   0.421771E-05 delta_en =   0.307395E-04 tol =   0.100000E-04
 Iteration #         14
  pAp =    1.9530459552713444E-007  rzold =    8.0208626279036337E-008  alpha =   0.41068478733206581     
 delta_qm =   0.219764E-05 delta_en =   0.834562E-05 tol =   0.100000E-04
 Charges are converged, EXIT

%%%% ELECTRONS %%%%%%%%%%%%%%%%%%%%%%%%%%%%%%%%%%%%%%%%%%%%%%%%%%%%%%%%%%%%%%%%%
 number of electrons        =         24
 total electronic charge    =     24.0000000
 number of spin components  =  1

%%%% BOUNDARY %%%%%%%%%%%%%%%%%%%%%%%%%%%%%%%%%%%%%%%%%%%%%%%%%%%%%%%%%%%%%%%%%%
 boundary mode              = full                 
 boundary is built as a function of a smooth density
 function type              =  2 
 using the modified SCCS function with parameters 
 rhomax                     =      0.0050000 
 rhomin                     =      0.0001000 
 volume of the QM region    =    839.6496076 
 surface of the QM region   =    449.0125265 

%%%% DIELECTRIC %%%%%%%%%%%%%%%%%%%%%%%%%%%%%%%%%%%%%%%%%%%%%%%%%%%%%%%%%%%%%%%%%
 dielectric build on homogeneous background
 environment bulk permitt.  =    100.0000000 
 dielectric flags
 need gradient              =  F 
 need factor depend. sqrt   =  T 
 total dielectric charge    =     -0.0006637

%%%% COMPUTE ELECTROSTATIC POTENTIAL %%%%%%%%%%%%%%%%%%%%%%%%%%%%%%%%%%%%%%%%%%%
 Warning: bad guess with residual norm =   0.371303E+03, reset to no guess
 Iteration #          1
  pAp =    94.883306929975731       rzold =    93.215046311963263       alpha =   0.98241776481037224     
 delta_qm =   0.144556E-01 delta_en =   0.361088E+03 tol =   0.100000E-04
 Iteration #          2
  pAp =    105.12623168691687       rzold =    12.037872782620651       alpha =   0.11450874429201845     
 delta_qm =   0.514842E-02 delta_en =   0.458028E+02 tol =   0.100000E-04
 Iteration #          3
  pAp =   0.70740981847844009       rzold =   0.14351268434518813       alpha =   0.20287064244297312     
 delta_qm =   0.349855E-02 delta_en =   0.211504E+02 tol =   0.100000E-04
 Iteration #          4
  pAp =   0.18246335798047436       rzold =    4.0959020269799369E-002  alpha =   0.22447805807773441     
 delta_qm =   0.255273E-02 delta_en =   0.112604E+02 tol =   0.100000E-04
 Iteration #          5
  pAp =    2.0005962359586914E-002  rzold =    8.2704525318208592E-003  alpha =   0.41339938480178307     
 delta_qm =   0.132833E-02 delta_en =   0.304900E+01 tol =   0.100000E-04
 Iteration #          6
  pAp =    7.6126492710311931E-003  rzold =    3.2651729298023391E-003  alpha =   0.42891414191738347     
 delta_qm =   0.758097E-03 delta_en =   0.993101E+00 tol =   0.100000E-04
 Iteration #          7
  pAp =    5.2571840835641242E-003  rzold =    1.7036043804600479E-003  alpha =   0.32405263985070198     
 delta_qm =   0.437083E-03 delta_en =   0.330119E+00 tol =   0.100000E-04
 Iteration #          8
  pAp =    3.8486245040692522E-003  rzold =    1.1384090564942155E-003  alpha =   0.29579634367825325     
 delta_qm =   0.273965E-03 delta_en =   0.129699E+00 tol =   0.100000E-04
 Iteration #          9
  pAp =    1.1960426431416300E-003  rzold =    4.0094279828027109E-004  alpha =   0.33522450104882529     
 delta_qm =   0.192715E-03 delta_en =   0.641760E-01 tol =   0.100000E-04
 Iteration #         10
  pAp =    3.2475696289387791E-004  rzold =    1.1246142638058175E-004  alpha =   0.34629411908046204     
 delta_qm =   0.125411E-03 delta_en =   0.271780E-01 tol =   0.100000E-04
 Iteration #         11
  pAp =    3.5921953173203754E-005  rzold =    1.7512514067614636E-005  alpha =   0.48751564212488940     
 delta_qm =   0.673403E-04 delta_en =   0.783598E-02 tol =   0.100000E-04
 Iteration #         12
  pAp =    8.1242139191647482E-006  rzold =    4.6087052901212298E-006  alpha =   0.56728014992926867     
 delta_qm =   0.314201E-04 delta_en =   0.170592E-02 tol =   0.100000E-04
 Iteration #         13
  pAp =    6.9912391513257336E-006  rzold =    2.6638485396859245E-006  alpha =   0.38102666523441481     
 delta_qm =   0.188345E-04 delta_en =   0.612988E-03 tol =   0.100000E-04
 Iteration #         14
  pAp =    2.2735414689950964E-006  rzold =    8.5371855062872591E-007  alpha =   0.37550164018168047     
 delta_qm =   0.139460E-04 delta_en =   0.336080E-03 tol =   0.100000E-04
 Iteration #         15
  pAp =    6.6186056862947684E-007  rzold =    2.6622578326946196E-007  alpha =   0.40223847119452832     
 delta_qm =   0.904222E-05 delta_en =   0.141284E-03 tol =   0.100000E-04
 Iteration #         16
  pAp =    2.4646514282834821E-007  rzold =    8.7126802042192782E-008  alpha =   0.35350557503732949     
 delta_qm =   0.540218E-05 delta_en =   0.504292E-04 tol =   0.100000E-04
 Iteration #         17
  pAp =    1.0721983237223058E-007  rzold =    4.1145901978807598E-008  alpha =   0.38375271690374502     
 delta_qm =   0.237356E-05 delta_en =   0.973519E-05 tol =   0.100000E-04
 Charges are converged, EXIT

%%%% ELECTRONS %%%%%%%%%%%%%%%%%%%%%%%%%%%%%%%%%%%%%%%%%%%%%%%%%%%%%%%%%%%%%%%%%
 number of electrons        =         24
 total electronic charge    =     24.0000000
 number of spin components  =  1

%%%% BOUNDARY %%%%%%%%%%%%%%%%%%%%%%%%%%%%%%%%%%%%%%%%%%%%%%%%%%%%%%%%%%%%%%%%%%
 boundary mode              = full                 
 boundary is built as a function of a smooth density
 function type              =  2 
 using the modified SCCS function with parameters 
 rhomax                     =      0.0050000 
 rhomin                     =      0.0001000 
 volume of the QM region    =    716.1313887 
 surface of the QM region   =    412.6364450 

%%%% DIELECTRIC %%%%%%%%%%%%%%%%%%%%%%%%%%%%%%%%%%%%%%%%%%%%%%%%%%%%%%%%%%%%%%%%%
 dielectric build on homogeneous background
 environment bulk permitt.  =    100.0000000 
 dielectric flags
 need gradient              =  F 
 need factor depend. sqrt   =  T 
 total dielectric charge    =      0.0000210

%%%% COMPUTE ELECTROSTATIC POTENTIAL %%%%%%%%%%%%%%%%%%%%%%%%%%%%%%%%%%%%%%%%%%%
 Warning: bad guess with residual norm =   0.130866E+04, reset to no guess
 Iteration #          1
  pAp =    95.372729085145394       rzold =    93.202837776144960       alpha =   0.97724830431282683     
 delta_qm =   0.269393E-01 delta_en =   0.125405E+04 tol =   0.100000E-04
 Iteration #          2
  pAp =    231.62926080078111       rzold =    20.804814263923085       alpha =    8.9819456281116469E-002
 delta_qm =   0.880718E-02 delta_en =   0.134035E+03 tol =   0.100000E-04
 Iteration #          3
  pAp =    1.3277875950972411       rzold =   0.21370940902778493       alpha =   0.16095150294888380     
 delta_qm =   0.703137E-02 delta_en =   0.854327E+02 tol =   0.100000E-04
 Iteration #          4
  pAp =   0.21351146283812286       rzold =    3.9323301384419022E-002  alpha =   0.18417419309347627     
 delta_qm =   0.620172E-02 delta_en =   0.664612E+02 tol =   0.100000E-04
 Iteration #          5
  pAp =    3.1596262421607922E-002  rzold =    1.2128671840273865E-002  alpha =   0.38386413172652212     
 delta_qm =   0.363522E-02 delta_en =   0.228352E+02 tol =   0.100000E-04
 Iteration #          6
  pAp =    2.1183238783201941E-002  rzold =    9.5102420762449933E-003  alpha =   0.44895127575045340     
 delta_qm =   0.231660E-02 delta_en =   0.927352E+01 tol =   0.100000E-04
 Iteration #          7
  pAp =    1.8339649119397970E-002  rzold =    6.4597666589801235E-003  alpha =   0.35222956649413673     
 delta_qm =   0.139049E-02 delta_en =   0.334101E+01 tol =   0.100000E-04
 Iteration #          8
  pAp =    1.6816978161846824E-002  rzold =    5.0122879764446316E-003  alpha =   0.29804926474936844     
 delta_qm =   0.940071E-03 delta_en =   0.152709E+01 tol =   0.100000E-04
 Iteration #          9
  pAp =    1.4861812872533953E-002  rzold =    3.5444564908761939E-003  alpha =   0.23849422148402147     
 delta_qm =   0.695836E-03 delta_en =   0.836677E+00 tol =   0.100000E-04
 Iteration #         10
  pAp =    3.1324763866561827E-003  rzold =    1.0123957860292568E-003  alpha =   0.32319342943553886     
 delta_qm =   0.539174E-03 delta_en =   0.502345E+00 tol =   0.100000E-04
 Iteration #         11
  pAp =    4.8448329003519656E-004  rzold =    1.7058372080651094E-004  alpha =   0.35209412649529864     
 delta_qm =   0.425492E-03 delta_en =   0.312843E+00 tol =   0.100000E-04
 Iteration #         12
  pAp =    2.7075835022536543E-004  rzold =    1.0253501610721419E-004  alpha =   0.37869567465553428     
 delta_qm =   0.257470E-03 delta_en =   0.114550E+00 tol =   0.100000E-04
 Iteration #         13
  pAp =    1.0303740359623596E-004  rzold =    5.6680591146765029E-005  alpha =   0.55009723817260103     
 delta_qm =   0.104635E-03 delta_en =   0.189191E-01 tol =   0.100000E-04
 Iteration #         14
  pAp =    6.3091006638897124E-005  rzold =    2.3246608565631388E-005  alpha =   0.36846152572400537     
 delta_qm =   0.855797E-04 delta_en =   0.126557E-01 tol =   0.100000E-04
 Iteration #         15
  pAp =    1.4537865537020967E-005  rzold =    5.8155473392499539E-006  alpha =   0.40002759170117136     
 delta_qm =   0.672518E-04 delta_en =   0.781541E-02 tol =   0.100000E-04
 Iteration #         16
  pAp =    6.5990421119664339E-006  rzold =    2.2975550143064513E-006  alpha =   0.34816492686721284     
 delta_qm =   0.476574E-04 delta_en =   0.392468E-02 tol =   0.100000E-04
 Iteration #         17
  pAp =    4.3059822313729964E-006  rzold =    1.4101144776322222E-006  alpha =   0.32747800661095527     
 delta_qm =   0.287829E-04 delta_en =   0.143157E-02 tol =   0.100000E-04
 Iteration #         18
  pAp =    2.3326591752421671E-006  rzold =    7.5888287656631657E-007  alpha =   0.32532951432458301     
 delta_qm =   0.170229E-04 delta_en =   0.500740E-03 tol =   0.100000E-04
 Iteration #         19
  pAp =    3.6097659010695280E-007  rzold =    1.9235797671565517E-007  alpha =   0.53288213692378761     
 delta_qm =   0.868965E-05 delta_en =   0.130481E-03 tol =   0.100000E-04
 Iteration #         20
  pAp =    1.3525440365068733E-007  rzold =    5.8768117084499267E-008  alpha =   0.43450058185370311     
 delta_qm =   0.470447E-05 delta_en =   0.382442E-04 tol =   0.100000E-04
 Iteration #         21
  pAp =    4.5840498962450562E-008  rzold =    1.7705009575178780E-008  alpha =   0.38623073430508525     
 delta_qm =   0.277578E-05 delta_en =   0.133142E-04 tol =   0.100000E-04
 Iteration #         22
  pAp =    8.8539382949243317E-009  rzold =    3.6806205666914272E-009  alpha =   0.41570433902858850     
 delta_qm =   0.177637E-05 delta_en =   0.545268E-05 tol =   0.100000E-04
 Charges are converged, EXIT

%%%% ELECTRONS %%%%%%%%%%%%%%%%%%%%%%%%%%%%%%%%%%%%%%%%%%%%%%%%%%%%%%%%%%%%%%%%%
 number of electrons        =         24
 total electronic charge    =     24.0000000
 number of spin components  =  1

%%%% BOUNDARY %%%%%%%%%%%%%%%%%%%%%%%%%%%%%%%%%%%%%%%%%%%%%%%%%%%%%%%%%%%%%%%%%%
 boundary mode              = full                 
 boundary is built as a function of a smooth density
 function type              =  2 
 using the modified SCCS function with parameters 
 rhomax                     =      0.0050000 
 rhomin                     =      0.0001000 
 volume of the QM region    =    714.0054141 
 surface of the QM region   =    412.5102428 

%%%% DIELECTRIC %%%%%%%%%%%%%%%%%%%%%%%%%%%%%%%%%%%%%%%%%%%%%%%%%%%%%%%%%%%%%%%%%
 dielectric build on homogeneous background
 environment bulk permitt.  =    100.0000000 
 dielectric flags
 need gradient              =  F 
 need factor depend. sqrt   =  T 
 total dielectric charge    =     -0.0005739

%%%% COMPUTE ELECTROSTATIC POTENTIAL %%%%%%%%%%%%%%%%%%%%%%%%%%%%%%%%%%%%%%%%%%%
 Warning: bad guess with residual norm =   0.145455E+04, reset to no guess
 Iteration #          1
  pAp =    95.427365052807090       rzold =    93.237219092965617       alpha =   0.97704907854649969     
 delta_qm =   0.283900E-01 delta_en =   0.139275E+04 tol =   0.100000E-04
 Iteration #          2
  pAp =    238.83118421657394       rzold =    21.212803700563004       alpha =    8.8819237613992116E-002
 delta_qm =   0.893747E-02 delta_en =   0.138030E+03 tol =   0.100000E-04
 Iteration #          3
  pAp =    1.5026186101972887       rzold =   0.23526452157918928       alpha =   0.15656968440468061     
 delta_qm =   0.727242E-02 delta_en =   0.913905E+02 tol =   0.100000E-04
 Iteration #          4
  pAp =   0.22867717077217473       rzold =    4.1398923543687925E-002  alpha =   0.18103653899467134     
 delta_qm =   0.650906E-02 delta_en =   0.732116E+02 tol =   0.100000E-04
 Iteration #          5
  pAp =    3.3482425648616379E-002  rzold =    1.2253065036687331E-002  alpha =   0.36595511822464610     
 delta_qm =   0.389275E-02 delta_en =   0.261852E+02 tol =   0.100000E-04
 Iteration #          6
  pAp =    2.1003505448318457E-002  rzold =    9.3710939856418759E-003  alpha =   0.44616809364039406     
 delta_qm =   0.248547E-02 delta_en =   0.106748E+02 tol =   0.100000E-04
 Iteration #          7
  pAp =    1.8654016966168179E-002  rzold =    6.6344799034848759E-003  alpha =   0.35565958343007231     
 delta_qm =   0.148757E-02 delta_en =   0.382383E+01 tol =   0.100000E-04
 Iteration #          8
  pAp =    1.7267193207321705E-002  rzold =    5.1428753862468538E-003  alpha =   0.29784084329734323     
 delta_qm =   0.978142E-03 delta_en =   0.165329E+01 tol =   0.100000E-04
 Iteration #          9
  pAp =    1.6050550257808952E-002  rzold =    3.8844559785967269E-003  alpha =   0.24201388215378175     
 delta_qm =   0.692600E-03 delta_en =   0.828913E+00 tol =   0.100000E-04
 Iteration #         10
  pAp =    3.4833717318665919E-003  rzold =    1.1280725734195847E-003  alpha =   0.32384501576439512     
 delta_qm =   0.555036E-03 delta_en =   0.532336E+00 tol =   0.100000E-04
 Iteration #         11
  pAp =    5.7144094075775966E-004  rzold =    1.9369981312763034E-004  alpha =   0.33896733557587694     
 delta_qm =   0.439644E-03 delta_en =   0.333999E+00 tol =   0.100000E-04
 Iteration #         12
  pAp =    2.8149399845673223E-004  rzold =    1.0507589355141517E-004  alpha =   0.37327933855600881     
 delta_qm =   0.283197E-03 delta_en =   0.138587E+00 tol =   0.100000E-04
 Iteration #         13
  pAp =    1.0548903292271365E-004  rzold =    5.8768711162450750E-005  alpha =   0.55710730806971698     
 delta_qm =   0.119974E-03 delta_en =   0.248725E-01 tol =   0.100000E-04
 Iteration #         14
  pAp =    8.4354835743027842E-005  rzold =    3.0102790139937658E-005  alpha =   0.35685909260306675     
 delta_qm =   0.947610E-04 delta_en =   0.155168E-01 tol =   0.100000E-04
 Iteration #         15
  pAp =    1.9438756807486792E-005  rzold =    7.7110459600138077E-006  alpha =   0.39668411084004696     
 delta_qm =   0.769791E-04 delta_en =   0.102397E-01 tol =   0.100000E-04
 Iteration #         16
  pAp =    6.8779605462460189E-006  rzold =    2.6572016994363682E-006  alpha =   0.38633569959726871     
 delta_qm =   0.537692E-04 delta_en =   0.499586E-02 tol =   0.100000E-04
 Iteration #         17
  pAp =    4.2050562872237202E-006  rzold =    1.4408012354725963E-006  alpha =   0.34263542199190111     
 delta_qm =   0.330579E-04 delta_en =   0.188840E-02 tol =   0.100000E-04
 Iteration #         18
  pAp =    3.4912873421969241E-006  rzold =    9.8611631167931042E-007  alpha =   0.28245063067733284     
 delta_qm =   0.199503E-04 delta_en =   0.687767E-03 tol =   0.100000E-04
 Iteration #         19
  pAp =    4.7223508159895467E-007  rzold =    2.4579223897447133E-007  alpha =   0.52048703824001419     
 delta_qm =   0.103104E-04 delta_en =   0.183695E-03 tol =   0.100000E-04
 Iteration #         20
  pAp =    1.8791135936198175E-007  rzold =    8.0950799769698886E-008  alpha =   0.43079247600864762     
 delta_qm =   0.574372E-05 delta_en =   0.570072E-04 tol =   0.100000E-04
 Iteration #         21
  pAp =    6.2478951108178489E-008  rzold =    2.5160865126912915E-008  alpha =   0.40270946743885655     
 delta_qm =   0.343037E-05 delta_en =   0.203342E-04 tol =   0.100000E-04
 Iteration #         22
  pAp =    1.1009749242689549E-008  rzold =    4.9184848730800187E-009  alpha =   0.44673904597290287     
 delta_qm =   0.218281E-05 delta_en =   0.823330E-05 tol =   0.100000E-04
 Charges are converged, EXIT

%%%% ELECTRONS %%%%%%%%%%%%%%%%%%%%%%%%%%%%%%%%%%%%%%%%%%%%%%%%%%%%%%%%%%%%%%%%%
 number of electrons        =         24
 total electronic charge    =     24.0000000
 number of spin components  =  1

%%%% BOUNDARY %%%%%%%%%%%%%%%%%%%%%%%%%%%%%%%%%%%%%%%%%%%%%%%%%%%%%%%%%%%%%%%%%%
 boundary mode              = full                 
 boundary is built as a function of a smooth density
 function type              =  2 
 using the modified SCCS function with parameters 
 rhomax                     =      0.0050000 
 rhomin                     =      0.0001000 
 volume of the QM region    =    714.0054141 
 surface of the QM region   =    412.5102428 

%%%% DIELECTRIC %%%%%%%%%%%%%%%%%%%%%%%%%%%%%%%%%%%%%%%%%%%%%%%%%%%%%%%%%%%%%%%%%
 dielectric build on homogeneous background
 environment bulk permitt.  =    100.0000000 
 dielectric flags
 need gradient              =  F 
 need factor depend. sqrt   =  T 
 total dielectric charge    =     -0.0002612
