
     Program PWSCF v.6.1 (svn rev. 13369) starts on 13Nov2017 at 11:41:43 

     This program is part of the open-source Quantum ESPRESSO suite
     for quantum simulation of materials; please cite
         "P. Giannozzi et al., J. Phys.:Condens. Matter 21 395502 (2009);
          URL http://www.quantum-espresso.org", 
     in publications or presentations arising from this work. More details at
     http://www.quantum-espresso.org/quote

     Serial version
     Reading input from slab.in

     Current dimensions of program PWSCF are:
     Max number of different atomic species (ntypx) = 10
     Max number of k-points (npk) =  40000
     Max angular momentum in pseudopotentials (lmaxx) =  3
               file C.pbe-rrkjus.UPF: wavefunction(s)  2S 2P renormalized
               file O.pbe-rrkjus.UPF: wavefunction(s)  2S renormalized

     gamma-point specific algorithms are used

     G-vector sticks info
     --------------------
     sticks:   dense  smooth     PW     G-vecs:    dense   smooth      PW
     Sum        2357    1099    269               366833   116965   14571



     bravais-lattice index     =            8
     lattice parameter (alat)  =      10.6881  a.u.
     unit-cell volume          =    4181.1215 (a.u.)^3
     number of atoms/cell      =           10
     number of atomic types    =            3
     number of electrons       =        89.00
     number of Kohn-Sham states=           80
     kinetic-energy cutoff     =      35.0000  Ry
     charge density cutoff     =     300.0000  Ry
     convergence threshold     =      5.0E-02
     mixing beta               =       0.7000
     number of iterations used =            8  plain     mixing
     Exchange-correlation      = PBE ( 1  4  3  4 0 0)


     Environ Module
     ==============

     Plese cite
         O. Andreussi, I. Dabo and N. Marzari, J. Chem. Phys. 136, 064102 (2012)         
     in publications or presentations arising from this work.

     compensation onset threshold      =               0.1000E+03 

     Electrostatic Setup
     -------------------
     electrostatic problem to solve    = poisson                  
     numerical solver adopted          = direct                   
     type of auxiliary density adopted = none                     
     type of core tool for poisson     = fft                      
     type of core tool for s(r) deriv  = analytic                 



     celldm(1)=  10.688100  celldm(2)=   0.866025  celldm(3)=   3.954220
     celldm(4)=   0.000000  celldm(5)=   0.000000  celldm(6)=   0.000000

     crystal axes: (cart. coord. in units of alat)
               a(1) = (   1.000000   0.000000   0.000000 )  
               a(2) = (   0.000000   0.866025   0.000000 )  
               a(3) = (   0.000000   0.000000   3.954220 )  

     reciprocal axes: (cart. coord. in units 2 pi/alat)
               b(1) = (  1.000000  0.000000  0.000000 )  
               b(2) = (  0.000000  1.154701  0.000000 )  
               b(3) = (  0.000000  0.000000  0.252894 )  


     PseudoPot. # 1 for C  read from file:
     /Users/oliviero/PWSCF/espresso-6.1-Environ-1.0/Environ/tests/../..//pseudo/C.pbe-rrkjus.UPF
     MD5 check sum: 00fb224312de0c5b6853bd333518df6f
     Pseudo is Ultrasoft, Zval =  4.0
     Generated by new atomic code, or converted to UPF format
     Using radial grid of  627 points,  4 beta functions with: 
                l(1) =   0
                l(2) =   0
                l(3) =   1
                l(4) =   1
     Q(r) pseudized with 0 coefficients 


     PseudoPot. # 2 for O  read from file:
     /Users/oliviero/PWSCF/espresso-6.1-Environ-1.0/Environ/tests/../..//pseudo/O.pbe-rrkjus.UPF
     MD5 check sum: 390ba29e75625707450f3bd3f0eb6be9
     Pseudo is Ultrasoft, Zval =  6.0
     Generated by new atomic code, or converted to UPF format
     Using radial grid of 1269 points,  4 beta functions with: 
                l(1) =   0
                l(2) =   0
                l(3) =   1
                l(4) =   1
     Q(r) pseudized with 0 coefficients 


     PseudoPot. # 3 for Pt read from file:
     /Users/oliviero/PWSCF/espresso-6.1-Environ-1.0/Environ/tests/../..//pseudo/Pt.pbe-n-rrkjus_psl.0.1.UPF
     MD5 check sum: df5be8f5ed4f66d4aed38ca70ec8d507
     Pseudo is Ultrasoft + core correction, Zval = 10.0
     Generated using "atomic" code by A. Dal Corso  v.5.0.2 svn rev. 9415
     Using radial grid of 1277 points,  6 beta functions with: 
                l(1) =   0
                l(2) =   0
                l(3) =   1
                l(4) =   1
                l(5) =   2
                l(6) =   2
     Q(r) pseudized with 0 coefficients 


     atomic species   valence    mass     pseudopotential
        C              4.00     1.00000     C ( 1.00)
        O              6.00     1.00000     O ( 1.00)
        Pt            10.00     1.00000     Pt( 1.00)

     No symmetry found



   Cartesian axes

     site n.     atom                  positions (alat units)
         1           C   tau(   1) = (   0.4991611   0.4347567   0.7762281  )
         2           O   tau(   2) = (   0.4991542   0.4322212   0.9800832  )
         3           Pt  tau(   3) = (   0.7542339   0.0091745   0.4105048  )
         4           Pt  tau(   4) = (   0.2441023   0.0091745   0.4105046  )
         5           Pt  tau(   5) = (   0.0000034   0.4416918   0.4083168  )
         6           Pt  tau(   6) = (   0.4991682   0.4417635   0.4468119  )
         7           Pt  tau(   7) = (   0.0000038   0.7300598   0.0000000  )
         8           Pt  tau(   8) = (   0.4991683   0.7202168   0.0139279  )
         9           Pt  tau(   9) = (   0.2524172   0.2949237   0.0078392  )
        10           Pt  tau(  10) = (   0.7459196   0.2949237   0.0078394  )

     number of k points=     1  Marzari-Vanderbilt smearing, width (Ry)=  0.0300
                       cart. coord. in units 2pi/alat
        k(    1) = (   0.0000000   0.0000000   0.0000000), wk =   2.0000000

     Dense  grid:   183417 G-vectors     FFT dimensions: (  60,  54, 240)

     Smooth grid:    58483 G-vectors     FFT dimensions: (  45,  36, 160)

     Estimated max dynamical RAM per process >     231.32MB

     Initial potential from superposition of free atoms
     Check: negative starting charge=   -0.003083

     starting charge   89.99859, renormalised to   89.00000

     negative rho (up, down):  3.049E-03 0.000E+00
     Starting wfc are   80 randomized atomic wfcs

     total cpu time spent up to now is       11.6 secs

     Self-consistent Calculation

     iteration #  1     ecut=    35.00 Ry     beta=0.70
     Davidson diagonalization with overlap
     ethr =  1.00E-02,  avg # of iterations =  5.0

     negative rho (up, down):  2.886E-03 0.000E+00

     add environment contribution to local potential

     total cpu time spent up to now is       16.9 secs

     total energy              =    -622.75590451 Ry
     Harris-Foulkes estimate   =    -624.21130265 Ry
     estimated scf accuracy    <       1.86638633 Ry
     electrostatic embedding   =      -0.03381190 Ry
     correction to one-el term =       0.00000000 Ry

     iteration #  2     ecut=    35.00 Ry     beta=0.70
     Davidson diagonalization with overlap
     ethr =  2.10E-03,  avg # of iterations =  6.0

     negative rho (up, down):  2.456E-02 0.000E+00

     add environment contribution to local potential

     total cpu time spent up to now is       22.6 secs

     total energy              =    -616.43727294 Ry
     Harris-Foulkes estimate   =    -615.34057438 Ry
     estimated scf accuracy    <      86.52316403 Ry
     electrostatic embedding   =       0.91593226 Ry
     correction to one-el term =     -14.08402539 Ry

     iteration #  3     ecut=    35.00 Ry     beta=0.70
     Davidson diagonalization with overlap
     ethr =  2.10E-03,  avg # of iterations =  4.0

     negative rho (up, down):  1.258E-02 0.000E+00

     add environment contribution to local potential

     total cpu time spent up to now is       27.8 secs

     total energy              =    -623.53535892 Ry
     Harris-Foulkes estimate   =    -611.46425252 Ry
     estimated scf accuracy    <      39.47386652 Ry
     electrostatic embedding   =       0.81963708 Ry
     correction to one-el term =     -13.94830104 Ry

     iteration #  4     ecut=    35.00 Ry     beta=0.70
     Davidson diagonalization with overlap
     ethr =  2.10E-03,  avg # of iterations =  2.0

     negative rho (up, down):  1.195E-02 0.000E+00

     add environment contribution to local potential

     total cpu time spent up to now is       32.5 secs

     total energy              =    -623.34365694 Ry
     Harris-Foulkes estimate   =    -610.57678694 Ry
     estimated scf accuracy    <      20.78628913 Ry
     electrostatic embedding   =       0.63356590 Ry
     correction to one-el term =     -13.71188302 Ry

     iteration #  5     ecut=    35.00 Ry     beta=0.70
     Davidson diagonalization with overlap
     ethr =  2.10E-03,  avg # of iterations =  2.0

     negative rho (up, down):  1.314E-02 0.000E+00

     add environment contribution to local potential

     total cpu time spent up to now is       37.1 secs

     total energy              =    -622.98215260 Ry
     Harris-Foulkes estimate   =    -610.31716233 Ry
     estimated scf accuracy    <      21.08261287 Ry
     electrostatic embedding   =       0.46014409 Ry
     correction to one-el term =     -13.60145742 Ry

     iteration #  6     ecut=    35.00 Ry     beta=0.70
     Davidson diagonalization with overlap
     ethr =  2.10E-03,  avg # of iterations =  1.0

     negative rho (up, down):  1.492E-02 0.000E+00

     add environment contribution to local potential

     total cpu time spent up to now is       41.8 secs

     total energy              =    -622.33556482 Ry
     Harris-Foulkes estimate   =    -610.39238051 Ry
     estimated scf accuracy    <      17.16936783 Ry
     electrostatic embedding   =       0.33902345 Ry
     correction to one-el term =     -13.46964175 Ry

     iteration #  7     ecut=    35.00 Ry     beta=0.70
     Davidson diagonalization with overlap
     ethr =  2.10E-03,  avg # of iterations =  4.0

     negative rho (up, down):  1.445E-02 0.000E+00

     add environment contribution to local potential

     total cpu time spent up to now is       47.3 secs

     total energy              =    -622.92073640 Ry
     Harris-Foulkes estimate   =    -609.94120688 Ry
     estimated scf accuracy    <       1.48704007 Ry
     electrostatic embedding   =       0.24480628 Ry
     correction to one-el term =     -13.41302308 Ry

     iteration #  8     ecut=    35.00 Ry     beta=0.70
     Davidson diagonalization with overlap
     ethr =  1.67E-03,  avg # of iterations =  5.0

     negative rho (up, down):  1.274E-02 0.000E+00

     add environment contribution to local potential

     total cpu time spent up to now is       52.7 secs

     total energy              =    -622.99361702 Ry
     Harris-Foulkes estimate   =    -609.83384668 Ry
     estimated scf accuracy    <       0.52333949 Ry
     electrostatic embedding   =       0.21362535 Ry
     correction to one-el term =     -13.40727988 Ry

     iteration #  9     ecut=    35.00 Ry     beta=0.70
     Davidson diagonalization with overlap
     ethr =  5.88E-04,  avg # of iterations =  2.0

     negative rho (up, down):  9.803E-03 0.000E+00

     add environment contribution to local potential

     total cpu time spent up to now is       57.9 secs

     total energy              =    -622.98213404 Ry
     Harris-Foulkes estimate   =    -609.81375527 Ry
     estimated scf accuracy    <       0.39629836 Ry
     electrostatic embedding   =       0.22695969 Ry
     correction to one-el term =     -13.43969176 Ry

     iteration # 10     ecut=    35.00 Ry     beta=0.70
     Davidson diagonalization with overlap
     ethr =  4.45E-04,  avg # of iterations =  1.0

     negative rho (up, down):  6.194E-03 0.000E+00

     add environment contribution to local potential

     total cpu time spent up to now is       62.9 secs

     total energy              =    -622.97114258 Ry
     Harris-Foulkes estimate   =    -609.78353084 Ry
     estimated scf accuracy    <       0.27858859 Ry
     electrostatic embedding   =       0.27312373 Ry
     correction to one-el term =     -13.49960798 Ry

     iteration # 11     ecut=    35.00 Ry     beta=0.70
     Davidson diagonalization with overlap
     ethr =  3.13E-04,  avg # of iterations =  1.0

     negative rho (up, down):  4.467E-03 0.000E+00

     add environment contribution to local potential

     total cpu time spent up to now is       67.7 secs

     total energy              =    -622.97721425 Ry
     Harris-Foulkes estimate   =    -609.75077609 Ry
     estimated scf accuracy    <       0.21571977 Ry
     electrostatic embedding   =       0.42058869 Ry
     correction to one-el term =     -13.73462167 Ry

     iteration # 12     ecut=    35.00 Ry     beta=0.70
     Davidson diagonalization with overlap
     ethr =  2.42E-04,  avg # of iterations =  3.0

     negative rho (up, down):  3.840E-03 0.000E+00

     add environment contribution to local potential

     total cpu time spent up to now is       72.5 secs

     total energy              =    -622.75378481 Ry
     Harris-Foulkes estimate   =    -609.69576018 Ry
     estimated scf accuracy    <       0.42024605 Ry
     electrostatic embedding   =       0.47444076 Ry
     correction to one-el term =     -13.60731213 Ry

     iteration # 13     ecut=    35.00 Ry     beta=0.70
     Davidson diagonalization with overlap
     ethr =  2.42E-04,  avg # of iterations =  3.0

     negative rho (up, down):  3.149E-03 0.000E+00

     add environment contribution to local potential

     total cpu time spent up to now is       77.3 secs

     total energy              =    -622.93001895 Ry
     Harris-Foulkes estimate   =    -609.70766208 Ry
     estimated scf accuracy    <       0.13254114 Ry
     electrostatic embedding   =       0.45707454 Ry
     correction to one-el term =     -13.69988922 Ry

     iteration # 14     ecut=    35.00 Ry     beta=0.70
     Davidson diagonalization with overlap
     ethr =  1.49E-04,  avg # of iterations =  2.0

     negative rho (up, down):  3.282E-03 0.000E+00

     add environment contribution to local potential

     total cpu time spent up to now is       81.9 secs

     total energy              =    -622.88693967 Ry
     Harris-Foulkes estimate   =    -609.68985902 Ry
     estimated scf accuracy    <       0.12878244 Ry
     electrostatic embedding   =       0.51340959 Ry
     correction to one-el term =     -13.71998223 Ry

     iteration # 15     ecut=    35.00 Ry     beta=0.70
     Davidson diagonalization with overlap
     ethr =  1.45E-04,  avg # of iterations =  1.0

     negative rho (up, down):  3.177E-03 0.000E+00

     add environment contribution to local potential

     total cpu time spent up to now is       86.6 secs

     total energy              =    -622.88309312 Ry
     Harris-Foulkes estimate   =    -609.68315280 Ry
     estimated scf accuracy    <       0.07878560 Ry
     electrostatic embedding   =       0.53264171 Ry
     correction to one-el term =     -13.73835346 Ry

     iteration # 16     ecut=    35.00 Ry     beta=0.70
     Davidson diagonalization with overlap
     ethr =  8.85E-05,  avg # of iterations =  1.0

     negative rho (up, down):  3.084E-03 0.000E+00

     total cpu time spent up to now is       91.2 secs

     End of self-consistent calculation

          k = 0.0000 0.0000 0.0000 (  7286 PWs)   bands (ev):

   -29.0453 -15.4715 -13.7525 -12.5630 -12.3029 -11.9124 -11.8939 -11.5955
   -11.4578 -10.6072 -10.4583 -10.3612 -10.1121 -10.0664 -10.0449  -9.8873
    -9.2112  -9.1588  -9.0880  -8.9091  -8.8815  -8.8084  -8.7861  -8.7267
    -8.7177  -8.5254  -8.5073  -8.4323  -8.3210  -8.0829  -7.9628  -7.2542
    -7.1099  -6.8752  -6.5987  -6.5881  -6.5474  -6.3238  -6.1624  -6.0558
    -5.8757  -5.8622  -5.6537  -5.6199  -5.5754  -5.4162  -5.2693  -5.2229
    -4.1928  -3.8632  -3.8120  -3.2431  -2.6288  -2.4624  -1.4839  -1.1371
    -1.0593   0.3218   0.4676   0.9854   1.7777   2.0268   2.6873   3.0843
     3.1949   3.3390   3.6378   4.2899   4.4497   4.9114   5.2007   5.3848
     5.6288   5.9100   6.1695   6.2571   6.5983   6.7708   7.0339   7.4034

     the Fermi energy is    -5.5001 ev

!    total energy              =    -622.83396685 Ry
     Harris-Foulkes estimate   =    -609.68114716 Ry
     estimated scf accuracy    <       0.04636834 Ry

     The total energy is the sum of the following terms:

     one-electron contribution =   -3912.26115862 Ry
     hartree contribution      =    1991.93372839 Ry
     xc contribution           =    -262.50710149 Ry
     ewald contribution        =    1573.20467954 Ry
     smearing contrib. (-TS)   =      -0.00758853 Ry
     electrostatic embedding   =       0.54182732 Ry
     correction to one-el term =     -13.73835346 Ry

     convergence has been achieved in  16 iterations

     negative rho (up, down):  3.084E-03 0.000E+00

     Forces acting on atoms (cartesian axes, Ry/au):

     atom    1 type  1   force =    -0.00002981   -0.00383392    0.03508534
     atom    2 type  2   force =     0.00029884    0.00197141   -0.15269570
     atom    3 type  3   force =     0.00716645    0.01506151    0.06630287
     atom    4 type  3   force =    -0.00692310    0.01427074    0.07152544
     atom    5 type  3   force =    -0.00628250    0.01174488    0.02734997
     atom    6 type  3   force =     0.00488409    0.00269980    0.08603565
     atom    7 type  3   force =    -0.00518204   -0.01114501   -0.04459743
     atom    8 type  3   force =     0.00484483   -0.01649497   -0.02090691
     atom    9 type  3   force =     0.00483809   -0.00667784   -0.03509611
     atom   10 type  3   force =    -0.00361487   -0.00759660   -0.03300312

     Total force =     0.219769     Total SCF correction =     0.924338
     SCF correction compared to forces is large: reduce conv_thr to get better values

     Writing output data file pwscf.save

     init_run     :     10.71s CPU     11.19s WALL (       1 calls)
     electrons    :     79.04s CPU     79.67s WALL (       1 calls)
     forces       :      6.32s CPU      6.55s WALL (       1 calls)

     Called by init_run:
     wfcinit      :      0.58s CPU      0.60s WALL (       1 calls)
     potinit      :      2.89s CPU      2.98s WALL (       1 calls)

     Called by electrons:
     c_bands      :     25.61s CPU     20.78s WALL (      16 calls)
     sum_band     :     26.30s CPU     26.12s WALL (      16 calls)
     v_of_rho     :     10.04s CPU     10.96s WALL (      17 calls)
     newd         :     14.65s CPU     18.98s WALL (      17 calls)
     mix_rho      :      1.06s CPU      1.35s WALL (      16 calls)

     Called by c_bands:
     init_us_2    :      0.24s CPU      0.29s WALL (      33 calls)
     regterg      :     24.41s CPU     19.51s WALL (      16 calls)

     Called by sum_band:
     sum_band:bec :      0.00s CPU      0.00s WALL (      16 calls)
     addusdens    :     21.21s CPU     21.03s WALL (      16 calls)

     Called by *egterg:
     h_psi        :     16.89s CPU     15.32s WALL (      60 calls)
     s_psi        :      2.00s CPU      0.58s WALL (      60 calls)
     g_psi        :      0.11s CPU      0.12s WALL (      43 calls)
     rdiaghg      :      0.71s CPU      0.78s WALL (      59 calls)

     Called by h_psi:
     h_psi:pot    :     16.78s CPU     15.20s WALL (      60 calls)
     h_psi:calbec :      1.07s CPU      0.56s WALL (      60 calls)
     vloc_psi     :     13.67s CPU     14.05s WALL (      60 calls)
     add_vuspsi   :      2.03s CPU      0.59s WALL (      60 calls)

     General routines
     calbec       :      1.60s CPU      0.84s WALL (      80 calls)
     fft          :      7.12s CPU      7.39s WALL (     340 calls)
     ffts         :      0.21s CPU      0.23s WALL (      33 calls)
     fftw         :     13.80s CPU     14.17s WALL (    3654 calls)
     interpolate  :      1.09s CPU      1.26s WALL (      33 calls)
     davcio       :      0.00s CPU      0.00s WALL (       1 calls)


     Environ routines
     calc_eelect  :      0.04s CPU      0.04s WALL (      32 calls)
     calc_velect  :      1.66s CPU      1.85s WALL (      30 calls)
     calc_felect  :      0.13s CPU      0.13s WALL (       1 calls)

     PWSCF        :  1m36.53s CPU     1m38.11s WALL


   This run was terminated on:  11:43:22  13Nov2017            

=------------------------------------------------------------------------------=
   JOB DONE.
=------------------------------------------------------------------------------=

%%%% IONS %%%%%%%%%%%%%%%%%%%%%%%%%%%%%%%%%%%%%%%%%%%%%%%%%%%%%%%%%%%%%%%%%%%%%%
 number of ions             =         10
 ionic center of charge     =      0.3882415     0.3750182     0.2893651
 total ionic charge         =    -90.0000000
 ionic dipole               =      0.0000000     0.0000000     0.0000000
 ionic quadrupole (pc)      =   -730.5101255  -614.6110457  -876.7220256
 ionic quadrupole (gauss)   =   -741.7601255  -625.8610457  -887.9720256
 ion   1 type =  1 coordinates =      5.3350841     4.6467234     8.2964034
 ion   2 type =  2 coordinates =      5.3350096     4.6196233    10.4752278
 ion   3 type =  3 coordinates =      8.0613271     0.0980580     4.3875164
 ion   4 type =  3 coordinates =      2.6089894     0.0980583     4.3875141
 ion   5 type =  3 coordinates =      0.0000366     4.7208463     4.3641304
 ion   6 type =  3 coordinates =      5.3351596     4.7216127     4.7755699
 ion   7 type =  3 coordinates =      0.0000411     7.8029520     0.0000000
 ion   8 type =  3 coordinates =      5.3351612     7.6977491     0.1488629
 ion   9 type =  3 coordinates =      2.6978606     3.1521739     0.0837858
 ion  10 type =  3 coordinates =      7.9724637     3.1521745     0.0837887

%%%% SYSTEM %%%%%%%%%%%%%%%%%%%%%%%%%%%%%%%%%%%%%%%%%%%%%%%%%%%%%%%%%%%%%%%%%%%%
 system is built from all present ionic types
 system defined dimension   =  0 
 system defined axis        =  3 
 system center              =      0.3882415     0.3750182     0.2893651 
 system width               =      1.5145225 

%%%% ELECTRONS %%%%%%%%%%%%%%%%%%%%%%%%%%%%%%%%%%%%%%%%%%%%%%%%%%%%%%%%%%%%%%%%%
 number of electrons        =         89
 total electronic charge    =     89.0000000
 number of spin components  =  1

%%%% ELECTRONS %%%%%%%%%%%%%%%%%%%%%%%%%%%%%%%%%%%%%%%%%%%%%%%%%%%%%%%%%%%%%%%%%
 number of electrons        =         89
 total electronic charge    =     89.0000000
 number of spin components  =  1

%%%% ELECTRONS %%%%%%%%%%%%%%%%%%%%%%%%%%%%%%%%%%%%%%%%%%%%%%%%%%%%%%%%%%%%%%%%%
 number of electrons        =         89
 total electronic charge    =     89.0000000
 number of spin components  =  1

%%%% ELECTRONS %%%%%%%%%%%%%%%%%%%%%%%%%%%%%%%%%%%%%%%%%%%%%%%%%%%%%%%%%%%%%%%%%
 number of electrons        =         89
 total electronic charge    =     89.0000000
 number of spin components  =  1

%%%% ELECTRONS %%%%%%%%%%%%%%%%%%%%%%%%%%%%%%%%%%%%%%%%%%%%%%%%%%%%%%%%%%%%%%%%%
 number of electrons        =         89
 total electronic charge    =     89.0000000
 number of spin components  =  1

%%%% ELECTRONS %%%%%%%%%%%%%%%%%%%%%%%%%%%%%%%%%%%%%%%%%%%%%%%%%%%%%%%%%%%%%%%%%
 number of electrons        =         89
 total electronic charge    =     89.0000000
 number of spin components  =  1

%%%% ELECTRONS %%%%%%%%%%%%%%%%%%%%%%%%%%%%%%%%%%%%%%%%%%%%%%%%%%%%%%%%%%%%%%%%%
 number of electrons        =         89
 total electronic charge    =     89.0000000
 number of spin components  =  1

%%%% ELECTRONS %%%%%%%%%%%%%%%%%%%%%%%%%%%%%%%%%%%%%%%%%%%%%%%%%%%%%%%%%%%%%%%%%
 number of electrons        =         89
 total electronic charge    =     89.0000000
 number of spin components  =  1

%%%% ELECTRONS %%%%%%%%%%%%%%%%%%%%%%%%%%%%%%%%%%%%%%%%%%%%%%%%%%%%%%%%%%%%%%%%%
 number of electrons        =         89
 total electronic charge    =     89.0000000
 number of spin components  =  1

%%%% ELECTRONS %%%%%%%%%%%%%%%%%%%%%%%%%%%%%%%%%%%%%%%%%%%%%%%%%%%%%%%%%%%%%%%%%
 number of electrons        =         89
 total electronic charge    =     89.0000000
 number of spin components  =  1

%%%% ELECTRONS %%%%%%%%%%%%%%%%%%%%%%%%%%%%%%%%%%%%%%%%%%%%%%%%%%%%%%%%%%%%%%%%%
 number of electrons        =         89
 total electronic charge    =     89.0000000
 number of spin components  =  1

%%%% ELECTRONS %%%%%%%%%%%%%%%%%%%%%%%%%%%%%%%%%%%%%%%%%%%%%%%%%%%%%%%%%%%%%%%%%
 number of electrons        =         89
 total electronic charge    =     89.0000000
 number of spin components  =  1

%%%% ELECTRONS %%%%%%%%%%%%%%%%%%%%%%%%%%%%%%%%%%%%%%%%%%%%%%%%%%%%%%%%%%%%%%%%%
 number of electrons        =         89
 total electronic charge    =     89.0000000
 number of spin components  =  1

%%%% ELECTRONS %%%%%%%%%%%%%%%%%%%%%%%%%%%%%%%%%%%%%%%%%%%%%%%%%%%%%%%%%%%%%%%%%
 number of electrons        =         89
 total electronic charge    =     89.0000000
 number of spin components  =  1

%%%% ELECTRONS %%%%%%%%%%%%%%%%%%%%%%%%%%%%%%%%%%%%%%%%%%%%%%%%%%%%%%%%%%%%%%%%%
 number of electrons        =         89
 total electronic charge    =     89.0000000
 number of spin components  =  1

%%%% ELECTRONS %%%%%%%%%%%%%%%%%%%%%%%%%%%%%%%%%%%%%%%%%%%%%%%%%%%%%%%%%%%%%%%%%
 number of electrons        =         89
 total electronic charge    =     89.0000000
 number of spin components  =  1
