
     Program PWSCF v.6.1 (svn rev. 13369) starts on 16Nov2017 at 15:42:28 

     This program is part of the open-source Quantum ESPRESSO suite
     for quantum simulation of materials; please cite
         "P. Giannozzi et al., J. Phys.:Condens. Matter 21 395502 (2009);
          URL http://www.quantum-espresso.org", 
     in publications or presentations arising from this work. More details at
     http://www.quantum-espresso.org/quote

     Serial version
     Reading input from isolated.in

     Current dimensions of program PWSCF are:
     Max number of different atomic species (ntypx) = 10
     Max number of k-points (npk) =  40000
     Max angular momentum in pseudopotentials (lmaxx) =  3
               file C.pbe-rrkjus.UPF: wavefunction(s)  2S 2P renormalized
               file H.pbe-rrkjus.UPF: wavefunction(s)  1S renormalized
               file N.pbe-rrkjus.UPF: wavefunction(s)  2S renormalized
               file O.pbe-rrkjus.UPF: wavefunction(s)  2S renormalized

     gamma-point specific algorithms are used

     G-vector sticks info
     --------------------
     sticks:   dense  smooth     PW     G-vecs:    dense   smooth      PW
     Sum        9549    3809    949               701475   177509   22119



     bravais-lattice index     =            1
     lattice parameter (alat)  =      20.0000  a.u.
     unit-cell volume          =    8000.0000 (a.u.)^3
     number of atoms/cell      =           10
     number of atomic types    =            4
     number of electrons       =        24.00
     number of Kohn-Sham states=           12
     kinetic-energy cutoff     =      30.0000  Ry
     charge density cutoff     =     300.0000  Ry
     convergence threshold     =      5.0E-03
     mixing beta               =       0.7000
     number of iterations used =            8  plain     mixing
     Exchange-correlation      =  SLA  PW   PBE  PBE ( 1  4  3  4 0 0)


     Environ Module
     ==============

     Plese cite
         O. Andreussi, I. Dabo and N. Marzari, J. Chem. Phys. 136, 064102 (2012)         
     in publications or presentations arising from this work.

     compensation onset threshold      =               0.1000E+03 
     static permittivity               =                   100.00 
     epsilon calculation mode          =                     full 

     Electrostatic Setup
     -------------------
     electrostatic problem to solve    = generalized              
     numerical solver adopted          = cg                       
     type of auxiliary density adopted = none                     
     type of core tool for poisson     = fft                      
     type of core tool for s(r) deriv  = analytic                 



     celldm(1)=  20.000000  celldm(2)=   0.000000  celldm(3)=   0.000000
     celldm(4)=   0.000000  celldm(5)=   0.000000  celldm(6)=   0.000000

     crystal axes: (cart. coord. in units of alat)
               a(1) = (   1.000000   0.000000   0.000000 )  
               a(2) = (   0.000000   1.000000   0.000000 )  
               a(3) = (   0.000000   0.000000   1.000000 )  

     reciprocal axes: (cart. coord. in units 2 pi/alat)
               b(1) = (  1.000000  0.000000  0.000000 )  
               b(2) = (  0.000000  1.000000  0.000000 )  
               b(3) = (  0.000000  0.000000  1.000000 )  


     PseudoPot. # 1 for C  read from file:
     /Users/oliviero/PWSCF/espresso-6.1-Environ-1.0/Environ/tests/../..//pseudo/C.pbe-rrkjus.UPF
     MD5 check sum: 00fb224312de0c5b6853bd333518df6f
     Pseudo is Ultrasoft, Zval =  4.0
     Generated by new atomic code, or converted to UPF format
     Using radial grid of  627 points,  4 beta functions with: 
                l(1) =   0
                l(2) =   0
                l(3) =   1
                l(4) =   1
     Q(r) pseudized with 0 coefficients 


     PseudoPot. # 2 for H  read from file:
     /Users/oliviero/PWSCF/espresso-6.1-Environ-1.0/Environ/tests/../..//pseudo/H.pbe-rrkjus.UPF
     MD5 check sum: 7cc9d459525c9a0585f487a71c3c9563
     Pseudo is Ultrasoft, Zval =  1.0
     Generated by new atomic code, or converted to UPF format
     Using radial grid of 1061 points,  2 beta functions with: 
                l(1) =   0
                l(2) =   0
     Q(r) pseudized with 0 coefficients 


     PseudoPot. # 3 for N  read from file:
     /Users/oliviero/PWSCF/espresso-6.1-Environ-1.0/Environ/tests/../..//pseudo/N.pbe-rrkjus.UPF
     MD5 check sum: 0c3fbe5807a93f9ba59d5a7019aa238b
     Pseudo is Ultrasoft, Zval =  5.0
     Generated by new atomic code, or converted to UPF format
     Using radial grid of 1257 points,  4 beta functions with: 
                l(1) =   0
                l(2) =   0
                l(3) =   1
                l(4) =   1
     Q(r) pseudized with 0 coefficients 


     PseudoPot. # 4 for O  read from file:
     /Users/oliviero/PWSCF/espresso-6.1-Environ-1.0/Environ/tests/../..//pseudo/O.pbe-rrkjus.UPF
     MD5 check sum: 390ba29e75625707450f3bd3f0eb6be9
     Pseudo is Ultrasoft, Zval =  6.0
     Generated by new atomic code, or converted to UPF format
     Using radial grid of 1269 points,  4 beta functions with: 
                l(1) =   0
                l(2) =   0
                l(3) =   1
                l(4) =   1
     Q(r) pseudized with 0 coefficients 


     atomic species   valence    mass     pseudopotential
        C              4.00    12.00000     C ( 1.00)
        H              1.00     1.00000     H ( 1.00)
        N              5.00    14.00000     N ( 1.00)
        O              6.00    16.00000     O ( 1.00)

     No symmetry found



   Cartesian axes

     site n.     atom                  positions (alat units)
         1           C   tau(   1) = (   0.0000000   0.0000000   0.0000000  )
         2           C   tau(   2) = (   0.0000000   0.0000000   0.1455089  )
         3           N   tau(   3) = (   0.1170969   0.0000000  -0.0545024  )
         4           H   tau(   4) = (   0.0476617  -0.0825466   0.1792090  )
         5           H   tau(   5) = (  -0.0953183  -0.0000030   0.1792090  )
         6           H   tau(   6) = (   0.0476566   0.0825496   0.1792090  )
         7           O   tau(   7) = (  -0.0984002  -0.0000019  -0.0641310  )
         8           H   tau(   8) = (   0.1263131  -0.0000015  -0.1475548  )
         9           H   tau(   9) = (   0.1944645   0.0000134  -0.0025716  )
        10           H   tau(  10) = (  -0.0770366  -0.0000045  -0.1522861  )

     number of k points=     1
                       cart. coord. in units 2pi/alat
        k(    1) = (   0.0000000   0.0000000   0.0000000), wk =   2.0000000

     Dense  grid:   350738 G-vectors     FFT dimensions: ( 120, 120, 120)

     Smooth grid:    88755 G-vectors     FFT dimensions: (  72,  72,  72)

     Estimated max dynamical RAM per process >     298.98MB

     Initial potential from superposition of free atoms
     Check: negative starting charge=   -0.000452

     starting charge   24.42266, renormalised to   24.00000

     negative rho (up, down):  4.438E-04 0.000E+00
     Starting wfc are   22 randomized atomic wfcs

     total cpu time spent up to now is       11.9 secs

     Self-consistent Calculation

     iteration #  1     ecut=    30.00 Ry     beta=0.70
     Davidson diagonalization with overlap
     ethr =  1.00E-02,  avg # of iterations =  2.0

     negative rho (up, down):  1.277E-04 0.000E+00

     add environment contribution to local potential
     polarization accuracy = 4.5E-06, # of iterations =  14

     total cpu time spent up to now is       21.0 secs

     total energy              =     -80.23412306 Ry
     Harris-Foulkes estimate   =     -83.01879009 Ry
     estimated scf accuracy    <       3.73442311 Ry
     electrostatic embedding   =       0.00490874 Ry
     correction to one-el term =       0.00000000 Ry

     iteration #  2     ecut=    30.00 Ry     beta=0.70
     Davidson diagonalization with overlap
     ethr =  1.00E-02,  avg # of iterations =  4.0

     negative rho (up, down):  6.923E-04 0.000E+00

     add environment contribution to local potential
     polarization accuracy = 6.9E-06, # of iterations =  16

     total cpu time spent up to now is       30.5 secs

     total energy              =     -80.97090752 Ry
     Harris-Foulkes estimate   =     -76.59472006 Ry
     estimated scf accuracy    <       1.54266667 Ry
     electrostatic embedding   =      -0.14655863 Ry
     correction to one-el term =      -5.05579658 Ry

     iteration #  3     ecut=    30.00 Ry     beta=0.70
     Davidson diagonalization with overlap
     ethr =  6.43E-03,  avg # of iterations =  3.0

     negative rho (up, down):  3.252E-04 0.000E+00

     add environment contribution to local potential
     polarization accuracy = 6.5E-06, # of iterations =  17

     total cpu time spent up to now is       40.1 secs

     total energy              =     -81.31275690 Ry
     Harris-Foulkes estimate   =     -77.01936465 Ry
     estimated scf accuracy    <       0.24366902 Ry
     electrostatic embedding   =      -0.11864665 Ry
     correction to one-el term =      -4.30456159 Ry

     iteration #  4     ecut=    30.00 Ry     beta=0.70
     Davidson diagonalization with overlap
     ethr =  1.02E-03,  avg # of iterations =  4.0

     negative rho (up, down):  8.608E-05 0.000E+00

     add environment contribution to local potential
     polarization accuracy = 8.1E-06, # of iterations =  19

     total cpu time spent up to now is       49.8 secs

     total energy              =     -81.36303951 Ry
     Harris-Foulkes estimate   =     -77.22203396 Ry
     estimated scf accuracy    <       0.02087599 Ry
     electrostatic embedding   =      -0.10564300 Ry
     correction to one-el term =      -4.04597222 Ry

     iteration #  5     ecut=    30.00 Ry     beta=0.70
     Davidson diagonalization with overlap
     ethr =  8.70E-05,  avg # of iterations =  4.0

     negative rho (up, down):  2.757E-04 0.000E+00

     total cpu time spent up to now is       54.5 secs

     End of self-consistent calculation

          k = 0.0000 0.0000 0.0000 ( 11060 PWs)   bands (ev):

   -28.9438 -23.2058 -18.6906 -16.0199 -14.7250 -13.4509 -11.7127 -10.9709
    -9.6166  -9.6005  -9.3630  -7.4457

     highest occupied level (ev):    -7.4457

!    total energy              =     -81.36771897 Ry
     Harris-Foulkes estimate   =     -77.45626739 Ry
     estimated scf accuracy    <       0.00248645 Ry

     The total energy is the sum of the following terms:

     one-electron contribution =    -241.95275584 Ry
     hartree contribution      =     123.13535822 Ry
     xc contribution           =     -22.94485265 Ry
     ewald contribution        =      64.30784006 Ry
     electrostatic embedding   =      -0.10548431 Ry
     correction to one-el term =      -3.80782445 Ry

     convergence has been achieved in   5 iterations
 WARNING: Unphysical forces due to core electrons are non-negligible 
 atom type   4 is subject to a spurious force of     0.000011 
 WARNING: Unphysical forces due to core electrons are non-negligible 
 atom type   6 is subject to a spurious force of     0.000011 
 WARNING: Unphysical forces due to core electrons are non-negligible 
 atom type   8 is subject to a spurious force of     0.000356 
 WARNING: Unphysical forces due to core electrons are non-negligible 
 atom type   9 is subject to a spurious force of     0.000396 
 WARNING: Unphysical forces due to core electrons are non-negligible 
 atom type  10 is subject to a spurious force of     0.002427 

     Forces acting on atoms (cartesian axes, Ry/au):

     atom    1 type  1   force =     0.21856898    0.00001090    0.09992862
     atom    2 type  1   force =    -0.03318294   -0.00000544   -0.08098152
     atom    3 type  3   force =    -0.13999904   -0.00000202    0.04611985
     atom    4 type  2   force =     0.01759830   -0.02833745    0.00853309
     atom    5 type  2   force =    -0.03270438   -0.00000150    0.01188144
     atom    6 type  2   force =     0.01760144    0.02834493    0.00853426
     atom    7 type  4   force =    -0.08249550   -0.00003260   -0.00891809
     atom    8 type  2   force =     0.00507508    0.00000695   -0.04898576
     atom    9 type  2   force =     0.03810129    0.00001104    0.03892735
     atom   10 type  2   force =    -0.00856324    0.00000519   -0.07503924

     Total force =     0.329709     Total SCF correction =     0.120841
     SCF correction compared to forces is large: reduce conv_thr to get better values

     Writing output data file pwscf.save

     init_run     :     10.89s CPU     11.71s WALL (       1 calls)
     electrons    :     38.48s CPU     42.71s WALL (       1 calls)
     forces       :      5.64s CPU      6.18s WALL (       1 calls)

     Called by init_run:
     wfcinit      :      0.21s CPU      0.21s WALL (       1 calls)
     potinit      :      1.82s CPU      2.02s WALL (       1 calls)

     Called by electrons:
     c_bands      :      1.99s CPU      1.87s WALL (       5 calls)
     sum_band     :      6.49s CPU      6.61s WALL (       5 calls)
     v_of_rho     :      7.11s CPU      7.69s WALL (       6 calls)
     newd         :      3.53s CPU      5.19s WALL (       6 calls)
     mix_rho      :      0.57s CPU      0.66s WALL (       5 calls)

     Called by c_bands:
     init_us_2    :      0.07s CPU      0.10s WALL (      11 calls)
     regterg      :      1.90s CPU      1.76s WALL (       5 calls)

     Called by sum_band:
     sum_band:bec :      0.00s CPU      0.00s WALL (       5 calls)
     addusdens    :      5.20s CPU      5.28s WALL (       5 calls)

     Called by *egterg:
     h_psi        :      1.72s CPU      1.67s WALL (      23 calls)
     s_psi        :      0.11s CPU      0.03s WALL (      23 calls)
     g_psi        :      0.01s CPU      0.01s WALL (      17 calls)
     rdiaghg      :      0.01s CPU      0.01s WALL (      22 calls)

     Called by h_psi:
     h_psi:pot    :      1.71s CPU      1.66s WALL (      23 calls)
     h_psi:calbec :      0.05s CPU      0.05s WALL (      23 calls)
     vloc_psi     :      1.54s CPU      1.57s WALL (      23 calls)
     add_vuspsi   :      0.12s CPU      0.04s WALL (      23 calls)

     General routines
     calbec       :      0.08s CPU      0.08s WALL (      32 calls)
     fft          :     16.42s CPU     16.64s WALL (     307 calls)
     ffts         :      0.10s CPU      0.10s WALL (      11 calls)
     fftw         :      1.39s CPU      1.41s WALL (     244 calls)
     interpolate  :      0.81s CPU      0.90s WALL (      11 calls)
     davcio       :      0.00s CPU      0.00s WALL (       1 calls)


     Environ routines
     calc_eelect  :      0.02s CPU      0.02s WALL (      10 calls)
     calc_velect  :     12.77s CPU     14.41s WALL (       8 calls)
     dielectric   :      0.46s CPU      0.58s WALL (       7 calls)
     calc_felect  :      0.24s CPU      0.26s WALL (       1 calls)

     PWSCF        :  0m55.30s CPU     1m 1.16s WALL


   This run was terminated on:  15:43:29  16Nov2017            

=------------------------------------------------------------------------------=
   JOB DONE.
=------------------------------------------------------------------------------=

%%%% IONS %%%%%%%%%%%%%%%%%%%%%%%%%%%%%%%%%%%%%%%%%%%%%%%%%%%%%%%%%%%%%%%%%%%%%%
 number of ions             =         10
 ionic center of charge     =      0.0095530    -0.0000002     0.0063981
 total ionic charge         =    -25.0000000
 ionic dipole               =      0.0000000     0.0000000     0.0000000
 ionic quadrupole (pc)      =    -79.0828058    -5.4513517  -105.8059629
 ionic quadrupole (gauss)   =    -82.2078058    -8.5763517  -108.9309629
 ion   1 type =  1 coordinates =      0.0000000     0.0000000     0.0000000
 ion   2 type =  1 coordinates =      0.0000000     0.0000000     2.9101782
 ion   3 type =  3 coordinates =      2.3419379     0.0000000    -1.0900479
 ion   4 type =  2 coordinates =      0.9532347    -1.6509323     3.5841800
 ion   5 type =  2 coordinates =     -1.9063663    -0.0000596     3.5841809
 ion   6 type =  2 coordinates =      0.9531315     1.6509919     3.5841800
 ion   7 type =  4 coordinates =     -1.9680045    -0.0000375    -1.2826193
 ion   8 type =  2 coordinates =      2.5262613    -0.0000303    -2.9510950
 ion   9 type =  2 coordinates =      3.8892907     0.0002681    -0.0514326
 ion  10 type =  2 coordinates =     -1.5407317    -0.0000890    -3.0457220

%%%% SYSTEM %%%%%%%%%%%%%%%%%%%%%%%%%%%%%%%%%%%%%%%%%%%%%%%%%%%%%%%%%%%%%%%%%%%%
 system is built from all present ionic types
 system defined dimension   =  0 
 system defined axis        =  3 
 system center              =      0.0095530    -0.0000002     0.0063981 
 system width               =      0.5223840 

%%%% ELECTRONS %%%%%%%%%%%%%%%%%%%%%%%%%%%%%%%%%%%%%%%%%%%%%%%%%%%%%%%%%%%%%%%%%
 number of electrons        =         24
 total electronic charge    =     24.0000000
 number of spin components  =  1

%%%% BOUNDARY %%%%%%%%%%%%%%%%%%%%%%%%%%%%%%%%%%%%%%%%%%%%%%%%%%%%%%%%%%%%%%%%%%
 boundary mode              = full                 
 boundary is built as a function of a smooth density
 function type              =  2 
 using the modified SCCS function with parameters 
 rhomax                     =      0.0050000 
 rhomin                     =      0.0001000 
 volume of the QM region    =    989.6664417 
 surface of the QM region   =    490.3840558 

%%%% DIELECTRIC %%%%%%%%%%%%%%%%%%%%%%%%%%%%%%%%%%%%%%%%%%%%%%%%%%%%%%%%%%%%%%%%%
 dielectric build on homogeneous background
 environment bulk permitt.  =    100.0000000 
 dielectric flags
 need gradient              =  F 
 need factor depend. sqrt   =  T 
 total dielectric charge    =      0.0000000

%%%% COMPUTE ELECTROSTATIC POTENTIAL %%%%%%%%%%%%%%%%%%%%%%%%%%%%%%%%%%%%%%%%%%%
 Iteration #          1
  pAp =    91.884906844479715       rzold =    89.103647136005605       alpha =   0.96973104937482768     
 delta_qm =   0.139321E-01 delta_en =   0.335410E+03 tol =   0.100000E-04
 Iteration #          2
  pAp =    127.78229843775358       rzold =    16.966472050963873       alpha =   0.13277638811003800     
 delta_qm =   0.285950E-02 delta_en =   0.141294E+02 tol =   0.100000E-04
 Iteration #          3
  pAp =   0.80983160690762812       rzold =   0.17520789557260449       alpha =   0.21635102171628287     
 delta_qm =   0.148915E-02 delta_en =   0.383198E+01 tol =   0.100000E-04
 Iteration #          4
  pAp =   0.10770646107170113       rzold =    2.3921613539090735E-002  alpha =   0.22210007924376893     
 delta_qm =   0.108793E-02 delta_en =   0.204524E+01 tol =   0.100000E-04
 Iteration #          5
  pAp =    1.0490194171546551E-002  rzold =    3.9658057145962565E-003  alpha =   0.37804883777585835     
 delta_qm =   0.567065E-03 delta_en =   0.555661E+00 tol =   0.100000E-04
 Iteration #          6
  pAp =    3.2541579520204448E-003  rzold =    1.2587883432449080E-003  alpha =   0.38682459849969797     
 delta_qm =   0.271790E-03 delta_en =   0.127647E+00 tol =   0.100000E-04
 Iteration #          7
  pAp =    5.2346973124388048E-004  rzold =    2.0979309900612885E-004  alpha =   0.40077407820240873     
 delta_qm =   0.159581E-03 delta_en =   0.440051E-01 tol =   0.100000E-04
 Iteration #          8
  pAp =    4.0019435475681625E-004  rzold =    1.2154116451303362E-004  alpha =   0.30370534483648531     
 delta_qm =   0.940940E-04 delta_en =   0.152992E-01 tol =   0.100000E-04
 Iteration #          9
  pAp =    1.2711169178931562E-004  rzold =    5.2640953014620735E-005  alpha =   0.41413147975303299     
 delta_qm =   0.406574E-04 delta_en =   0.285643E-02 tol =   0.100000E-04
 Iteration #         10
  pAp =    2.8287661264555037E-005  rzold =    1.1817699020173217E-005  alpha =   0.41776868400856498     
 delta_qm =   0.207941E-04 delta_en =   0.747181E-03 tol =   0.100000E-04
 Iteration #         11
  pAp =    2.0321226920478240E-006  rzold =    1.1212836165688947E-006  alpha =   0.55177948701460899     
 delta_qm =   0.112669E-04 delta_en =   0.219359E-03 tol =   0.100000E-04
 Iteration #         12
  pAp =    4.0367243761436582E-007  rzold =    2.6382819799209621E-007  alpha =   0.65357000728430992     
 delta_qm =   0.507761E-05 delta_en =   0.445515E-04 tol =   0.100000E-04
 Iteration #         13
  pAp =    2.8753729760119019E-007  rzold =    1.1701078128548710E-007  alpha =   0.40694122905675789     
 delta_qm =   0.268245E-05 delta_en =   0.124339E-04 tol =   0.100000E-04
 Iteration #         14
  pAp =    1.2318185189921485E-007  rzold =    4.1399757185440803E-008  alpha =   0.33608649770351995     
 delta_qm =   0.161846E-05 delta_en =   0.452635E-05 tol =   0.100000E-04
 Charges are converged, EXIT

%%%% ELECTRONS %%%%%%%%%%%%%%%%%%%%%%%%%%%%%%%%%%%%%%%%%%%%%%%%%%%%%%%%%%%%%%%%%
 number of electrons        =         24
 total electronic charge    =     24.0000000
 number of spin components  =  1

%%%% BOUNDARY %%%%%%%%%%%%%%%%%%%%%%%%%%%%%%%%%%%%%%%%%%%%%%%%%%%%%%%%%%%%%%%%%%
 boundary mode              = full                 
 boundary is built as a function of a smooth density
 function type              =  2 
 using the modified SCCS function with parameters 
 rhomax                     =      0.0050000 
 rhomin                     =      0.0001000 
 volume of the QM region    =    837.7874593 
 surface of the QM region   =    449.0552205 

%%%% DIELECTRIC %%%%%%%%%%%%%%%%%%%%%%%%%%%%%%%%%%%%%%%%%%%%%%%%%%%%%%%%%%%%%%%%%
 dielectric build on homogeneous background
 environment bulk permitt.  =    100.0000000 
 dielectric flags
 need gradient              =  F 
 need factor depend. sqrt   =  T 
 total dielectric charge    =     -0.0007396

%%%% COMPUTE ELECTROSTATIC POTENTIAL %%%%%%%%%%%%%%%%%%%%%%%%%%%%%%%%%%%%%%%%%%%
 Warning: bad guess with residual norm =   0.684132E+03, reset to no guess
 Iteration #          1
  pAp =    95.317088845947495       rzold =    92.713830219390687       alpha =   0.97268843752913792     
 delta_qm =   0.194478E-01 delta_en =   0.653557E+03 tol =   0.100000E-04
 Iteration #          2
  pAp =    161.05985387084320       rzold =    18.695099219870155       alpha =   0.11607547610754752     
 delta_qm =   0.400928E-02 delta_en =   0.277765E+02 tol =   0.100000E-04
 Iteration #          3
  pAp =    1.0558853963553547       rzold =   0.18544042420425430       alpha =   0.17562552228143985     
 delta_qm =   0.223551E-02 delta_en =   0.863567E+01 tol =   0.100000E-04
 Iteration #          4
  pAp =   0.11652038581601255       rzold =    2.2956345934224409E-002  alpha =   0.19701570479240282     
 delta_qm =   0.169510E-02 delta_en =   0.496517E+01 tol =   0.100000E-04
 Iteration #          5
  pAp =    1.1717429070021304E-002  rzold =    4.6330212997712245E-003  alpha =   0.39539571966555975     
 delta_qm =   0.917067E-03 delta_en =   0.145327E+01 tol =   0.100000E-04
 Iteration #          6
  pAp =    5.2655653467425061E-003  rzold =    1.8372296903771919E-003  alpha =   0.34891404234756623     
 delta_qm =   0.505092E-03 delta_en =   0.440844E+00 tol =   0.100000E-04
 Iteration #          7
  pAp =    9.1295247194059410E-004  rzold =    4.3179739972400686E-004  alpha =   0.47296810403083500     
 delta_qm =   0.298237E-03 delta_en =   0.153698E+00 tol =   0.100000E-04
 Iteration #          8
  pAp =    7.3590435685580262E-004  rzold =    2.7191406166433900E-004  alpha =   0.36949646938646868     
 delta_qm =   0.164371E-03 delta_en =   0.466871E-01 tol =   0.100000E-04
 Iteration #          9
  pAp =    8.0790995728689742E-004  rzold =    2.0192340591602842E-004  alpha =   0.24993305763196982     
 delta_qm =   0.814486E-04 delta_en =   0.114633E-01 tol =   0.100000E-04
 Iteration #         10
  pAp =    1.3214027358327701E-004  rzold =    4.7038525426595427E-005  alpha =   0.35597417918883723     
 delta_qm =   0.410303E-04 delta_en =   0.290907E-02 tol =   0.100000E-04
 Iteration #         11
  pAp =    7.9861581450301992E-006  rzold =    3.6540358214853426E-006  alpha =   0.45754613859722471     
 delta_qm =   0.240672E-04 delta_en =   0.100091E-02 tol =   0.100000E-04
 Iteration #         12
  pAp =    2.1951040596339567E-006  rzold =    9.6259342894029677E-007  alpha =   0.43851835848766707     
 delta_qm =   0.160446E-04 delta_en =   0.444838E-03 tol =   0.100000E-04
 Iteration #         13
  pAp =    8.7288207596502297E-007  rzold =    4.4532841541352445E-007  alpha =   0.51018164729890625     
 delta_qm =   0.922714E-05 delta_en =   0.147122E-03 tol =   0.100000E-04
 Iteration #         14
  pAp =    5.6600842043586517E-007  rzold =    2.1597619540660334E-007  alpha =   0.38157770734274044     
 delta_qm =   0.616745E-05 delta_en =   0.657287E-04 tol =   0.100000E-04
 Iteration #         15
  pAp =    2.1878646486804069E-007  rzold =    8.1881177039591985E-008  alpha =   0.37425156574003771     
 delta_qm =   0.373249E-05 delta_en =   0.240736E-04 tol =   0.100000E-04
 Iteration #         16
  pAp =    8.2865642551180784E-008  rzold =    3.0153828486006360E-008  alpha =   0.36388818764522673     
 delta_qm =   0.199114E-05 delta_en =   0.685086E-05 tol =   0.100000E-04
 Charges are converged, EXIT

%%%% ELECTRONS %%%%%%%%%%%%%%%%%%%%%%%%%%%%%%%%%%%%%%%%%%%%%%%%%%%%%%%%%%%%%%%%%
 number of electrons        =         24
 total electronic charge    =     24.0000000
 number of spin components  =  1

%%%% BOUNDARY %%%%%%%%%%%%%%%%%%%%%%%%%%%%%%%%%%%%%%%%%%%%%%%%%%%%%%%%%%%%%%%%%%
 boundary mode              = full                 
 boundary is built as a function of a smooth density
 function type              =  2 
 using the modified SCCS function with parameters 
 rhomax                     =      0.0050000 
 rhomin                     =      0.0001000 
 volume of the QM region    =    757.3762599 
 surface of the QM region   =    424.3027750 

%%%% DIELECTRIC %%%%%%%%%%%%%%%%%%%%%%%%%%%%%%%%%%%%%%%%%%%%%%%%%%%%%%%%%%%%%%%%%
 dielectric build on homogeneous background
 environment bulk permitt.  =    100.0000000 
 dielectric flags
 need gradient              =  F 
 need factor depend. sqrt   =  T 
 total dielectric charge    =      0.0000064

%%%% COMPUTE ELECTROSTATIC POTENTIAL %%%%%%%%%%%%%%%%%%%%%%%%%%%%%%%%%%%%%%%%%%%
 Warning: bad guess with residual norm =   0.846584E+03, reset to no guess
 Iteration #          1
  pAp =    95.828176465201707       rzold =    93.377399451506719       alpha =   0.97442529844460779     
 delta_qm =   0.216424E-01 delta_en =   0.809380E+03 tol =   0.100000E-04
 Iteration #          2
  pAp =    201.85659968983856       rzold =    20.460834160328538       alpha =   0.10136321622264270     
 delta_qm =   0.418441E-02 delta_en =   0.302561E+02 tol =   0.100000E-04
 Iteration #          3
  pAp =    1.1395129323381055       rzold =   0.20883355167209394       alpha =   0.18326562669508242     
 delta_qm =   0.208117E-02 delta_en =   0.748443E+01 tol =   0.100000E-04
 Iteration #          4
  pAp =   0.10738859956099928       rzold =    1.9559784466955468E-002  alpha =   0.18214023226781206     
 delta_qm =   0.166551E-02 delta_en =   0.479335E+01 tol =   0.100000E-04
 Iteration #          5
  pAp =    1.8726495420479404E-002  rzold =    5.4925290881798179E-003  alpha =   0.29330256221744277     
 delta_qm =   0.104407E-02 delta_en =   0.188366E+01 tol =   0.100000E-04
 Iteration #          6
  pAp =    7.0572860154787696E-003  rzold =    2.3755867962548835E-003  alpha =   0.33661478237448517     
 delta_qm =   0.596796E-03 delta_en =   0.615453E+00 tol =   0.100000E-04
 Iteration #          7
  pAp =    1.6294237717347799E-003  rzold =    6.9406487236999069E-004  alpha =   0.42595725213401581     
 delta_qm =   0.375308E-03 delta_en =   0.243399E+00 tol =   0.100000E-04
 Iteration #          8
  pAp =    8.1051541095083384E-004  rzold =    3.7632158730224903E-004  alpha =   0.46429911414118297     
 delta_qm =   0.202951E-03 delta_en =   0.711745E-01 tol =   0.100000E-04
 Iteration #          9
  pAp =    1.2653430691219201E-003  rzold =    3.0751423677585716E-004  alpha =   0.24302834881709626     
 delta_qm =   0.134328E-03 delta_en =   0.311802E-01 tol =   0.100000E-04
 Iteration #         10
  pAp =    5.8446574256963430E-004  rzold =    1.5679028532170845E-004  alpha =   0.26826257537759479     
 delta_qm =   0.625949E-04 delta_en =   0.677052E-02 tol =   0.100000E-04
 Iteration #         11
  pAp =    4.5531322383772240E-005  rzold =    1.5890405841522842E-005  alpha =   0.34899943620320417     
 delta_qm =   0.378103E-04 delta_en =   0.247038E-02 tol =   0.100000E-04
 Iteration #         12
  pAp =    1.4567834968855236E-005  rzold =    4.1468190028569728E-006  alpha =   0.28465581959999625     
 delta_qm =   0.262930E-04 delta_en =   0.119460E-02 tol =   0.100000E-04
 Iteration #         13
  pAp =    2.2125990233156919E-006  rzold =    1.0247708644488018E-006  alpha =   0.46315254307268500     
 delta_qm =   0.160216E-04 delta_en =   0.443565E-03 tol =   0.100000E-04
 Iteration #         14
  pAp =    1.2494165441770046E-006  rzold =    5.3621269448634412E-007  alpha =   0.42917047720025947     
 delta_qm =   0.109478E-04 delta_en =   0.207109E-03 tol =   0.100000E-04
 Iteration #         15
  pAp =    4.4085668898698158E-007  rzold =    2.0887611400372219E-007  alpha =   0.47379595052461654     
 delta_qm =   0.629640E-05 delta_en =   0.685061E-04 tol =   0.100000E-04
 Iteration #         16
  pAp =    1.8542732567826917E-007  rzold =    8.4417467295932964E-008  alpha =   0.45525904548935703     
 delta_qm =   0.357810E-05 delta_en =   0.221232E-04 tol =   0.100000E-04
 Iteration #         17
  pAp =    5.3846272076938886E-008  rzold =    2.5073705386190142E-008  alpha =   0.46565350615848167     
 delta_qm =   0.194284E-05 delta_en =   0.652257E-05 tol =   0.100000E-04
 Charges are converged, EXIT

%%%% ELECTRONS %%%%%%%%%%%%%%%%%%%%%%%%%%%%%%%%%%%%%%%%%%%%%%%%%%%%%%%%%%%%%%%%%
 number of electrons        =         24
 total electronic charge    =     24.0000000
 number of spin components  =  1

%%%% BOUNDARY %%%%%%%%%%%%%%%%%%%%%%%%%%%%%%%%%%%%%%%%%%%%%%%%%%%%%%%%%%%%%%%%%%
 boundary mode              = full                 
 boundary is built as a function of a smooth density
 function type              =  2 
 using the modified SCCS function with parameters 
 rhomax                     =      0.0050000 
 rhomin                     =      0.0001000 
 volume of the QM region    =    717.2125453 
 surface of the QM region   =    412.5078222 

%%%% DIELECTRIC %%%%%%%%%%%%%%%%%%%%%%%%%%%%%%%%%%%%%%%%%%%%%%%%%%%%%%%%%%%%%%%%%
 dielectric build on homogeneous background
 environment bulk permitt.  =    100.0000000 
 dielectric flags
 need gradient              =  F 
 need factor depend. sqrt   =  T 
 total dielectric charge    =     -0.0000718

%%%% COMPUTE ELECTROSTATIC POTENTIAL %%%%%%%%%%%%%%%%%%%%%%%%%%%%%%%%%%%%%%%%%%%
 Warning: bad guess with residual norm =   0.127847E+04, reset to no guess
 Iteration #          1
  pAp =    95.743449618482842       rzold =    93.265103087518668       alpha =   0.97411471447039089     
 delta_qm =   0.265579E-01 delta_en =   0.121880E+04 tol =   0.100000E-04
 Iteration #          2
  pAp =    239.86807082908146       rzold =    22.473229287632083       alpha =    9.3689957191699078E-002
 delta_qm =   0.501673E-02 delta_en =   0.434896E+02 tol =   0.100000E-04
 Iteration #          3
  pAp =    1.6381797991199207       rzold =   0.27514137826501783       alpha =   0.16795554334929050     
 delta_qm =   0.241215E-02 delta_en =   0.100544E+02 tol =   0.100000E-04
 Iteration #          4
  pAp =   0.13959233080604008       rzold =    2.3734276687411140E-002  alpha =   0.17002564933448458     
 delta_qm =   0.195380E-02 delta_en =   0.659636E+01 tol =   0.100000E-04
 Iteration #          5
  pAp =    2.5144779907077336E-002  rzold =    6.4703583063410236E-003  alpha =   0.25732411777920772     
 delta_qm =   0.129559E-02 delta_en =   0.290055E+01 tol =   0.100000E-04
 Iteration #          6
  pAp =    8.4541328679160407E-003  rzold =    2.7293487714368267E-003  alpha =   0.32284195364315538     
 delta_qm =   0.778599E-03 delta_en =   0.104754E+01 tol =   0.100000E-04
 Iteration #          7
  pAp =    2.3961962640388977E-003  rzold =    8.9935823343567927E-004  alpha =   0.37532744998098366     
 delta_qm =   0.523889E-03 delta_en =   0.474266E+00 tol =   0.100000E-04
 Iteration #          8
  pAp =    1.3285812980734727E-003  rzold =    4.8500366146113583E-004  alpha =   0.36505380751966171     
 delta_qm =   0.328609E-03 delta_en =   0.186597E+00 tol =   0.100000E-04
 Iteration #          9
  pAp =    2.0757618577636086E-003  rzold =    5.2437374563713978E-004  alpha =   0.25261748773151238     
 delta_qm =   0.225544E-03 delta_en =   0.879034E-01 tol =   0.100000E-04
 Iteration #         10
  pAp =    7.6014024703286137E-004  rzold =    2.6092911542004643E-004  alpha =   0.34326443894868031     
 delta_qm =   0.103003E-03 delta_en =   0.183336E-01 tol =   0.100000E-04
 Iteration #         11
  pAp =    1.2072107958815823E-004  rzold =    4.0228553553549619E-005  alpha =   0.33323553509287634     
 delta_qm =   0.657478E-04 delta_en =   0.746975E-02 tol =   0.100000E-04
 Iteration #         12
  pAp =    3.9273957063103514E-005  rzold =    1.0541128596887863E-005  alpha =   0.26839996234529873     
 delta_qm =   0.475290E-04 delta_en =   0.390357E-02 tol =   0.100000E-04
 Iteration #         13
  pAp =    6.0948684588374941E-006  rzold =    2.5316506384252933E-006  alpha =   0.41537412259561185     
 delta_qm =   0.309526E-04 delta_en =   0.165553E-02 tol =   0.100000E-04
 Iteration #         14
  pAp =    3.5092523108668574E-006  rzold =    1.4436269045453382E-006  alpha =   0.41137734670002474     
 delta_qm =   0.214938E-04 delta_en =   0.798307E-03 tol =   0.100000E-04
 Iteration #         15
  pAp =    1.3533576001965226E-006  rzold =    6.1682404241493903E-007  alpha =   0.45577313957919863     
 delta_qm =   0.121507E-04 delta_en =   0.255123E-03 tol =   0.100000E-04
 Iteration #         16
  pAp =    6.3022127494332535E-007  rzold =    2.6823035943169261E-007  alpha =   0.42561298720963375     
 delta_qm =   0.744290E-05 delta_en =   0.957255E-04 tol =   0.100000E-04
 Iteration #         17
  pAp =    2.0644824894527712E-007  rzold =    8.5049585993932085E-008  alpha =   0.41196564479690034     
 delta_qm =   0.438620E-05 delta_en =   0.332446E-04 tol =   0.100000E-04
 Iteration #         18
  pAp =    2.2228605072847298E-007  rzold =    4.8254114448158468E-008  alpha =   0.21708116316800224     
 delta_qm =   0.314939E-05 delta_en =   0.171395E-04 tol =   0.100000E-04
 Iteration #         19
  pAp =    2.9956118529140719E-008  rzold =    1.3551835225344988E-008  alpha =   0.45238955815193582     
 delta_qm =   0.217149E-05 delta_en =   0.814816E-05 tol =   0.100000E-04
 Charges are converged, EXIT

%%%% ELECTRONS %%%%%%%%%%%%%%%%%%%%%%%%%%%%%%%%%%%%%%%%%%%%%%%%%%%%%%%%%%%%%%%%%
 number of electrons        =         24
 total electronic charge    =     24.0000000
 number of spin components  =  1

%%%% BOUNDARY %%%%%%%%%%%%%%%%%%%%%%%%%%%%%%%%%%%%%%%%%%%%%%%%%%%%%%%%%%%%%%%%%%
 boundary mode              = full                 
 boundary is built as a function of a smooth density
 function type              =  2 
 using the modified SCCS function with parameters 
 rhomax                     =      0.0050000 
 rhomin                     =      0.0001000 
 volume of the QM region    =    717.2125453 
 surface of the QM region   =    412.5078222 

%%%% DIELECTRIC %%%%%%%%%%%%%%%%%%%%%%%%%%%%%%%%%%%%%%%%%%%%%%%%%%%%%%%%%%%%%%%%%
 dielectric build on homogeneous background
 environment bulk permitt.  =    100.0000000 
 dielectric flags
 need gradient              =  F 
 need factor depend. sqrt   =  T 
 total dielectric charge    =     -0.0005165
