
     Program PWSCF v.6.1 (svn rev. 13369) starts on  1Feb2018 at 12:28:20 

     This program is part of the open-source Quantum ESPRESSO suite
     for quantum simulation of materials; please cite
         "P. Giannozzi et al., J. Phys.:Condens. Matter 21 395502 (2009);
          URL http://www.quantum-espresso.org", 
     in publications or presentations arising from this work. More details at
     http://www.quantum-espresso.org/quote

     Parallel version (MPI), running on     1 processors
     Reading input from slab.in

     Current dimensions of program PWSCF are:
     Max number of different atomic species (ntypx) = 10
     Max number of k-points (npk) =  40000
     Max angular momentum in pseudopotentials (lmaxx) =  3
               file C.pbe-rrkjus.UPF: wavefunction(s)  2S 2P renormalized
               file O.pbe-rrkjus.UPF: wavefunction(s)  2S renormalized

     gamma-point specific algorithms are used

     Subspace diagonalization in iterative solution of the eigenvalue problem:
     a serial algorithm will be used

 
     G-vector sticks info
     --------------------
     sticks:   dense  smooth     PW     G-vecs:    dense   smooth      PW
     Sum        2357    1099    269               366833   116965   14571
 


     bravais-lattice index     =            8
     lattice parameter (alat)  =      10.6881  a.u.
     unit-cell volume          =    4181.1215 (a.u.)^3
     number of atoms/cell      =           10
     number of atomic types    =            3
     number of electrons       =        89.00
     number of Kohn-Sham states=           80
     kinetic-energy cutoff     =      35.0000  Ry
     charge density cutoff     =     300.0000  Ry
     convergence threshold     =      5.0E-03
     mixing beta               =       0.7000
     number of iterations used =            8  plain     mixing
     Exchange-correlation      = PBE ( 1  4  3  4 0 0)
 

     Environ Module
     ==============

     Plese cite
         O. Andreussi, I. Dabo and N. Marzari, J. Chem. Phys. 136, 064102 (2012)         
     in publications or presentations arising from this work.

     compensation onset threshold      =               0.1000E+03 
     static permittivity               =                   100.00 
     epsilon calculation mode          =                     full 

     Electrostatic Setup
     -------------------
     electrostatic problem to solve    = generalized              
     numerical solver adopted          = cg                       
     type of auxiliary density adopted = none                     
     type of core tool for poisson     = fft                      
     type of core tool for s(r) deriv  = analytic                 



     celldm(1)=  10.688100  celldm(2)=   0.866025  celldm(3)=   3.954220
     celldm(4)=   0.000000  celldm(5)=   0.000000  celldm(6)=   0.000000

     crystal axes: (cart. coord. in units of alat)
               a(1) = (   1.000000   0.000000   0.000000 )  
               a(2) = (   0.000000   0.866025   0.000000 )  
               a(3) = (   0.000000   0.000000   3.954220 )  

     reciprocal axes: (cart. coord. in units 2 pi/alat)
               b(1) = (  1.000000  0.000000  0.000000 )  
               b(2) = (  0.000000  1.154701  0.000000 )  
               b(3) = (  0.000000  0.000000  0.252894 )  


     PseudoPot. # 1 for C  read from file:
     /home/fnattino/Programs/qe-6.1/Environ/tests/../..//pseudo/C.pbe-rrkjus.UPF
     MD5 check sum: 00fb224312de0c5b6853bd333518df6f
     Pseudo is Ultrasoft, Zval =  4.0
     Generated by new atomic code, or converted to UPF format
     Using radial grid of  627 points,  4 beta functions with: 
                l(1) =   0
                l(2) =   0
                l(3) =   1
                l(4) =   1
     Q(r) pseudized with 0 coefficients 


     PseudoPot. # 2 for O  read from file:
     /home/fnattino/Programs/qe-6.1/Environ/tests/../..//pseudo/O.pbe-rrkjus.UPF
     MD5 check sum: 390ba29e75625707450f3bd3f0eb6be9
     Pseudo is Ultrasoft, Zval =  6.0
     Generated by new atomic code, or converted to UPF format
     Using radial grid of 1269 points,  4 beta functions with: 
                l(1) =   0
                l(2) =   0
                l(3) =   1
                l(4) =   1
     Q(r) pseudized with 0 coefficients 


     PseudoPot. # 3 for Pt read from file:
     /home/fnattino/Programs/qe-6.1/Environ/tests/../..//pseudo/Pt.pbe-n-rrkjus_psl.0.1.UPF
     MD5 check sum: df5be8f5ed4f66d4aed38ca70ec8d507
     Pseudo is Ultrasoft + core correction, Zval = 10.0
     Generated using "atomic" code by A. Dal Corso  v.5.0.2 svn rev. 9415
     Using radial grid of 1277 points,  6 beta functions with: 
                l(1) =   0
                l(2) =   0
                l(3) =   1
                l(4) =   1
                l(5) =   2
                l(6) =   2
     Q(r) pseudized with 0 coefficients 


     atomic species   valence    mass     pseudopotential
        C              4.00     1.00000     C ( 1.00)
        O              6.00     1.00000     O ( 1.00)
        Pt            10.00     1.00000     Pt( 1.00)

     No symmetry found



   Cartesian axes

     site n.     atom                  positions (alat units)
         1           C   tau(   1) = (   0.4991611   0.4347567   0.7762281  )
         2           O   tau(   2) = (   0.4991542   0.4322212   0.9800832  )
         3           Pt  tau(   3) = (   0.7542339   0.0091745   0.4105048  )
         4           Pt  tau(   4) = (   0.2441023   0.0091745   0.4105046  )
         5           Pt  tau(   5) = (   0.0000034   0.4416918   0.4083168  )
         6           Pt  tau(   6) = (   0.4991682   0.4417635   0.4468119  )
         7           Pt  tau(   7) = (   0.0000038   0.7300598   0.0000000  )
         8           Pt  tau(   8) = (   0.4991683   0.7202168   0.0139279  )
         9           Pt  tau(   9) = (   0.2524172   0.2949237   0.0078392  )
        10           Pt  tau(  10) = (   0.7459196   0.2949237   0.0078394  )

     number of k points=     1  Marzari-Vanderbilt smearing, width (Ry)=  0.0300
                       cart. coord. in units 2pi/alat
        k(    1) = (   0.0000000   0.0000000   0.0000000), wk =   2.0000000

     Dense  grid:   183417 G-vectors     FFT dimensions: (  60,  54, 240)

     Smooth grid:    58483 G-vectors     FFT dimensions: (  45,  36, 160)

     Estimated max dynamical RAM per process >     231.32MB

     Initial potential from superposition of free atoms
     Check: negative starting charge=   -0.003083

     starting charge   89.99859, renormalised to   89.00000

     negative rho (up, down):  3.049E-03 0.000E+00
     Starting wfc are   80 randomized atomic wfcs

     total cpu time spent up to now is        5.8 secs

     per-process dynamical memory:   335.7 Mb

     Self-consistent Calculation

     iteration #  1     ecut=    35.00 Ry     beta=0.70
     Davidson diagonalization with overlap
     ethr =  1.00E-02,  avg # of iterations =  5.0

     negative rho (up, down):  2.886E-03 0.000E+00

     add environment contribution to local potential
     polarization accuracy = 3.8E-06, # of iterations =  25

     total cpu time spent up to now is        9.1 secs

     total energy              =    -622.68828071 Ry
     Harris-Foulkes estimate   =    -624.21130265 Ry
     estimated scf accuracy    <       1.86638633 Ry
     electrostatic embedding   =       0.03381190 Ry
     correction to one-el term =       0.00000000 Ry

     iteration #  2     ecut=    35.00 Ry     beta=0.70
     Davidson diagonalization with overlap
     ethr =  2.10E-03,  avg # of iterations =  8.0

     negative rho (up, down):  2.058E-02 0.000E+00

     add environment contribution to local potential
     polarization accuracy = 6.2E-06, # of iterations =  50

     total cpu time spent up to now is       13.5 secs

     total energy              =    -618.08485183 Ry
     Harris-Foulkes estimate   =    -607.35600975 Ry
     estimated scf accuracy    <      45.71628306 Ry
     electrostatic embedding   =       0.00091372 Ry
     correction to one-el term =     -19.46658172 Ry

     iteration #  3     ecut=    35.00 Ry     beta=0.70
     Davidson diagonalization with overlap
     ethr =  2.10E-03,  avg # of iterations =  5.0

     negative rho (up, down):  7.647E-03 0.000E+00

     add environment contribution to local potential
     polarization accuracy = 6.4E-06, # of iterations =  29

     total cpu time spent up to now is       16.9 secs

     total energy              =    -623.81744507 Ry
     Harris-Foulkes estimate   =    -601.93282257 Ry
     estimated scf accuracy    <       0.60156934 Ry
     electrostatic embedding   =       0.25353385 Ry
     correction to one-el term =     -22.40595639 Ry

     iteration #  4     ecut=    35.00 Ry     beta=0.70
     Davidson diagonalization with overlap
     ethr =  6.76E-04,  avg # of iterations =  4.0

     negative rho (up, down):  8.663E-03 0.000E+00

     add environment contribution to local potential
     polarization accuracy = 5.6E-06, # of iterations =  30

     total cpu time spent up to now is       20.3 secs

     total energy              =    -623.60714597 Ry
     Harris-Foulkes estimate   =    -602.12125287 Ry
     estimated scf accuracy    <       0.99059175 Ry
     electrostatic embedding   =       0.21645996 Ry
     correction to one-el term =     -21.90003699 Ry

     iteration #  5     ecut=    35.00 Ry     beta=0.70
     Davidson diagonalization with overlap
     ethr =  6.76E-04,  avg # of iterations =  1.0

     negative rho (up, down):  4.812E-03 0.000E+00

     add environment contribution to local potential
     polarization accuracy = 3.2E-06, # of iterations =  30

     total cpu time spent up to now is       23.5 secs

     total energy              =    -623.68531832 Ry
     Harris-Foulkes estimate   =    -601.84990306 Ry
     estimated scf accuracy    <       0.08580213 Ry
     electrostatic embedding   =       0.20702260 Ry
     correction to one-el term =     -22.07136612 Ry

     iteration #  6     ecut=    35.00 Ry     beta=0.70
     Davidson diagonalization with overlap
     ethr =  9.64E-05,  avg # of iterations =  8.0

     negative rho (up, down):  4.781E-03 0.000E+00

     add environment contribution to local potential
     polarization accuracy = 4.4E-06, # of iterations =  30

     total cpu time spent up to now is       26.8 secs

     total energy              =    -623.68676663 Ry
     Harris-Foulkes estimate   =    -601.41301220 Ry
     estimated scf accuracy    <       0.24866594 Ry
     electrostatic embedding   =       0.19846944 Ry
     correction to one-el term =     -22.50500156 Ry

     iteration #  7     ecut=    35.00 Ry     beta=0.70
     Davidson diagonalization with overlap
     ethr =  9.64E-05,  avg # of iterations =  1.0

     negative rho (up, down):  4.084E-03 0.000E+00

     add environment contribution to local potential
     polarization accuracy = 6.6E-06, # of iterations =  29

     total cpu time spent up to now is       30.0 secs

     total energy              =    -623.69894345 Ry
     Harris-Foulkes estimate   =    -601.20561497 Ry
     estimated scf accuracy    <       0.05001673 Ry
     electrostatic embedding   =       0.19939765 Ry
     correction to one-el term =     -22.70215904 Ry

     iteration #  8     ecut=    35.00 Ry     beta=0.70
     Davidson diagonalization with overlap
     ethr =  5.62E-05,  avg # of iterations =  1.0

     negative rho (up, down):  4.006E-03 0.000E+00

     add environment contribution to local potential
     polarization accuracy = 7.7E-06, # of iterations =  29

     total cpu time spent up to now is       33.1 secs

     total energy              =    -623.70365641 Ry
     Harris-Foulkes estimate   =    -600.98803346 Ry
     estimated scf accuracy    <       0.02939129 Ry
     electrostatic embedding   =       0.19431292 Ry
     correction to one-el term =     -22.91524839 Ry

     iteration #  9     ecut=    35.00 Ry     beta=0.70
     Davidson diagonalization with overlap
     ethr =  3.30E-05,  avg # of iterations =  1.0

     negative rho (up, down):  3.778E-03 0.000E+00

     add environment contribution to local potential
     polarization accuracy = 6.1E-06, # of iterations =  29

     total cpu time spent up to now is       36.3 secs

     total energy              =    -623.70548491 Ry
     Harris-Foulkes estimate   =    -600.95937450 Ry
     estimated scf accuracy    <       0.00915723 Ry
     electrostatic embedding   =       0.19359504 Ry
     correction to one-el term =     -22.94127175 Ry

     iteration # 10     ecut=    35.00 Ry     beta=0.70
     Davidson diagonalization with overlap
     ethr =  1.03E-05,  avg # of iterations =  5.0

     negative rho (up, down):  3.561E-03 0.000E+00

     total cpu time spent up to now is       38.4 secs

     End of self-consistent calculation

          k = 0.0000 0.0000 0.0000 (  7286 PWs)   bands (ev):

   -24.8689 -11.3705  -9.6809  -8.5105  -8.2224  -7.7098  -7.6976  -7.5104
    -7.3394  -6.5039  -6.3577  -6.2542  -6.0382  -5.9743  -5.9147  -5.7694
    -5.1090  -5.0657  -5.0080  -4.8039  -4.7470  -4.7055  -4.6641  -4.6163
    -4.6078  -4.4218  -4.4084  -4.3159  -4.2144  -3.9701  -3.8590  -3.1241
    -2.9899  -2.7214  -2.4646  -2.4458  -2.3885  -2.2079  -2.0545  -1.9268
    -1.7495  -1.7384  -1.5359  -1.4922  -1.4494  -1.2872  -1.1604  -0.0687
     0.2607   0.3193   0.9113   1.5959   1.7176   2.6756   3.0085   3.0938
     4.4418   4.6208   4.6984   5.0333   5.5044   5.8907   6.1274   6.1325
     6.9963   7.1994   7.4171   7.5697   7.7095   8.0274   8.9305   9.3094
     9.3146   9.3655   9.6701   9.9720  10.0659  10.1660  10.3057  10.3603

     the Fermi energy is    -1.3673 ev

!    total energy              =    -623.70535075 Ry
     Harris-Foulkes estimate   =    -600.92397286 Ry
     estimated scf accuracy    <       0.00205773 Ry

     The total energy is the sum of the following terms:

     one-electron contribution =   -3916.16242525 Ry
     hartree contribution      =    2004.79385784 Ry
     xc contribution           =    -262.75611386 Ry
     ewald contribution        =    1573.20467954 Ry
     smearing contrib. (-TS)   =      -0.00211682 Ry
     electrostatic embedding   =       0.19145100 Ry
     correction to one-el term =     -22.97468321 Ry

     convergence has been achieved in  10 iterations

     negative rho (up, down):  3.561E-03 0.000E+00

     Forces acting on atoms (cartesian axes, Ry/au):

     atom    1 type  1   force =     0.00001212   -0.00386889    0.07733242
     atom    2 type  2   force =    -0.00009580    0.00115272   -0.02703458
     atom    3 type  3   force =     0.00407388    0.01474326    0.03608071
     atom    4 type  3   force =    -0.00309792    0.01492404    0.03661121
     atom    5 type  3   force =    -0.00185896    0.01013299   -0.00150725
     atom    6 type  3   force =     0.00087908    0.00616318    0.05243729
     atom    7 type  3   force =    -0.00149018   -0.01112288   -0.04886557
     atom    8 type  3   force =     0.00049302   -0.01934883   -0.03305635
     atom    9 type  3   force =     0.01541201   -0.00653090   -0.04622328
     atom   10 type  3   force =    -0.01432724   -0.00624469   -0.04577459

     Total force =     0.146527     Total SCF correction =     0.149876
     SCF correction compared to forces is large: reduce conv_thr to get better values

     Writing output data file pwscf.save
 
     init_run     :      5.30s CPU      5.47s WALL (       1 calls)
     electrons    :     31.26s CPU     32.68s WALL (       1 calls)
     forces       :      3.29s CPU      3.36s WALL (       1 calls)

     Called by init_run:
     wfcinit      :      0.20s CPU      0.21s WALL (       1 calls)
     potinit      :      1.51s CPU      1.53s WALL (       1 calls)

     Called by electrons:
     c_bands      :      6.34s CPU      6.46s WALL (      10 calls)
     sum_band     :      6.38s CPU      6.84s WALL (      10 calls)
     v_of_rho     :      2.84s CPU      2.89s WALL (      11 calls)
     newd         :      4.04s CPU      4.73s WALL (      11 calls)
     mix_rho      :      0.24s CPU      0.23s WALL (      10 calls)

     Called by c_bands:
     init_us_2    :      0.09s CPU      0.10s WALL (      21 calls)
     regterg      :      5.70s CPU      5.82s WALL (      10 calls)

     Called by sum_band:
     sum_band:bec :      0.00s CPU      0.00s WALL (      10 calls)
     addusdens    :      5.16s CPU      5.62s WALL (      10 calls)

     Called by *egterg:
     h_psi        :      4.00s CPU      4.03s WALL (      50 calls)
     s_psi        :      0.27s CPU      0.29s WALL (      50 calls)
     g_psi        :      0.05s CPU      0.05s WALL (      39 calls)
     rdiaghg      :      0.38s CPU      0.38s WALL (      49 calls)

     Called by h_psi:
     h_psi:pot    :      3.96s CPU      3.98s WALL (      50 calls)
     h_psi:calbec :      0.29s CPU      0.28s WALL (      50 calls)
     vloc_psi     :      3.40s CPU      3.43s WALL (      50 calls)
     add_vuspsi   :      0.26s CPU      0.28s WALL (      50 calls)

     General routines
     calbec       :      0.41s CPU      0.41s WALL (      64 calls)
     fft          :      6.48s CPU      6.45s WALL (     922 calls)
     ffts         :      0.04s CPU      0.04s WALL (      21 calls)
     fftw         :      3.16s CPU      3.13s WALL (    2486 calls)
     interpolate  :      0.24s CPU      0.26s WALL (      21 calls)
     davcio       :      0.00s CPU      0.00s WALL (       1 calls)
 
     Parallel routines
     fft_scatter  :      1.89s CPU      1.79s WALL (    3429 calls)
 
     Environ routines
     calc_eelect  :      0.01s CPU      0.01s WALL (      20 calls)
     calc_velect  :      8.91s CPU      8.96s WALL (      18 calls)
     dielectric   :      0.25s CPU      0.25s WALL (      13 calls)
     calc_felect  :      0.04s CPU      0.04s WALL (       1 calls)
 
     PWSCF        :    40.19s CPU        41.85s WALL

 
   This run was terminated on:  12:29: 2   1Feb2018            

=------------------------------------------------------------------------------=
   JOB DONE.
=------------------------------------------------------------------------------=

%%%% IONS %%%%%%%%%%%%%%%%%%%%%%%%%%%%%%%%%%%%%%%%%%%%%%%%%%%%%%%%%%%%%%%%%%%%%%
 number of ions             =         10
 ionic center of charge     =      0.3882415     0.3750182     0.2893651
 total ionic charge         =    -90.0000000
 ionic dipole               =      0.0000000     0.0000000     0.0000000
 ionic quadrupole (pc)      =   -730.5101255  -614.6110457  -876.7220256
 ionic quadrupole (gauss)   =   -741.7601255  -625.8610457  -887.9720256
 ion   1 type =  1 coordinates =      5.3350841     4.6467234     8.2964034
 ion   2 type =  2 coordinates =      5.3350096     4.6196233    10.4752278
 ion   3 type =  3 coordinates =      8.0613271     0.0980580     4.3875164
 ion   4 type =  3 coordinates =      2.6089894     0.0980583     4.3875141
 ion   5 type =  3 coordinates =      0.0000366     4.7208463     4.3641304
 ion   6 type =  3 coordinates =      5.3351596     4.7216127     4.7755699
 ion   7 type =  3 coordinates =      0.0000411     7.8029520     0.0000000
 ion   8 type =  3 coordinates =      5.3351612     7.6977491     0.1488629
 ion   9 type =  3 coordinates =      2.6978606     3.1521739     0.0837858
 ion  10 type =  3 coordinates =      7.9724637     3.1521745     0.0837887

%%%% SYSTEM %%%%%%%%%%%%%%%%%%%%%%%%%%%%%%%%%%%%%%%%%%%%%%%%%%%%%%%%%%%%%%%%%%%%
 system is built from all present ionic types
 system defined dimension   =  0 
 system defined axis        =  3 
 system center              =      0.3882415     0.3750182     0.2893651 
 system width               =      0.7019013 

%%%% ELECTRONS %%%%%%%%%%%%%%%%%%%%%%%%%%%%%%%%%%%%%%%%%%%%%%%%%%%%%%%%%%%%%%%%%
 number of electrons        =         89
 total electronic charge    =     89.0000000
 number of spin components  =  1

%%%% BOUNDARY %%%%%%%%%%%%%%%%%%%%%%%%%%%%%%%%%%%%%%%%%%%%%%%%%%%%%%%%%%%%%%%%%%
 boundary mode              = full                 
 boundary is built as a function of a smooth density
 function type              =  2 
 using the modified SCCS function with parameters 
 rhomax                     =      0.0050000 
 rhomin                     =      0.0001000 
 volume of the QM region    =   1610.6630766 
 surface of the QM region   =    255.0494111 

%%%% DIELECTRIC %%%%%%%%%%%%%%%%%%%%%%%%%%%%%%%%%%%%%%%%%%%%%%%%%%%%%%%%%%%%%%%%%
 dielectric build on homogeneous background
 environment bulk permitt.  =    100.0000000 
 dielectric flags
 need gradient              =  F 
 need factor depend. sqrt   =  T 
 total dielectric charge    =      0.0000000

%%%% ELECTRONS %%%%%%%%%%%%%%%%%%%%%%%%%%%%%%%%%%%%%%%%%%%%%%%%%%%%%%%%%%%%%%%%%
 number of electrons        =         88
 total electronic charge    =     89.0000000
 number of spin components  =  1

%%%% BOUNDARY %%%%%%%%%%%%%%%%%%%%%%%%%%%%%%%%%%%%%%%%%%%%%%%%%%%%%%%%%%%%%%%%%%
 boundary mode              = full                 
 boundary is built as a function of a smooth density
 function type              =  2 
 using the modified SCCS function with parameters 
 rhomax                     =      0.0050000 
 rhomin                     =      0.0001000 
 volume of the QM region    =   1500.3585238 
 surface of the QM region   =    259.8000154 

%%%% DIELECTRIC %%%%%%%%%%%%%%%%%%%%%%%%%%%%%%%%%%%%%%%%%%%%%%%%%%%%%%%%%%%%%%%%%
 dielectric build on homogeneous background
 environment bulk permitt.  =    100.0000000 
 dielectric flags
 need gradient              =  F 
 need factor depend. sqrt   =  T 
 total dielectric charge    =      0.0000000

%%%% COMPUTE ELECTROSTATIC POTENTIAL %%%%%%%%%%%%%%%%%%%%%%%%%%%%%%%%%%%%%%%%%%%
 Iteration #          1
  pAp =    1283.90127590535       rzold =    1273.22331256442       alpha = 
  0.991683189711457     
 delta_qm =   0.184027E+00 delta_en =   0.263341E+05 tol =   0.100000E-04
 Iteration #          2
  pAp =    5184.96625121400       rzold =    228.106106435734       alpha = 
  4.399374950267537E-002
 delta_qm =   0.217670E-01 delta_en =   0.368428E+03 tol =   0.100000E-04
 Iteration #          3
  pAp =    11.8548929800864       rzold =    1.21466579917970       alpha = 
  0.102461135770696     
 delta_qm =   0.335495E-01 delta_en =   0.875241E+03 tol =   0.100000E-04
 Iteration #          4
  pAp =   0.230567937293416       rzold =   0.118038100467792       alpha = 
  0.511944990502208     
 delta_qm =   0.239654E-01 delta_en =   0.446609E+03 tol =   0.100000E-04
 Iteration #          5
  pAp =   0.123400109098511       rzold =   0.110088213398951       alpha = 
  0.892124117257195     
 delta_qm =   0.144154E-01 delta_en =   0.161587E+03 tol =   0.100000E-04
 Iteration #          6
  pAp =   0.530022759414259       rzold =   0.152184452500518       alpha = 
  0.287128146475635     
 delta_qm =   0.108675E-01 delta_en =   0.918369E+02 tol =   0.100000E-04
 Iteration #          7
  pAp =   0.105782105946161       rzold =   5.359764016888676E-002  alpha = 
  0.506679647653885     
 delta_qm =   0.953105E-02 delta_en =   0.706378E+02 tol =   0.100000E-04
 Iteration #          8
  pAp =   2.427886660815197E-002  rzold =   1.458154112121071E-002  alpha = 
  0.600585742182658     
 delta_qm =   0.660237E-02 delta_en =   0.338966E+02 tol =   0.100000E-04
 Iteration #          9
  pAp =   9.215620469864383E-003  rzold =   7.471615984991659E-003  alpha = 
  0.810755608851762     
 delta_qm =   0.474260E-02 delta_en =   0.174900E+02 tol =   0.100000E-04
 Iteration #         10
  pAp =   1.056281383388511E-002  rzold =   8.442222628298612E-003  alpha = 
  0.799239933701783     
 delta_qm =   0.371953E-02 delta_en =   0.107580E+02 tol =   0.100000E-04
 Iteration #         11
  pAp =   1.303728439521200E-002  rzold =   6.179826956219090E-003  alpha = 
  0.474011824002908     
 delta_qm =   0.417520E-02 delta_en =   0.135554E+02 tol =   0.100000E-04
 Iteration #         12
  pAp =   6.679664632829879E-003  rzold =   2.924895325228715E-003  alpha = 
  0.437880565268674     
 delta_qm =   0.391885E-02 delta_en =   0.119419E+02 tol =   0.100000E-04
 Iteration #         13
  pAp =   8.998474650438154E-004  rzold =   1.572382620871214E-003  alpha = 
   1.74738795401802     
 delta_qm =   0.234545E-02 delta_en =   0.427767E+01 tol =   0.100000E-04
 Iteration #         14
  pAp =   4.509415238975787E-003  rzold =   2.170969787812105E-003  alpha = 
  0.481430445581497     
 delta_qm =   0.207880E-02 delta_en =   0.336034E+01 tol =   0.100000E-04
 Iteration #         15
  pAp =   1.839619789222909E-002  rzold =   1.384357611918578E-003  alpha = 
  7.525237660676380E-002
 delta_qm =   0.202705E-02 delta_en =   0.319511E+01 tol =   0.100000E-04
 Iteration #         16
  pAp =   2.713981956175875E-003  rzold =   7.855947068742208E-004  alpha = 
  0.289462022798840     
 delta_qm =   0.122464E-02 delta_en =   0.116620E+01 tol =   0.100000E-04
 Iteration #         17
  pAp =   7.455952593684455E-004  rzold =   2.332117318670277E-004  alpha = 
  0.312785963881489     
 delta_qm =   0.681642E-03 delta_en =   0.361301E+00 tol =   0.100000E-04
 Iteration #         18
  pAp =   8.955966746455719E-005  rzold =   4.609403648776124E-005  alpha = 
  0.514674046841484     
 delta_qm =   0.290912E-03 delta_en =   0.658081E-01 tol =   0.100000E-04
 Iteration #         19
  pAp =   1.690316086956344E-005  rzold =   1.030526888048098E-005  alpha = 
  0.609665195758569     
 delta_qm =   0.146870E-03 delta_en =   0.167734E-01 tol =   0.100000E-04
 Iteration #         20
  pAp =   4.008076368522274E-006  rzold =   2.621461196334310E-006  alpha = 
  0.654044722531275     
 delta_qm =   0.754158E-04 delta_en =   0.442263E-02 tol =   0.100000E-04
 Iteration #         21
  pAp =   1.238013556084599E-006  rzold =   6.599801161427571E-007  alpha = 
  0.533096033479667     
 delta_qm =   0.342952E-04 delta_en =   0.914580E-03 tol =   0.100000E-04
 Iteration #         22
  pAp =   6.221230043238214E-007  rzold =   1.197884055061897E-007  alpha = 
  0.192547783434542     
 delta_qm =   0.286951E-04 delta_en =   0.640284E-03 tol =   0.100000E-04
 Iteration #         23
  pAp =   2.660948093696921E-007  rzold =   9.053597553611313E-008  alpha = 
  0.340239539999178     
 delta_qm =   0.117673E-04 delta_en =   0.107674E-03 tol =   0.100000E-04
 Iteration #         24
  pAp =   2.496868583274548E-008  rzold =   1.398376817675177E-008  alpha = 
  0.560052229837927     
 delta_qm =   0.462050E-05 delta_en =   0.166010E-04 tol =   0.100000E-04
 Iteration #         25
  pAp =   4.603121360420187E-009  rzold =   2.647457098796341E-009  alpha = 
  0.575143884226132     
 delta_qm =   0.220772E-05 delta_en =   0.379003E-05 tol =   0.100000E-04
 Charges are converged, EXIT

%%%% ELECTRONS %%%%%%%%%%%%%%%%%%%%%%%%%%%%%%%%%%%%%%%%%%%%%%%%%%%%%%%%%%%%%%%%%
 number of electrons        =         88
 total electronic charge    =     89.0000000
 number of spin components  =  1

%%%% BOUNDARY %%%%%%%%%%%%%%%%%%%%%%%%%%%%%%%%%%%%%%%%%%%%%%%%%%%%%%%%%%%%%%%%%%
 boundary mode              = full                 
 boundary is built as a function of a smooth density
 function type              =  2 
 using the modified SCCS function with parameters 
 rhomax                     =      0.0050000 
 rhomin                     =      0.0001000 
 volume of the QM region    =   1510.0032029 
 surface of the QM region   =    349.2020532 

%%%% DIELECTRIC %%%%%%%%%%%%%%%%%%%%%%%%%%%%%%%%%%%%%%%%%%%%%%%%%%%%%%%%%%%%%%%%%
 dielectric build on homogeneous background
 environment bulk permitt.  =    100.0000000 
 dielectric flags
 need gradient              =  F 
 need factor depend. sqrt   =  T 
 total dielectric charge    =      0.0141126

%%%% COMPUTE ELECTROSTATIC POTENTIAL %%%%%%%%%%%%%%%%%%%%%%%%%%%%%%%%%%%%%%%%%%%
 Warning: bad guess with residual norm =   0.126848E+05, reset to no guess
 Iteration #          1
  pAp =    1275.44678694218       rzold =    1274.11576292854       alpha = 
  0.998956425287770     
 delta_qm =   0.127589E+00 delta_en =   0.126584E+05 tol =   0.100000E-04
 Iteration #          2
  pAp =    697.871514777676       rzold =    26.5798904949858       alpha = 
  3.808708326983876E-002
 delta_qm =   0.117017E+00 delta_en =   0.106476E+05 tol =   0.100000E-04
 Iteration #          3
  pAp =    17.3628164496390       rzold =    2.12625141963254       alpha = 
  0.122460052826093     
 delta_qm =   0.718694E-01 delta_en =   0.401646E+04 tol =   0.100000E-04
 Iteration #          4
  pAp =   0.394830699724765       rzold =   0.124810373261019       alpha = 
  0.316111116354488     
 delta_qm =   0.683131E-01 delta_en =   0.362881E+04 tol =   0.100000E-04
 Iteration #          5
  pAp =    1.14493351692868       rzold =   0.273238384235827       alpha = 
  0.238650000367529     
 delta_qm =   0.290194E-01 delta_en =   0.654838E+03 tol =   0.100000E-04
 Iteration #          6
  pAp =   0.127165828866485       rzold =   0.128953103638700       alpha = 
   1.01405467795985     
 delta_qm =   0.391198E-01 delta_en =   0.119001E+04 tol =   0.100000E-04
 Iteration #          7
  pAp =   0.357495449296589       rzold =   0.209013210285218       alpha = 
  0.584659778736971     
 delta_qm =   0.486690E-01 delta_en =   0.184188E+04 tol =   0.100000E-04
 Iteration #          8
  pAp =   0.122406774328005       rzold =   8.192677967860956E-002  alpha = 
  0.669299392361045     
 delta_qm =   0.463411E-01 delta_en =   0.166990E+04 tol =   0.100000E-04
 Iteration #          9
  pAp =   4.614727096944468E-002  rzold =   7.363639768299501E-002  alpha = 
   1.59568260779173     
 delta_qm =   0.588345E-01 delta_en =   0.269166E+04 tol =   0.100000E-04
 Iteration #         10
  pAp =   0.308799312011082       rzold =   0.206939868042654       alpha = 
  0.670143552765519     
 delta_qm =   0.688575E-01 delta_en =   0.368688E+04 tol =   0.100000E-04
 Iteration #         11
  pAp =   0.330219934725298       rzold =   0.217259657625625       alpha = 
  0.657924112929032     
 delta_qm =   0.652110E-01 delta_en =   0.330672E+04 tol =   0.100000E-04
 Iteration #         12
  pAp =   0.257075605052018       rzold =   0.154207042130724       alpha = 
  0.599850935290109     
 delta_qm =   0.609082E-01 delta_en =   0.288475E+04 tol =   0.100000E-04
 Iteration #         13
  pAp =   0.168183425216120       rzold =   0.128810516674807       alpha = 
  0.765893051049965     
 delta_qm =   0.659469E-01 delta_en =   0.338177E+04 tol =   0.100000E-04
 Iteration #         14
  pAp =   0.149748129194074       rzold =   0.194199708788091       alpha = 
   1.29684230336132     
 delta_qm =   0.131047E+00 delta_en =   0.133539E+05 tol =   0.100000E-04
 Iteration #         15
  pAp =    15.6225954892121       rzold =    1.14318790606578       alpha = 
  7.317528683727255E-002
 delta_qm =   0.137332E+00 delta_en =   0.146656E+05 tol =   0.100000E-04
 Iteration #         16
  pAp =    1.58259579377339       rzold =    1.01785297539975       alpha = 
  0.643154101258465     
 delta_qm =   0.246004E+00 delta_en =   0.470588E+05 tol =   0.100000E-04
 Iteration #         17
  pAp =   -1.43218520123525       rzold =    2.22743281056600       alpha = 
  -1.55526869614688     
 delta_qm =   0.386514E+00 delta_en =   0.116168E+06 tol =   0.100000E-04
 Iteration #         18
  pAp =    19.9185948287119       rzold =    4.89679390182268       alpha = 
  0.245840328794888     
 delta_qm =   0.162881E+00 delta_en =   0.206300E+05 tol =   0.100000E-04
 Iteration #         19
  pAp =    3.69828041114581       rzold =    1.26901787561878       alpha = 
  0.343137278556336     
 delta_qm =   0.791505E-01 delta_en =   0.487151E+04 tol =   0.100000E-04
 Iteration #         20
  pAp =   0.454568851809696       rzold =   0.232317091158003       alpha = 
  0.511071293673376     
 delta_qm =   0.565808E-01 delta_en =   0.248940E+04 tol =   0.100000E-04
 Iteration #         21
  pAp =   0.226342161689031       rzold =   0.137365064742251       alpha = 
  0.606891193921593     
 delta_qm =   0.378916E-01 delta_en =   0.111646E+04 tol =   0.100000E-04
 Iteration #         22
  pAp =   0.117689296509968       rzold =   5.829232883101047E-002  alpha = 
  0.495306969789503     
 delta_qm =   0.270272E-01 delta_en =   0.568012E+03 tol =   0.100000E-04
 Iteration #         23
  pAp =   7.145063265051817E-002  rzold =   2.772392429030312E-002  alpha = 
  0.388015098843244     
 delta_qm =   0.182996E-01 delta_en =   0.260400E+03 tol =   0.100000E-04
 Iteration #         24
  pAp =   0.301449777280576       rzold =   3.589715164714493E-002  alpha = 
  0.119081699017921     
 delta_qm =   0.135443E-01 delta_en =   0.142650E+03 tol =   0.100000E-04
 Iteration #         25
  pAp =   1.489504368526376E-002  rzold =   7.792818976231131E-003  alpha = 
  0.523182015500959     
 delta_qm =   0.102176E-01 delta_en =   0.811803E+02 tol =   0.100000E-04
 Iteration #         26
  pAp =   7.642859119007954E-003  rzold =   4.243603376334628E-003  alpha = 
  0.555237681377731     
 delta_qm =   0.822125E-02 delta_en =   0.525572E+02 tol =   0.100000E-04
 Iteration #         27
  pAp =   4.409991889815119E-003  rzold =   2.359368432657723E-003  alpha = 
  0.535005163639118     
 delta_qm =   0.591969E-02 delta_en =   0.272492E+02 tol =   0.100000E-04
 Iteration #         28
  pAp =   1.055524903555637E-002  rzold =   1.528030313857567E-003  alpha = 
  0.144764970367847     
 delta_qm =   0.533603E-02 delta_en =   0.221408E+02 tol =   0.100000E-04
 Iteration #         29
  pAp =   2.591044536773775E-002  rzold =   3.589739253996089E-003  alpha = 
  0.138544096909497     
 delta_qm =   0.401564E-02 delta_en =   0.125391E+02 tol =   0.100000E-04
 Iteration #         30
  pAp =   1.250555575933895E-003  rzold =   7.719097823284703E-004  alpha = 
  0.617253480919487     
 delta_qm =   0.311354E-02 delta_en =   0.753813E+01 tol =   0.100000E-04
 Iteration #         31
  pAp =   3.158183176347060E-004  rzold =   2.687111190037787E-004  alpha = 
  0.850840828411307     
 delta_qm =   0.212862E-02 delta_en =   0.352331E+01 tol =   0.100000E-04
 Iteration #         32
  pAp =   2.281149804822409E-004  rzold =   1.440806919199486E-004  alpha = 
  0.631614335960568     
 delta_qm =   0.140228E-02 delta_en =   0.152906E+01 tol =   0.100000E-04
 Iteration #         33
  pAp =   5.565650751720199E-004  rzold =   1.409336295849240E-004  alpha = 
  0.253220397527396     
 delta_qm =   0.117081E-02 delta_en =   0.106593E+01 tol =   0.100000E-04
 Iteration #         34
  pAp =   1.116357779508552E-004  rzold =   6.540099690696070E-005  alpha = 
  0.585842622387169     
 delta_qm =   0.864894E-03 delta_en =   0.581677E+00 tol =   0.100000E-04
 Iteration #         35
  pAp =   3.582101872016240E-005  rzold =   2.790051819240705E-005  alpha = 
  0.778886787401801     
 delta_qm =   0.678079E-03 delta_en =   0.357533E+00 tol =   0.100000E-04
 Iteration #         36
  pAp =   1.267016052974390E-005  rzold =   1.214721317198172E-005  alpha = 
  0.958726066924367     
 delta_qm =   0.475605E-03 delta_en =   0.175893E+00 tol =   0.100000E-04
 Iteration #         37
  pAp =   1.421690898717224E-005  rzold =   9.205040982443961E-006  alpha = 
  0.647471330846218     
 delta_qm =   0.378362E-03 delta_en =   0.111319E+00 tol =   0.100000E-04
 Iteration #         38
  pAp =   5.862352012215258E-006  rzold =   4.484095046485762E-006  alpha = 
  0.764896928253771     
 delta_qm =   0.250686E-03 delta_en =   0.488672E-01 tol =   0.100000E-04
 Iteration #         39
  pAp =   2.695764844164986E-006  rzold =   1.745369190243346E-006  alpha = 
  0.647448605920215     
 delta_qm =   0.164069E-03 delta_en =   0.209319E-01 tol =   0.100000E-04
 Iteration #         40
  pAp =   6.631750901211454E-005  rzold =   3.336472203424750E-006  alpha = 
  5.031057790206293E-002
 delta_qm =   0.147467E-03 delta_en =   0.169101E-01 tol =   0.100000E-04
 Iteration #         41
  pAp =   2.182878543073880E-006  rzold =   1.084685031653433E-006  alpha = 
  0.496905810492784     
 delta_qm =   0.116790E-03 delta_en =   0.106063E-01 tol =   0.100000E-04
 Iteration #         42
  pAp =   8.446699161887226E-007  rzold =   5.255755937946959E-007  alpha = 
  0.622226012459603     
 delta_qm =   0.102415E-03 delta_en =   0.815616E-02 tol =   0.100000E-04
 Iteration #         43
  pAp =   7.602448767861963E-006  rzold =   9.028926335989661E-007  alpha = 
  0.118763396001534     
 delta_qm =   0.929615E-04 delta_en =   0.671989E-02 tol =   0.100000E-04
 Iteration #         44
  pAp =   4.872941150761144E-007  rzold =   3.039419683097440E-007  alpha = 
  0.623734124641068     
 delta_qm =   0.611443E-04 delta_en =   0.290716E-02 tol =   0.100000E-04
 Iteration #         45
  pAp =   1.593092053316543E-007  rzold =   1.314751087895986E-007  alpha = 
  0.825282559886543     
 delta_qm =   0.412403E-04 delta_en =   0.132251E-02 tol =   0.100000E-04
 Iteration #         46
  pAp =   5.997808869934869E-008  rzold =   4.428397746080284E-008  alpha = 
  0.738335922686441     
 delta_qm =   0.252322E-04 delta_en =   0.495069E-03 tol =   0.100000E-04
 Iteration #         47
  pAp =   3.310228318259831E-008  rzold =   2.114601902000321E-008  alpha = 
  0.638808474429327     
 delta_qm =   0.145369E-04 delta_en =   0.164324E-03 tol =   0.100000E-04
 Iteration #         48
  pAp =   1.155013695151858E-008  rzold =   6.851133236249459E-009  alpha = 
  0.593164675449904     
 delta_qm =   0.908557E-05 delta_en =   0.641890E-04 tol =   0.100000E-04
 Iteration #         49
  pAp =   5.343513511389514E-009  rzold =   3.137687953853643E-009  alpha = 
  0.587195662023829     
 delta_qm =   0.547310E-05 delta_en =   0.232928E-04 tol =   0.100000E-04
 Iteration #         50
  pAp =   1.171194623988540E-009  rzold =   8.145625916767221E-010  alpha = 
  0.695497208570429     
 delta_qm =   0.281887E-05 delta_en =   0.617884E-05 tol =   0.100000E-04
 Charges are converged, EXIT

%%%% ELECTRONS %%%%%%%%%%%%%%%%%%%%%%%%%%%%%%%%%%%%%%%%%%%%%%%%%%%%%%%%%%%%%%%%%
 number of electrons        =         89
 total electronic charge    =     89.0000000
 number of spin components  =  1

%%%% BOUNDARY %%%%%%%%%%%%%%%%%%%%%%%%%%%%%%%%%%%%%%%%%%%%%%%%%%%%%%%%%%%%%%%%%%
 boundary mode              = full                 
 boundary is built as a function of a smooth density
 function type              =  2 
 using the modified SCCS function with parameters 
 rhomax                     =      0.0050000 
 rhomin                     =      0.0001000 
 volume of the QM region    =   1485.2957657 
 surface of the QM region   =    274.8010504 

%%%% DIELECTRIC %%%%%%%%%%%%%%%%%%%%%%%%%%%%%%%%%%%%%%%%%%%%%%%%%%%%%%%%%%%%%%%%%
 dielectric build on homogeneous background
 environment bulk permitt.  =    100.0000000 
 dielectric flags
 need gradient              =  F 
 need factor depend. sqrt   =  T 
 total dielectric charge    =      0.0828057

%%%% COMPUTE ELECTROSTATIC POTENTIAL %%%%%%%%%%%%%%%%%%%%%%%%%%%%%%%%%%%%%%%%%%%
 Warning: bad guess with residual norm =   0.373837E+04, reset to no guess
 Iteration #          1
  pAp =    1271.98798169242       rzold =    1271.08619308898       alpha = 
  0.999291039996900     
 delta_qm =   0.692878E-01 delta_en =   0.373310E+04 tol =   0.100000E-04
 Iteration #          2
  pAp =    313.779836060469       rzold =    14.6864253441140       alpha = 
  4.680487289592377E-002
 delta_qm =   0.622015E-01 delta_en =   0.300855E+04 tol =   0.100000E-04
 Iteration #          3
  pAp =    16.8891581011054       rzold =    1.95893085587096       alpha = 
  0.115987478129105     
 delta_qm =   0.430006E-01 delta_en =   0.143782E+04 tol =   0.100000E-04
 Iteration #          4
  pAp =   4.669955949251582E-002  rzold =   7.612083477729636E-002  alpha = 
   1.63001183746702     
 delta_qm =   0.148563E-01 delta_en =   0.171624E+03 tol =   0.100000E-04
 Iteration #          5
  pAp =   0.812709910819897       rzold =   0.212634034516192       alpha = 
  0.261635833014117     
 delta_qm =   0.134400E-01 delta_en =   0.140461E+03 tol =   0.100000E-04
 Iteration #          6
  pAp =    1.12189830116243       rzold =   0.238159562473149       alpha = 
  0.212282666108313     
 delta_qm =   0.149734E-01 delta_en =   0.174341E+03 tol =   0.100000E-04
 Iteration #          7
  pAp =   0.104218287293618       rzold =   4.752385717785138E-002  alpha = 
  0.456003052937923     
 delta_qm =   0.110287E-01 delta_en =   0.945806E+02 tol =   0.100000E-04
 Iteration #          8
  pAp =   2.871595502888631E-002  rzold =   1.693187250160933E-002  alpha = 
  0.589632923041459     
 delta_qm =   0.927329E-02 delta_en =   0.668688E+02 tol =   0.100000E-04
 Iteration #          9
  pAp =   6.666525448325260E-003  rzold =   7.764777695836935E-003  alpha = 
   1.16474132680129     
 delta_qm =   0.647264E-02 delta_en =   0.325776E+02 tol =   0.100000E-04
 Iteration #         10
  pAp =   1.284250418602903E-002  rzold =   8.781757876515077E-003  alpha = 
  0.683804166952773     
 delta_qm =   0.488957E-02 delta_en =   0.185908E+02 tol =   0.100000E-04
 Iteration #         11
  pAp =   8.841670987857791E-003  rzold =   3.216948807628150E-003  alpha = 
  0.363839461120637     
 delta_qm =   0.460649E-02 delta_en =   0.165004E+02 tol =   0.100000E-04
 Iteration #         12
  pAp =   2.689404924008460E-003  rzold =   1.555772763470218E-003  alpha = 
  0.578482157737480     
 delta_qm =   0.415938E-02 delta_en =   0.134528E+02 tol =   0.100000E-04
 Iteration #         13
  pAp =   2.138769173076454E-003  rzold =   1.840457497605019E-003  alpha = 
  0.860521799534666     
 delta_qm =   0.497429E-02 delta_en =   0.192406E+02 tol =   0.100000E-04
 Iteration #         14
  pAp =   3.235958725850331E-003  rzold =   2.366274355062342E-003  alpha = 
  0.731243676305094     
 delta_qm =   0.559775E-02 delta_en =   0.243659E+02 tol =   0.100000E-04
 Iteration #         15
  pAp =   5.472238053693401E-003  rzold =   1.869589844746453E-003  alpha = 
  0.341649947681754     
 delta_qm =   0.446071E-02 delta_en =   0.154726E+02 tol =   0.100000E-04
 Iteration #         16
  pAp =   5.896720295993809E-002  rzold =   3.823298712712652E-003  alpha = 
  6.483771521790130E-002
 delta_qm =   0.388748E-02 delta_en =   0.117515E+02 tol =   0.100000E-04
 Iteration #         17
  pAp =   2.734777767678246E-003  rzold =   1.047146211558717E-003  alpha = 
  0.382899928445636     
 delta_qm =   0.193562E-02 delta_en =   0.291338E+01 tol =   0.100000E-04
 Iteration #         18
  pAp =   8.203689622042910E-004  rzold =   3.761573660956251E-004  alpha = 
  0.458522181391296     
 delta_qm =   0.102630E-02 delta_en =   0.819034E+00 tol =   0.100000E-04
 Iteration #         19
  pAp =   1.044946387763548E-004  rzold =   7.200522421250953E-005  alpha = 
  0.689080560071786     
 delta_qm =   0.658519E-03 delta_en =   0.337204E+00 tol =   0.100000E-04
 Iteration #         20
  pAp =   3.973252341832508E-005  rzold =   2.335787877143551E-005  alpha = 
  0.587878059631687     
 delta_qm =   0.314832E-03 delta_en =   0.770749E-01 tol =   0.100000E-04
 Iteration #         21
  pAp =   1.690158372942071E-005  rzold =   8.480410382987895E-006  alpha = 
  0.501752410824436     
 delta_qm =   0.166468E-03 delta_en =   0.215487E-01 tol =   0.100000E-04
 Iteration #         22
  pAp =   3.073053644306042E-006  rzold =   1.829834799366864E-006  alpha = 
  0.595445121095528     
 delta_qm =   0.722462E-04 delta_en =   0.405870E-02 tol =   0.100000E-04
 Iteration #         23
  pAp =   1.089188586017973E-006  rzold =   5.566665039021516E-007  alpha = 
  0.511083673707324     
 delta_qm =   0.392714E-04 delta_en =   0.119925E-02 tol =   0.100000E-04
 Iteration #         24
  pAp =   1.888679781535269E-007  rzold =   1.054828409755139E-007  alpha = 
  0.558500398038725     
 delta_qm =   0.218931E-04 delta_en =   0.372709E-03 tol =   0.100000E-04
 Iteration #         25
  pAp =   1.108851002159406E-007  rzold =   3.764586780356725E-008  alpha = 
  0.339503393424858     
 delta_qm =   0.134928E-04 delta_en =   0.141566E-03 tol =   0.100000E-04
 Iteration #         26
  pAp =   2.506581038271048E-007  rzold =   3.891934869644953E-008  alpha = 
  0.155268663179926     
 delta_qm =   0.971399E-05 delta_en =   0.733756E-04 tol =   0.100000E-04
 Iteration #         27
  pAp =   2.298184443029708E-008  rzold =   1.128150149429616E-008  alpha = 
  0.490887558155415     
 delta_qm =   0.490757E-05 delta_en =   0.187279E-04 tol =   0.100000E-04
 Iteration #         28
  pAp =   1.163611241933741E-008  rzold =   2.452270965616762E-009  alpha = 
  0.210746585907976     
 delta_qm =   0.451812E-05 delta_en =   0.158734E-04 tol =   0.100000E-04
 Iteration #         29
  pAp =   6.145905230314353E-008  rzold =   6.931931785322425E-009  alpha = 
  0.112789435006759     
 delta_qm =   0.285777E-05 delta_en =   0.635056E-05 tol =   0.100000E-04
 Charges are converged, EXIT

%%%% ELECTRONS %%%%%%%%%%%%%%%%%%%%%%%%%%%%%%%%%%%%%%%%%%%%%%%%%%%%%%%%%%%%%%%%%
 number of electrons        =         89
 total electronic charge    =     89.0000000
 number of spin components  =  1

%%%% BOUNDARY %%%%%%%%%%%%%%%%%%%%%%%%%%%%%%%%%%%%%%%%%%%%%%%%%%%%%%%%%%%%%%%%%%
 boundary mode              = full                 
 boundary is built as a function of a smooth density
 function type              =  2 
 using the modified SCCS function with parameters 
 rhomax                     =      0.0050000 
 rhomin                     =      0.0001000 
 volume of the QM region    =   1476.9424408 
 surface of the QM region   =    280.8588566 

%%%% DIELECTRIC %%%%%%%%%%%%%%%%%%%%%%%%%%%%%%%%%%%%%%%%%%%%%%%%%%%%%%%%%%%%%%%%%
 dielectric build on homogeneous background
 environment bulk permitt.  =    100.0000000 
 dielectric flags
 need gradient              =  F 
 need factor depend. sqrt   =  T 
 total dielectric charge    =      0.0177057

%%%% COMPUTE ELECTROSTATIC POTENTIAL %%%%%%%%%%%%%%%%%%%%%%%%%%%%%%%%%%%%%%%%%%%
 Warning: bad guess with residual norm =   0.377927E+04, reset to no guess
 Iteration #          1
  pAp =    1270.78099734204       rzold =    1269.94031228984       alpha = 
  0.999338450091746     
 delta_qm =   0.696691E-01 delta_en =   0.377430E+04 tol =   0.100000E-04
 Iteration #          2
  pAp =    253.451333088330       rzold =    12.4103942768346       alpha = 
  4.896559085175316E-002
 delta_qm =   0.640239E-01 delta_en =   0.318743E+04 tol =   0.100000E-04
 Iteration #          3
  pAp =    22.2138943908324       rzold =    2.31487581443655       alpha = 
  0.104208464022944     
 delta_qm =   0.437320E-01 delta_en =   0.148715E+04 tol =   0.100000E-04
 Iteration #          4
  pAp =   7.408393654820189E-002  rzold =   7.887914394059878E-002  alpha = 
   1.06472668186682     
 delta_qm =   0.169165E-01 delta_en =   0.222523E+03 tol =   0.100000E-04
 Iteration #          5
  pAp =    1.84065109165411       rzold =   0.338633295723802       alpha = 
  0.183974734407426     
 delta_qm =   0.167598E-01 delta_en =   0.218420E+03 tol =   0.100000E-04
 Iteration #          6
  pAp =   0.518159936560822       rzold =   0.199529557041036       alpha = 
  0.385073300659584     
 delta_qm =   0.125434E-01 delta_en =   0.122346E+03 tol =   0.100000E-04
 Iteration #          7
  pAp =   0.112413828820557       rzold =   5.223227900151115E-002  alpha = 
  0.464642825082385     
 delta_qm =   0.100251E-01 delta_en =   0.781510E+02 tol =   0.100000E-04
 Iteration #          8
  pAp =   3.273940405958507E-002  rzold =   1.765886558700680E-002  alpha = 
  0.539376512622772     
 delta_qm =   0.918704E-02 delta_en =   0.656307E+02 tol =   0.100000E-04
 Iteration #          9
  pAp =   7.291854153208780E-003  rzold =   6.596987848108693E-003  alpha = 
  0.904706499814686     
 delta_qm =   0.680751E-02 delta_en =   0.360357E+02 tol =   0.100000E-04
 Iteration #         10
  pAp =   1.156426308076527E-002  rzold =   7.251333777836963E-003  alpha = 
  0.627046767026430     
 delta_qm =   0.357786E-02 delta_en =   0.995409E+01 tol =   0.100000E-04
 Iteration #         11
  pAp =   7.309675231545963E-003  rzold =   2.697713333704586E-003  alpha = 
  0.369060628311120     
 delta_qm =   0.276628E-02 delta_en =   0.595042E+01 tol =   0.100000E-04
 Iteration #         12
  pAp =   2.430668160613148E-003  rzold =   7.443851762641987E-004  alpha = 
  0.306247141558157     
 delta_qm =   0.224554E-02 delta_en =   0.392100E+01 tol =   0.100000E-04
 Iteration #         13
  pAp =   4.013923775783919E-004  rzold =   2.782913744971690E-004  alpha = 
  0.693315045432866     
 delta_qm =   0.149404E-02 delta_en =   0.173573E+01 tol =   0.100000E-04
 Iteration #         14
  pAp =   2.876770401350472E-004  rzold =   2.334413530959276E-004  alpha = 
  0.811470227121152     
 delta_qm =   0.185286E-02 delta_en =   0.266958E+01 tol =   0.100000E-04
 Iteration #         15
  pAp =   2.062265342101360E-003  rzold =   3.981310827714182E-004  alpha = 
  0.193055216825658     
 delta_qm =   0.224639E-02 delta_en =   0.392398E+01 tol =   0.100000E-04
 Iteration #         16
  pAp =   8.369608064641432E-003  rzold =   1.092740719491347E-003  alpha = 
  0.130560560429082     
 delta_qm =   0.232408E-02 delta_en =   0.420008E+01 tol =   0.100000E-04
 Iteration #         17
  pAp =   4.816481557389097E-004  rzold =   3.010210117730585E-004  alpha = 
  0.624981136512926     
 delta_qm =   0.170929E-02 delta_en =   0.227189E+01 tol =   0.100000E-04
 Iteration #         18
  pAp =   5.235274488935722E-004  rzold =   2.805880883051712E-004  alpha = 
  0.535956784879510     
 delta_qm =   0.853633E-03 delta_en =   0.566629E+00 tol =   0.100000E-04
 Iteration #         19
  pAp =   1.392104299452018E-004  rzold =   8.605777941879404E-005  alpha = 
  0.618184854774671     
 delta_qm =   0.639591E-03 delta_en =   0.318098E+00 tol =   0.100000E-04
 Iteration #         20
  pAp =   6.883505968326789E-005  rzold =   3.751266477618802E-005  alpha = 
  0.544964512979226     
 delta_qm =   0.421142E-03 delta_en =   0.137916E+00 tol =   0.100000E-04
 Iteration #         21
  pAp =   1.448907356153059E-005  rzold =   9.595554717001841E-006  alpha = 
  0.662261439715418     
 delta_qm =   0.182827E-03 delta_en =   0.259919E-01 tol =   0.100000E-04
 Iteration #         22
  pAp =   3.962923527708453E-006  rzold =   2.278592621569128E-006  alpha = 
  0.574977691504109     
 delta_qm =   0.791381E-04 delta_en =   0.486998E-02 tol =   0.100000E-04
 Iteration #         23
  pAp =   4.050109085560739E-006  rzold =   8.870100346617490E-007  alpha = 
  0.219008924432203     
 delta_qm =   0.569075E-04 delta_en =   0.251823E-02 tol =   0.100000E-04
 Iteration #         24
  pAp =   4.163931997058368E-006  rzold =   9.032709615421256E-007  alpha = 
  0.216927404717523     
 delta_qm =   0.394829E-04 delta_en =   0.121220E-02 tol =   0.100000E-04
 Iteration #         25
  pAp =   2.019813881967594E-007  rzold =   1.083989975480881E-007  alpha = 
  0.536678148991092     
 delta_qm =   0.225272E-04 delta_en =   0.394614E-03 tol =   0.100000E-04
 Iteration #         26
  pAp =   7.723976877132614E-008  rzold =   3.824800172637133E-008  alpha = 
  0.495185347325512     
 delta_qm =   0.118791E-04 delta_en =   0.109729E-03 tol =   0.100000E-04
 Iteration #         27
  pAp =   2.686688196866358E-008  rzold =   1.625436443416475E-008  alpha = 
  0.604996309326969     
 delta_qm =   0.833620E-05 delta_en =   0.540371E-04 tol =   0.100000E-04
 Iteration #         28
  pAp =   5.549058107215745E-008  rzold =   6.699460507512714E-009  alpha = 
  0.120731489526142     
 delta_qm =   0.692981E-05 delta_en =   0.373422E-04 tol =   0.100000E-04
 Iteration #         29
  pAp =   5.493231945617223E-008  rzold =   1.191475781340835E-008  alpha = 
  0.216898866302460     
 delta_qm =   0.485073E-05 delta_en =   0.182966E-04 tol =   0.100000E-04
 Iteration #         30
  pAp =   2.444016555601207E-009  rzold =   1.586399166484894E-009  alpha = 
  0.649095098332774     
 delta_qm =   0.268757E-05 delta_en =   0.561664E-05 tol =   0.100000E-04
 Charges are converged, EXIT

%%%% ELECTRONS %%%%%%%%%%%%%%%%%%%%%%%%%%%%%%%%%%%%%%%%%%%%%%%%%%%%%%%%%%%%%%%%%
 number of electrons        =         88
 total electronic charge    =     89.0000000
 number of spin components  =  1

%%%% BOUNDARY %%%%%%%%%%%%%%%%%%%%%%%%%%%%%%%%%%%%%%%%%%%%%%%%%%%%%%%%%%%%%%%%%%
 boundary mode              = full                 
 boundary is built as a function of a smooth density
 function type              =  2 
 using the modified SCCS function with parameters 
 rhomax                     =      0.0050000 
 rhomin                     =      0.0001000 
 volume of the QM region    =   1467.6281659 
 surface of the QM region   =    270.6582667 

%%%% DIELECTRIC %%%%%%%%%%%%%%%%%%%%%%%%%%%%%%%%%%%%%%%%%%%%%%%%%%%%%%%%%%%%%%%%%
 dielectric build on homogeneous background
 environment bulk permitt.  =    100.0000000 
 dielectric flags
 need gradient              =  F 
 need factor depend. sqrt   =  T 
 total dielectric charge    =      0.0120048

%%%% COMPUTE ELECTROSTATIC POTENTIAL %%%%%%%%%%%%%%%%%%%%%%%%%%%%%%%%%%%%%%%%%%%
 Warning: bad guess with residual norm =   0.306348E+04, reset to no guess
 Iteration #          1
  pAp =    1270.20519291385       rzold =    1269.21573900378       alpha = 
  0.999221028290874     
 delta_qm =   0.627183E-01 delta_en =   0.305876E+04 tol =   0.100000E-04
 Iteration #          2
  pAp =    337.798242416847       rzold =    15.8463591065392       alpha = 
  4.691072100660784E-002
 delta_qm =   0.483252E-01 delta_en =   0.181595E+04 tol =   0.100000E-04
 Iteration #          3
  pAp =    21.3365073110630       rzold =    2.30270336981308       alpha = 
  0.107923163629463     
 delta_qm =   0.353908E-01 delta_en =   0.973949E+03 tol =   0.100000E-04
 Iteration #          4
  pAp =   0.341033265161497       rzold =   9.957824134515111E-002  alpha = 
  0.291989818934513     
 delta_qm =   0.238264E-01 delta_en =   0.441442E+03 tol =   0.100000E-04
 Iteration #          5
  pAp =   0.395900631861316       rzold =   0.205582304727164       alpha = 
  0.519277536286376     
 delta_qm =   0.148789E-01 delta_en =   0.172146E+03 tol =   0.100000E-04
 Iteration #          6
  pAp =   0.355720153641816       rzold =   0.165794075575665       alpha = 
  0.466080074120869     
 delta_qm =   0.795864E-02 delta_en =   0.492532E+02 tol =   0.100000E-04
 Iteration #          7
  pAp =   9.667392591390861E-002  rzold =   4.231604874615318E-002  alpha = 
  0.437719357583937     
 delta_qm =   0.781015E-02 delta_en =   0.474324E+02 tol =   0.100000E-04
 Iteration #          8
  pAp =   2.262398368802199E-002  rzold =   1.363795426728064E-002  alpha = 
  0.602809587177218     
 delta_qm =   0.709517E-02 delta_en =   0.391455E+02 tol =   0.100000E-04
 Iteration #          9
  pAp =   6.935640479918452E-003  rzold =   6.161272411209009E-003  alpha = 
  0.888349450789504     
 delta_qm =   0.526290E-02 delta_en =   0.215380E+02 tol =   0.100000E-04
 Iteration #         10
  pAp =   9.349189800893453E-003  rzold =   6.498909595573712E-003  alpha = 
  0.695130779669554     
 delta_qm =   0.281163E-02 delta_en =   0.614712E+01 tol =   0.100000E-04
 Iteration #         11
  pAp =   6.424056238644283E-003  rzold =   3.032234199355760E-003  alpha = 
  0.472012399442455     
 delta_qm =   0.269444E-02 delta_en =   0.564537E+01 tol =   0.100000E-04
 Iteration #         12
  pAp =   1.174339139427409E-003  rzold =   7.569259203645242E-004  alpha = 
  0.644554792522363     
 delta_qm =   0.236114E-02 delta_en =   0.433511E+01 tol =   0.100000E-04
 Iteration #         13
  pAp =   1.169653147713926E-003  rzold =   8.485808294270334E-004  alpha = 
  0.725497837615857     
 delta_qm =   0.207603E-02 delta_en =   0.335138E+01 tol =   0.100000E-04
 Iteration #         14
  pAp =   1.882207758445826E-003  rzold =   1.323203828257516E-003  alpha = 
  0.703006255457214     
 delta_qm =   0.241028E-02 delta_en =   0.451743E+01 tol =   0.100000E-04
 Iteration #         15
  pAp =   3.003865976690289E-002  rzold =   2.205610631466955E-003  alpha = 
  7.342573365730300E-002
 delta_qm =   0.256422E-02 delta_en =   0.511289E+01 tol =   0.100000E-04
 Iteration #         16
  pAp =   5.711251369858819E-003  rzold =   1.534131143282426E-003  alpha = 
  0.268615587711446     
 delta_qm =   0.217074E-02 delta_en =   0.366414E+01 tol =   0.100000E-04
 Iteration #         17
  pAp =   4.844594010934208E-004  rzold =   3.153799516358395E-004  alpha = 
  0.650993562977681     
 delta_qm =   0.102177E-02 delta_en =   0.811822E+00 tol =   0.100000E-04
 Iteration #         18
  pAp =   4.976240353296264E-004  rzold =   1.700869269133575E-004  alpha = 
  0.341798054028262     
 delta_qm =   0.603405E-03 delta_en =   0.283122E+00 tol =   0.100000E-04
 Iteration #         19
  pAp =   1.878772545545240E-004  rzold =   7.864359978487224E-005  alpha = 
  0.418590318297679     
 delta_qm =   0.441948E-03 delta_en =   0.151879E+00 tol =   0.100000E-04
 Iteration #         20
  pAp =   4.508604114351245E-005  rzold =   2.445548665380585E-005  alpha = 
  0.542418141702929     
 delta_qm =   0.310007E-03 delta_en =   0.747309E-01 tol =   0.100000E-04
 Iteration #         21
  pAp =   1.028986115939972E-005  rzold =   6.488132434670443E-006  alpha = 
  0.630536441081479     
 delta_qm =   0.116692E-03 delta_en =   0.105886E-01 tol =   0.100000E-04
 Iteration #         22
  pAp =   3.400850961127710E-006  rzold =   1.319823096097219E-006  alpha = 
  0.388086132318945     
 delta_qm =   0.660912E-04 delta_en =   0.339659E-02 tol =   0.100000E-04
 Iteration #         23
  pAp =   7.914717431954428E-006  rzold =   1.103734721953215E-006  alpha = 
  0.139453458881180     
 delta_qm =   0.448853E-04 delta_en =   0.156662E-02 tol =   0.100000E-04
 Iteration #         24
  pAp =   9.164197843013548E-007  rzold =   3.827575926406361E-007  alpha = 
  0.417666225890613     
 delta_qm =   0.289210E-04 delta_en =   0.650404E-03 tol =   0.100000E-04
 Iteration #         25
  pAp =   1.928568594519702E-007  rzold =   1.261497673086674E-007  alpha = 
  0.654110865784809     
 delta_qm =   0.247639E-04 delta_en =   0.476863E-03 tol =   0.100000E-04
 Iteration #         26
  pAp =   8.601642338903116E-008  rzold =   5.460196097759892E-008  alpha = 
  0.634785298275513     
 delta_qm =   0.153025E-04 delta_en =   0.182088E-03 tol =   0.100000E-04
 Iteration #         27
  pAp =   4.091541783409773E-008  rzold =   2.458590482741894E-008  alpha = 
  0.600895851219433     
 delta_qm =   0.718333E-05 delta_en =   0.401244E-04 tol =   0.100000E-04
 Iteration #         28
  pAp =   9.002360653566092E-007  rzold =   4.381952198247483E-008  alpha = 
  4.867559040207601E-002
 delta_qm =   0.618305E-05 delta_en =   0.297277E-04 tol =   0.100000E-04
 Iteration #         29
  pAp =   1.074911324383682E-008  rzold =   5.507049243599227E-009  alpha = 
  0.512325911791541     
 delta_qm =   0.375939E-05 delta_en =   0.109899E-04 tol =   0.100000E-04
 Iteration #         30
  pAp =   2.586942593646490E-009  rzold =   1.381753157006808E-009  alpha = 
  0.534125944812375     
 delta_qm =   0.202544E-05 delta_en =   0.319002E-05 tol =   0.100000E-04
 Charges are converged, EXIT

%%%% ELECTRONS %%%%%%%%%%%%%%%%%%%%%%%%%%%%%%%%%%%%%%%%%%%%%%%%%%%%%%%%%%%%%%%%%
 number of electrons        =         89
 total electronic charge    =     89.0000000
 number of spin components  =  1

%%%% BOUNDARY %%%%%%%%%%%%%%%%%%%%%%%%%%%%%%%%%%%%%%%%%%%%%%%%%%%%%%%%%%%%%%%%%%
 boundary mode              = full                 
 boundary is built as a function of a smooth density
 function type              =  2 
 using the modified SCCS function with parameters 
 rhomax                     =      0.0050000 
 rhomin                     =      0.0001000 
 volume of the QM region    =   1468.7980433 
 surface of the QM region   =    270.5173249 

%%%% DIELECTRIC %%%%%%%%%%%%%%%%%%%%%%%%%%%%%%%%%%%%%%%%%%%%%%%%%%%%%%%%%%%%%%%%%
 dielectric build on homogeneous background
 environment bulk permitt.  =    100.0000000 
 dielectric flags
 need gradient              =  F 
 need factor depend. sqrt   =  T 
 total dielectric charge    =      0.0059193

%%%% COMPUTE ELECTROSTATIC POTENTIAL %%%%%%%%%%%%%%%%%%%%%%%%%%%%%%%%%%%%%%%%%%%
 Warning: bad guess with residual norm =   0.338817E+04, reset to no guess
 Iteration #          1
  pAp =    1270.85721823526       rzold =    1269.68559616999       alpha = 
  0.999078085210158     
 delta_qm =   0.659490E-01 delta_en =   0.338199E+04 tol =   0.100000E-04
 Iteration #          2
  pAp =    452.429177769583       rzold =    20.3016036760388       alpha = 
  4.487244561927465E-002
 delta_qm =   0.487494E-01 delta_en =   0.184797E+04 tol =   0.100000E-04
 Iteration #          3
  pAp =    19.7315540695018       rzold =    2.24784949904400       alpha = 
  0.113921563964311     
 delta_qm =   0.360453E-01 delta_en =   0.101031E+04 tol =   0.100000E-04
 Iteration #          4
  pAp =   0.369563522845109       rzold =   0.101981702666209       alpha = 
  0.275951754873145     
 delta_qm =   0.243936E-01 delta_en =   0.462708E+03 tol =   0.100000E-04
 Iteration #          5
  pAp =   0.351186669415574       rzold =   0.197006948618705       alpha = 
  0.560975019201479     
 delta_qm =   0.143252E-01 delta_en =   0.159573E+03 tol =   0.100000E-04
 Iteration #          6
  pAp =   0.345307911065819       rzold =   0.160550747118702       alpha = 
  0.464949518889241     
 delta_qm =   0.878509E-02 delta_en =   0.600134E+02 tol =   0.100000E-04
 Iteration #          7
  pAp =   9.444706360813436E-002  rzold =   4.184238155630732E-002  alpha = 
  0.443024695081188     
 delta_qm =   0.854843E-02 delta_en =   0.568236E+02 tol =   0.100000E-04
 Iteration #          8
  pAp =   2.247034790100051E-002  rzold =   1.415434879616166E-002  alpha = 
  0.629912311928709     
 delta_qm =   0.762227E-02 delta_en =   0.451778E+02 tol =   0.100000E-04
 Iteration #          9
  pAp =   7.678316257945116E-003  rzold =   7.273907609409557E-003  alpha = 
  0.947331076898910     
 delta_qm =   0.577581E-02 delta_en =   0.259407E+02 tol =   0.100000E-04
 Iteration #         10
  pAp =   1.277882877849482E-002  rzold =   8.662092141471364E-003  alpha = 
  0.677847108809267     
 delta_qm =   0.355902E-02 delta_en =   0.984954E+01 tol =   0.100000E-04
 Iteration #         11
  pAp =   1.141998256590558E-002  rzold =   4.801354073915786E-003  alpha = 
  0.420434448669848     
 delta_qm =   0.364963E-02 delta_en =   0.103575E+02 tol =   0.100000E-04
 Iteration #         12
  pAp =   4.332155723416258E-003  rzold =   1.888518397942604E-003  alpha = 
  0.435930404748552     
 delta_qm =   0.347391E-02 delta_en =   0.938411E+01 tol =   0.100000E-04
 Iteration #         13
  pAp =   1.364532422608815E-003  rzold =   1.390555075429153E-003  alpha = 
   1.01907074715791     
 delta_qm =   0.285159E-02 delta_en =   0.632310E+01 tol =   0.100000E-04
 Iteration #         14
  pAp =   2.523069045003280E-003  rzold =   2.101572118407134E-003  alpha = 
  0.832942769667408     
 delta_qm =   0.309096E-02 delta_en =   0.742920E+01 tol =   0.100000E-04
 Iteration #         15
  pAp =   1.981113007508893E-002  rzold =   2.291002101463969E-003  alpha = 
  0.115642171485449     
 delta_qm =   0.295321E-02 delta_en =   0.678179E+01 tol =   0.100000E-04
 Iteration #         16
  pAp =   2.253011865665873E-002  rzold =   3.207214890212245E-003  alpha = 
  0.142352330189098     
 delta_qm =   0.252980E-02 delta_en =   0.497655E+01 tol =   0.100000E-04
 Iteration #         17
  pAp =   1.481360613140377E-003  rzold =   5.712361969139721E-004  alpha = 
  0.385615893825470     
 delta_qm =   0.162331E-02 delta_en =   0.204908E+01 tol =   0.100000E-04
 Iteration #         18
  pAp =   6.468119927536382E-004  rzold =   2.964410439113158E-004  alpha = 
  0.458310988714500     
 delta_qm =   0.679426E-03 delta_en =   0.358956E+00 tol =   0.100000E-04
 Iteration #         19
  pAp =   1.317723214512330E-004  rzold =   7.657534690640122E-005  alpha = 
  0.581118599589525     
 delta_qm =   0.467302E-03 delta_en =   0.169806E+00 tol =   0.100000E-04
 Iteration #         20
  pAp =   4.688260289503099E-005  rzold =   2.676658046753750E-005  alpha = 
  0.570927781622262     
 delta_qm =   0.326835E-03 delta_en =   0.830643E-01 tol =   0.100000E-04
 Iteration #         21
  pAp =   1.105033060772599E-005  rzold =   7.217322721094798E-006  alpha = 
  0.653131836259153     
 delta_qm =   0.126391E-03 delta_en =   0.124220E-01 tol =   0.100000E-04
 Iteration #         22
  pAp =   2.485428727477408E-006  rzold =   1.395140109138541E-006  alpha = 
  0.561327747488676     
 delta_qm =   0.606543E-04 delta_en =   0.286075E-02 tol =   0.100000E-04
 Iteration #         23
  pAp =   5.655467869725886E-006  rzold =   9.183653102246765E-007  alpha = 
  0.162385381966495     
 delta_qm =   0.496314E-04 delta_en =   0.191544E-02 tol =   0.100000E-04
 Iteration #         24
  pAp =   1.581740310457406E-006  rzold =   6.306256627612290E-007  alpha = 
  0.398691023167302     
 delta_qm =   0.425168E-04 delta_en =   0.140565E-02 tol =   0.100000E-04
 Iteration #         25
  pAp =   2.668505366608492E-007  rzold =   1.862293052429115E-007  alpha = 
  0.697878698589981     
 delta_qm =   0.295721E-04 delta_en =   0.680016E-03 tol =   0.100000E-04
 Iteration #         26
  pAp =   1.071495639002785E-007  rzold =   6.953116617425271E-008  alpha = 
  0.648916931094220     
 delta_qm =   0.146909E-04 delta_en =   0.167823E-03 tol =   0.100000E-04
 Iteration #         27
  pAp =   7.174991953710971E-008  rzold =   3.248388860412652E-008  alpha = 
  0.452737631117838     
 delta_qm =   0.734072E-05 delta_en =   0.419019E-04 tol =   0.100000E-04
 Iteration #         28
  pAp =   5.764960168871015E-008  rzold =   8.250678126763795E-009  alpha = 
  0.143117695267261     
 delta_qm =   0.621402E-05 delta_en =   0.300263E-04 tol =   0.100000E-04
 Iteration #         29
  pAp =   1.152264722885868E-007  rzold =   1.589647362899405E-008  alpha = 
  0.137958520409972     
 delta_qm =   0.438833E-05 delta_en =   0.149746E-04 tol =   0.100000E-04
 Iteration #         30
  pAp =   4.008699548124565E-009  rzold =   1.724792361067531E-009  alpha = 
  0.430262318330756     
 delta_qm =   0.238462E-05 delta_en =   0.442176E-05 tol =   0.100000E-04
 Charges are converged, EXIT

%%%% ELECTRONS %%%%%%%%%%%%%%%%%%%%%%%%%%%%%%%%%%%%%%%%%%%%%%%%%%%%%%%%%%%%%%%%%
 number of electrons        =         89
 total electronic charge    =     89.0000000
 number of spin components  =  1

%%%% BOUNDARY %%%%%%%%%%%%%%%%%%%%%%%%%%%%%%%%%%%%%%%%%%%%%%%%%%%%%%%%%%%%%%%%%%
 boundary mode              = full                 
 boundary is built as a function of a smooth density
 function type              =  2 
 using the modified SCCS function with parameters 
 rhomax                     =      0.0050000 
 rhomin                     =      0.0001000 
 volume of the QM region    =   1469.7703128 
 surface of the QM region   =    270.2643387 

%%%% DIELECTRIC %%%%%%%%%%%%%%%%%%%%%%%%%%%%%%%%%%%%%%%%%%%%%%%%%%%%%%%%%%%%%%%%%
 dielectric build on homogeneous background
 environment bulk permitt.  =    100.0000000 
 dielectric flags
 need gradient              =  F 
 need factor depend. sqrt   =  T 
 total dielectric charge    =      0.0085873

%%%% COMPUTE ELECTROSTATIC POTENTIAL %%%%%%%%%%%%%%%%%%%%%%%%%%%%%%%%%%%%%%%%%%%
 Warning: bad guess with residual norm =   0.347407E+04, reset to no guess
 Iteration #          1
  pAp =    1271.34539666900       rzold =    1270.05857183164       alpha = 
  0.998987824362499     
 delta_qm =   0.667738E-01 delta_en =   0.346712E+04 tol =   0.100000E-04
 Iteration #          2
  pAp =    511.082827843312       rzold =    22.7599740792017       alpha = 
  4.453284837458758E-002
 delta_qm =   0.470954E-01 delta_en =   0.172470E+04 tol =   0.100000E-04
 Iteration #          3
  pAp =    19.5816112014681       rzold =    2.26979414262813       alpha = 
  0.115914575122294     
 delta_qm =   0.352403E-01 delta_en =   0.965686E+03 tol =   0.100000E-04
 Iteration #          4
  pAp =   0.459101752159267       rzold =   0.110850351925420       alpha = 
  0.241450509400288     
 delta_qm =   0.246317E-01 delta_en =   0.471785E+03 tol =   0.100000E-04
 Iteration #          5
  pAp =   0.281737161926877       rzold =   0.175798604741762       alpha = 
  0.623980888922950     
 delta_qm =   0.144336E-01 delta_en =   0.161996E+03 tol =   0.100000E-04
 Iteration #          6
  pAp =   0.339081716826303       rzold =   0.160495583303936       alpha = 
  0.473324202809055     
 delta_qm =   0.808951E-02 delta_en =   0.508863E+02 tol =   0.100000E-04
 Iteration #          7
  pAp =   9.382302494806886E-002  rzold =   4.065444000344160E-002  alpha = 
  0.433309840798076     
 delta_qm =   0.791081E-02 delta_en =   0.486629E+02 tol =   0.100000E-04
 Iteration #          8
  pAp =   2.060034138878637E-002  rzold =   1.306180239816593E-002  alpha = 
  0.634057569806878     
 delta_qm =   0.704245E-02 delta_en =   0.385659E+02 tol =   0.100000E-04
 Iteration #          9
  pAp =   7.668317870775319E-003  rzold =   6.739020094565619E-003  alpha = 
  0.878813347089935     
 delta_qm =   0.520779E-02 delta_en =   0.210893E+02 tol =   0.100000E-04
 Iteration #         10
  pAp =   1.168143354690779E-002  rzold =   7.429491767331917E-003  alpha = 
  0.636008563289614     
 delta_qm =   0.310347E-02 delta_en =   0.748950E+01 tol =   0.100000E-04
 Iteration #         11
  pAp =   1.256984109730358E-002  rzold =   4.752362704684469E-003  alpha = 
  0.378076593641579     
 delta_qm =   0.303680E-02 delta_en =   0.717116E+01 tol =   0.100000E-04
 Iteration #         12
  pAp =   3.734353258652987E-003  rzold =   1.685685970394388E-003  alpha = 
  0.451399707965076     
 delta_qm =   0.304874E-02 delta_en =   0.722766E+01 tol =   0.100000E-04
 Iteration #         13
  pAp =   8.532002343535589E-004  rzold =   9.532293610175138E-004  alpha = 
   1.11723991934876     
 delta_qm =   0.239695E-02 delta_en =   0.446760E+01 tol =   0.100000E-04
 Iteration #         14
  pAp =   1.929600592034467E-003  rzold =   1.577618432037189E-003  alpha = 
  0.817588074210650     
 delta_qm =   0.241922E-02 delta_en =   0.455099E+01 tol =   0.100000E-04
 Iteration #         15
  pAp =   1.510403144422284E-002  rzold =   2.007534932996248E-003  alpha = 
  0.132913847565122     
 delta_qm =   0.247205E-02 delta_en =   0.475193E+01 tol =   0.100000E-04
 Iteration #         16
  pAp =   2.664984061138256E-002  rzold =   3.043856337458181E-003  alpha = 
  0.114216680761614     
 delta_qm =   0.216476E-02 delta_en =   0.364397E+01 tol =   0.100000E-04
 Iteration #         17
  pAp =   1.226921730674673E-003  rzold =   4.919886733926308E-004  alpha = 
  0.400994343071983     
 delta_qm =   0.143386E-02 delta_en =   0.159870E+01 tol =   0.100000E-04
 Iteration #         18
  pAp =   3.987751632534481E-004  rzold =   2.145086703788834E-004  alpha = 
  0.537918832829990     
 delta_qm =   0.611580E-03 delta_en =   0.290846E+00 tol =   0.100000E-04
 Iteration #         19
  pAp =   1.082902880960211E-004  rzold =   6.371153756810966E-005  alpha = 
  0.588340272136099     
 delta_qm =   0.415072E-03 delta_en =   0.133969E+00 tol =   0.100000E-04
 Iteration #         20
  pAp =   3.704079765948186E-005  rzold =   2.115856645362623E-005  alpha = 
  0.571223294059111     
 delta_qm =   0.284188E-03 delta_en =   0.628012E-01 tol =   0.100000E-04
 Iteration #         21
  pAp =   8.361355316166589E-006  rzold =   5.453129796911147E-006  alpha = 
  0.652182521937273     
 delta_qm =   0.105291E-03 delta_en =   0.862059E-02 tol =   0.100000E-04
 Iteration #         22
  pAp =   1.827868787636636E-006  rzold =   1.063065794778263E-006  alpha = 
  0.581587585481322     
 delta_qm =   0.493225E-04 delta_en =   0.189168E-02 tol =   0.100000E-04
 Iteration #         23
  pAp =   9.835251303345531E-007  rzold =   4.080950938725022E-007  alpha = 
  0.414931028486975     
 delta_qm =   0.438916E-04 delta_en =   0.149803E-02 tol =   0.100000E-04
 Iteration #         24
  pAp =   4.351686385889649E-006  rzold =   7.278963999913033E-007  alpha = 
  0.167267660268789     
 delta_qm =   0.375000E-04 delta_en =   0.109350E-02 tol =   0.100000E-04
 Iteration #         25
  pAp =   2.389275540261593E-007  rzold =   1.615772612316666E-007  alpha = 
  0.676260475231652     
 delta_qm =   0.259701E-04 delta_en =   0.524451E-03 tol =   0.100000E-04
 Iteration #         26
  pAp =   7.549343454527906E-008  rzold =   5.035798586873711E-008  alpha = 
  0.667051196863135     
 delta_qm =   0.112320E-04 delta_en =   0.981010E-04 tol =   0.100000E-04
 Iteration #         27
  pAp =   5.132869238509703E-008  rzold =   1.979420057098723E-008  alpha = 
  0.385636174451511     
 delta_qm =   0.598857E-05 delta_en =   0.278870E-04 tol =   0.100000E-04
 Iteration #         28
  pAp =   6.597974889753369E-007  rzold =   3.459528629376789E-008  alpha = 
  5.243318877659606E-002
 delta_qm =   0.482828E-05 delta_en =   0.181277E-04 tol =   0.100000E-04
 Iteration #         29
  pAp =   8.168141912540610E-009  rzold =   3.577033355731217E-009  alpha = 
  0.437924976577521     
 delta_qm =   0.291955E-05 delta_en =   0.662809E-05 tol =   0.100000E-04
 Charges are converged, EXIT

%%%% ELECTRONS %%%%%%%%%%%%%%%%%%%%%%%%%%%%%%%%%%%%%%%%%%%%%%%%%%%%%%%%%%%%%%%%%
 number of electrons        =         89
 total electronic charge    =     89.0000000
 number of spin components  =  1

%%%% BOUNDARY %%%%%%%%%%%%%%%%%%%%%%%%%%%%%%%%%%%%%%%%%%%%%%%%%%%%%%%%%%%%%%%%%%
 boundary mode              = full                 
 boundary is built as a function of a smooth density
 function type              =  2 
 using the modified SCCS function with parameters 
 rhomax                     =      0.0050000 
 rhomin                     =      0.0001000 
 volume of the QM region    =   1469.7929840 
 surface of the QM region   =    270.6760915 

%%%% DIELECTRIC %%%%%%%%%%%%%%%%%%%%%%%%%%%%%%%%%%%%%%%%%%%%%%%%%%%%%%%%%%%%%%%%%
 dielectric build on homogeneous background
 environment bulk permitt.  =    100.0000000 
 dielectric flags
 need gradient              =  F 
 need factor depend. sqrt   =  T 
 total dielectric charge    =      0.0039846

%%%% COMPUTE ELECTROSTATIC POTENTIAL %%%%%%%%%%%%%%%%%%%%%%%%%%%%%%%%%%%%%%%%%%%
 Warning: bad guess with residual norm =   0.347201E+04, reset to no guess
 Iteration #          1
  pAp =    1271.33833406988       rzold =    1270.01664181742       alpha = 
  0.998960392983482     
 delta_qm =   0.667522E-01 delta_en =   0.346488E+04 tol =   0.100000E-04
 Iteration #          2
  pAp =    533.386722052681       rzold =    23.6499073989355       alpha = 
  4.433913785465328E-002
 delta_qm =   0.462473E-01 delta_en =   0.166314E+04 tol =   0.100000E-04
 Iteration #          3
  pAp =    19.1463080744931       rzold =    2.23414031509441       alpha = 
  0.116687786825636     
 delta_qm =   0.350649E-01 delta_en =   0.956096E+03 tol =   0.100000E-04
 Iteration #          4
  pAp =   0.526157885198222       rzold =   0.116657697075957       alpha = 
  0.221716143305556     
 delta_qm =   0.248113E-01 delta_en =   0.478692E+03 tol =   0.100000E-04
 Iteration #          5
  pAp =   0.244172414987491       rzold =   0.162225160085984       alpha = 
  0.664387744595535     
 delta_qm =   0.144654E-01 delta_en =   0.162711E+03 tol =   0.100000E-04
 Iteration #          6
  pAp =   0.332440705083093       rzold =   0.159580297380184       alpha = 
  0.480026347376134     
 delta_qm =   0.823040E-02 delta_en =   0.526742E+02 tol =   0.100000E-04
 Iteration #          7
  pAp =   9.418391350983386E-002  rzold =   4.088416229852176E-002  alpha = 
  0.434088590874417     
 delta_qm =   0.806707E-02 delta_en =   0.506043E+02 tol =   0.100000E-04
 Iteration #          8
  pAp =   2.030107636615484E-002  rzold =   1.311716202589210E-002  alpha = 
  0.646131357239783     
 delta_qm =   0.714563E-02 delta_en =   0.397042E+02 tol =   0.100000E-04
 Iteration #          9
  pAp =   8.266177894988255E-003  rzold =   7.199408086808900E-003  alpha = 
  0.870947634840265     
 delta_qm =   0.540716E-02 delta_en =   0.227350E+02 tol =   0.100000E-04
 Iteration #         10
  pAp =   1.357630114915471E-002  rzold =   8.427505782015400E-003  alpha = 
  0.620751240667648     
 delta_qm =   0.338458E-02 delta_en =   0.890770E+01 tol =   0.100000E-04
 Iteration #         11
  pAp =   1.501349862117018E-002  rzold =   5.810956302708516E-003  alpha = 
  0.387048778524855     
 delta_qm =   0.331921E-02 delta_en =   0.856695E+01 tol =   0.100000E-04
 Iteration #         12
  pAp =   4.314800232489454E-003  rzold =   2.054013166108592E-003  alpha = 
  0.476038994955629     
 delta_qm =   0.332892E-02 delta_en =   0.861712E+01 tol =   0.100000E-04
 Iteration #         13
  pAp =   1.004366189968398E-003  rzold =   1.165147957766164E-003  alpha = 
   1.16008281581325     
 delta_qm =   0.257483E-02 delta_en =   0.515530E+01 tol =   0.100000E-04
 Iteration #         14
  pAp =   2.450427458256750E-003  rzold =   1.888609907138670E-003  alpha = 
  0.770726715771558     
 delta_qm =   0.264131E-02 delta_en =   0.542494E+01 tol =   0.100000E-04
 Iteration #         15
  pAp =   9.049350521941367E-002  rzold =   5.190068430326445E-003  alpha = 
  5.735293839864448E-002
 delta_qm =   0.252209E-02 delta_en =   0.494626E+01 tol =   0.100000E-04
 Iteration #         16
  pAp =   4.212012596028069E-003  rzold =   1.408736125590560E-003  alpha = 
  0.334456769412086     
 delta_qm =   0.206692E-02 delta_en =   0.332203E+01 tol =   0.100000E-04
 Iteration #         17
  pAp =   1.085891810057969E-003  rzold =   4.227288606916734E-004  alpha = 
  0.389291876756218     
 delta_qm =   0.133718E-02 delta_en =   0.139039E+01 tol =   0.100000E-04
 Iteration #         18
  pAp =   5.322173554903158E-004  rzold =   2.368343526929706E-004  alpha = 
  0.444995545992262     
 delta_qm =   0.607056E-03 delta_en =   0.286559E+00 tol =   0.100000E-04
 Iteration #         19
  pAp =   1.156595141556285E-004  rzold =   6.660491038603705E-005  alpha = 
  0.575870570374480     
 delta_qm =   0.416022E-03 delta_en =   0.134583E+00 tol =   0.100000E-04
 Iteration #         20
  pAp =   3.810178438541042E-005  rzold =   2.176810428962173E-005  alpha = 
  0.571314562841235     
 delta_qm =   0.285246E-03 delta_en =   0.632696E-01 tol =   0.100000E-04
 Iteration #         21
  pAp =   8.532023443187750E-006  rzold =   5.610770109080596E-006  alpha = 
  0.657613067573135     
 delta_qm =   0.108780E-03 delta_en =   0.920133E-02 tol =   0.100000E-04
 Iteration #         22
  pAp =   2.134195409351218E-006  rzold =   1.188511541546772E-006  alpha = 
  0.556889746992789     
 delta_qm =   0.554640E-04 delta_en =   0.239209E-02 tol =   0.100000E-04
 Iteration #         23
  pAp =   5.474059669580363E-006  rzold =   8.754279441249895E-007  alpha = 
  0.159922981656519     
 delta_qm =   0.512991E-04 delta_en =   0.204633E-02 tol =   0.100000E-04
 Iteration #         24
  pAp =   1.295379466280301E-006  rzold =   5.731805402952881E-007  alpha = 
  0.442480798264607     
 delta_qm =   0.423576E-04 delta_en =   0.139514E-02 tol =   0.100000E-04
 Iteration #         25
  pAp =   2.609382175204497E-007  rzold =   1.836800667024512E-007  alpha = 
  0.703921673290561     
 delta_qm =   0.273477E-04 delta_en =   0.581566E-03 tol =   0.100000E-04
 Iteration #         26
  pAp =   9.217130424760127E-008  rzold =   5.684365206784185E-008  alpha = 
  0.616717453787372     
 delta_qm =   0.121266E-04 delta_en =   0.114350E-03 tol =   0.100000E-04
 Iteration #         27
  pAp =   3.198511683898318E-007  rzold =   3.318139587388975E-008  alpha = 
  0.103740111505388     
 delta_qm =   0.997349E-05 delta_en =   0.773483E-04 tol =   0.100000E-04
 Iteration #         28
  pAp =   2.366011722199947E-007  rzold =   4.220614264591432E-008  alpha = 
  0.178385179793913     
 delta_qm =   0.518893E-05 delta_en =   0.209369E-04 tol =   0.100000E-04
 Iteration #         29
  pAp =   8.485340313216763E-009  rzold =   3.974406201572675E-009  alpha = 
  0.468385009306243     
 delta_qm =   0.314313E-05 delta_en =   0.768213E-05 tol =   0.100000E-04
 Charges are converged, EXIT

%%%% ELECTRONS %%%%%%%%%%%%%%%%%%%%%%%%%%%%%%%%%%%%%%%%%%%%%%%%%%%%%%%%%%%%%%%%%
 number of electrons        =         89
 total electronic charge    =     89.0000000
 number of spin components  =  1

%%%% BOUNDARY %%%%%%%%%%%%%%%%%%%%%%%%%%%%%%%%%%%%%%%%%%%%%%%%%%%%%%%%%%%%%%%%%%
 boundary mode              = full                 
 boundary is built as a function of a smooth density
 function type              =  2 
 using the modified SCCS function with parameters 
 rhomax                     =      0.0050000 
 rhomin                     =      0.0001000 
 volume of the QM region    =   1469.7265744 
 surface of the QM region   =    271.0923860 

%%%% DIELECTRIC %%%%%%%%%%%%%%%%%%%%%%%%%%%%%%%%%%%%%%%%%%%%%%%%%%%%%%%%%%%%%%%%%
 dielectric build on homogeneous background
 environment bulk permitt.  =    100.0000000 
 dielectric flags
 need gradient              =  F 
 need factor depend. sqrt   =  T 
 total dielectric charge    =      0.0050754

%%%% COMPUTE ELECTROSTATIC POTENTIAL %%%%%%%%%%%%%%%%%%%%%%%%%%%%%%%%%%%%%%%%%%%
 Warning: bad guess with residual norm =   0.346481E+04, reset to no guess
 Iteration #          1
  pAp =    1271.23444115089       rzold =    1269.89883270258       alpha = 
  0.998949361026514     
 delta_qm =   0.666822E-01 delta_en =   0.345761E+04 tol =   0.100000E-04
 Iteration #          2
  pAp =    539.336073241213       rzold =    23.9290288627599       alpha = 
  4.436756606869466E-002
 delta_qm =   0.457356E-01 delta_en =   0.162654E+04 tol =   0.100000E-04
 Iteration #          3
  pAp =    19.2050818119768       rzold =    2.23477848178678       alpha = 
  0.116363913659202     
 delta_qm =   0.350187E-01 delta_en =   0.953580E+03 tol =   0.100000E-04
 Iteration #          4
  pAp =   0.600381058958416       rzold =   0.123497320735663       alpha = 
  0.205698229304427     
 delta_qm =   0.251319E-01 delta_en =   0.491143E+03 tol =   0.100000E-04
 Iteration #          5
  pAp =   0.214567821115837       rzold =   0.150989074908719       alpha = 
  0.703689277001166     
 delta_qm =   0.146576E-01 delta_en =   0.167063E+03 tol =   0.100000E-04
 Iteration #          6
  pAp =   0.328512378567670       rzold =   0.159410337602967       alpha = 
  0.485249104761301     
 delta_qm =   0.788288E-02 delta_en =   0.483199E+02 tol =   0.100000E-04
 Iteration #          7
  pAp =   9.522335348465265E-002  rzold =   4.087234063765109E-002  alpha = 
  0.429226015908362     
 delta_qm =   0.781375E-02 delta_en =   0.474761E+02 tol =   0.100000E-04
 Iteration #          8
  pAp =   1.969012501945978E-002  rzold =   1.271491091011540E-002  alpha = 
  0.645750643916645     
 delta_qm =   0.691106E-02 delta_en =   0.371403E+02 tol =   0.100000E-04
 Iteration #          9
  pAp =   8.101707289250595E-003  rzold =   6.908184026177363E-003  alpha = 
  0.852682500063066     
 delta_qm =   0.523795E-02 delta_en =   0.213344E+02 tol =   0.100000E-04
 Iteration #         10
  pAp =   1.308820457666549E-002  rzold =   7.955295361861096E-003  alpha = 
  0.607821746310744     
 delta_qm =   0.322098E-02 delta_en =   0.806739E+01 tol =   0.100000E-04
 Iteration #         11
  pAp =   1.416973707582553E-002  rzold =   5.542542242473462E-003  alpha = 
  0.391153499377867     
 delta_qm =   0.306742E-02 delta_en =   0.731651E+01 tol =   0.100000E-04
 Iteration #         12
  pAp =   4.046291689251021E-003  rzold =   1.919227013004452E-003  alpha = 
  0.474317513515617     
 delta_qm =   0.312086E-02 delta_en =   0.757365E+01 tol =   0.100000E-04
 Iteration #         13
  pAp =   9.118224902768059E-004  rzold =   1.034815779491249E-003  alpha = 
   1.13488731691308     
 delta_qm =   0.248015E-02 delta_en =   0.478313E+01 tol =   0.100000E-04
 Iteration #         14
  pAp =   1.902854782103093E-003  rzold =   1.677607219202308E-003  alpha = 
  0.881626509274746     
 delta_qm =   0.236774E-02 delta_en =   0.435939E+01 tol =   0.100000E-04
 Iteration #         15
  pAp =   1.038449074883746E-002  rzold =   1.612923125077732E-003  alpha = 
  0.155320387305299     
 delta_qm =   0.234609E-02 delta_en =   0.428002E+01 tol =   0.100000E-04
 Iteration #         16
  pAp =   2.721484685178243E-002  rzold =   2.946659217129878E-003  alpha = 
  0.108273959180369     
 delta_qm =   0.196896E-02 delta_en =   0.301460E+01 tol =   0.100000E-04
 Iteration #         17
  pAp =   1.203910591175792E-003  rzold =   4.380579162876926E-004  alpha = 
  0.363862499008225     
 delta_qm =   0.132844E-02 delta_en =   0.137226E+01 tol =   0.100000E-04
 Iteration #         18
  pAp =   4.190818479670095E-004  rzold =   2.084100063236398E-004  alpha = 
  0.497301439646334     
 delta_qm =   0.587245E-03 delta_en =   0.268161E+00 tol =   0.100000E-04
 Iteration #         19
  pAp =   1.069168926020291E-004  rzold =   6.292773601644143E-005  alpha = 
  0.588566824988768     
 delta_qm =   0.398947E-03 delta_en =   0.123762E+00 tol =   0.100000E-04
 Iteration #         20
  pAp =   3.565989124534011E-005  rzold =   2.036786586449458E-005  alpha = 
  0.571170162139969     
 delta_qm =   0.276405E-03 delta_en =   0.594083E-01 tol =   0.100000E-04
 Iteration #         21
  pAp =   7.888594829569030E-006  rzold =   5.201617428323054E-006  alpha = 
  0.659384534343898     
 delta_qm =   0.103675E-03 delta_en =   0.835811E-02 tol =   0.100000E-04
 Iteration #         22
  pAp =   2.507925870207460E-006  rzold =   1.155101002251476E-006  alpha = 
  0.460580201342205     
 delta_qm =   0.606880E-04 delta_en =   0.286393E-02 tol =   0.100000E-04
 Iteration #         23
  pAp =   1.094975150131150E-005  rzold =   1.539638954055682E-006  alpha = 
  0.140609488157907     
 delta_qm =   0.501627E-04 delta_en =   0.195667E-02 tol =   0.100000E-04
 Iteration #         24
  pAp =   6.599831936381942E-007  rzold =   4.169515273249080E-007  alpha = 
  0.631760825645331     
 delta_qm =   0.426528E-04 delta_en =   0.141466E-02 tol =   0.100000E-04
 Iteration #         25
  pAp =   2.617018675620698E-007  rzold =   1.836905563411617E-007  alpha = 
  0.701907701509216     
 delta_qm =   0.266596E-04 delta_en =   0.552666E-03 tol =   0.100000E-04
 Iteration #         26
  pAp =   7.847641869732277E-008  rzold =   5.052289969291422E-008  alpha = 
  0.643797213628937     
 delta_qm =   0.106663E-04 delta_en =   0.884683E-04 tol =   0.100000E-04
 Iteration #         27
  pAp =   3.673617059569219E-008  rzold =   1.651617817609687E-008  alpha = 
  0.449588999296340     
 delta_qm =   0.505929E-05 delta_en =   0.199038E-04 tol =   0.100000E-04
 Iteration #         28
  pAp =   3.419011005514925E-007  rzold =   1.742620705873235E-008  alpha = 
  5.096856088097866E-002
 delta_qm =   0.439399E-05 delta_en =   0.150132E-04 tol =   0.100000E-04
 Iteration #         29
  pAp =   7.510174188755087E-009  rzold =   3.184230679142231E-009  alpha = 
  0.423988924772204     
 delta_qm =   0.280012E-05 delta_en =   0.609693E-05 tol =   0.100000E-04
 Charges are converged, EXIT

%%%% ELECTRONS %%%%%%%%%%%%%%%%%%%%%%%%%%%%%%%%%%%%%%%%%%%%%%%%%%%%%%%%%%%%%%%%%
 number of electrons        =         89
 total electronic charge    =     89.0000000
 number of spin components  =  1

%%%% BOUNDARY %%%%%%%%%%%%%%%%%%%%%%%%%%%%%%%%%%%%%%%%%%%%%%%%%%%%%%%%%%%%%%%%%%
 boundary mode              = full                 
 boundary is built as a function of a smooth density
 function type              =  2 
 using the modified SCCS function with parameters 
 rhomax                     =      0.0050000 
 rhomin                     =      0.0001000 
 volume of the QM region    =   1469.7265744 
 surface of the QM region   =    271.0923860 

%%%% DIELECTRIC %%%%%%%%%%%%%%%%%%%%%%%%%%%%%%%%%%%%%%%%%%%%%%%%%%%%%%%%%%%%%%%%%
 dielectric build on homogeneous background
 environment bulk permitt.  =    100.0000000 
 dielectric flags
 need gradient              =  F 
 need factor depend. sqrt   =  T 
 total dielectric charge    =      0.0035765
