
     Program PWSCF v.6.3MaX starts on 21Apr2019 at 23:26:55 

     This program is part of the open-source Quantum ESPRESSO suite
     for quantum simulation of materials; please cite
         "P. Giannozzi et al., J. Phys.:Condens. Matter 21 395502 (2009);
         "P. Giannozzi et al., J. Phys.:Condens. Matter 29 465901 (2017);
          URL http://www.quantum-espresso.org", 
     in publications or presentations arising from this work. More details at
     http://www.quantum-espresso.org/quote

     Parallel version (MPI), running on     1 processors

     MPI processes distributed on     1 nodes
     Reading input from isolated.in

     Current dimensions of program PWSCF are:
     Max number of different atomic species (ntypx) = 10
     Max number of k-points (npk) =  40000
     Max angular momentum in pseudopotentials (lmaxx) =  3
               file C.pbe-rrkjus.UPF: wavefunction(s)  2S 2P renormalized
               file H.pbe-rrkjus.UPF: wavefunction(s)  1S renormalized
               file N.pbe-rrkjus.UPF: wavefunction(s)  2S renormalized
               file O.pbe-rrkjus.UPF: wavefunction(s)  2S renormalized

     gamma-point specific algorithms are used

     Subspace diagonalization in iterative solution of the eigenvalue problem:
     a serial algorithm will be used

 
     G-vector sticks info
     --------------------
     sticks:   dense  smooth     PW     G-vecs:    dense   smooth      PW
     Sum        9549    3809    949               701475   177509   22119
 


     bravais-lattice index     =            1
     lattice parameter (alat)  =      20.0000  a.u.
     unit-cell volume          =    8000.0000 (a.u.)^3
     number of atoms/cell      =           10
     number of atomic types    =            4
     number of electrons       =        24.00
     number of Kohn-Sham states=           12
     kinetic-energy cutoff     =      30.0000  Ry
     charge density cutoff     =     300.0000  Ry
     convergence threshold     =      5.0E-03
     mixing beta               =       0.7000
     number of iterations used =            8  plain     mixing
     Exchange-correlation      = SLA PW PBE PBE ( 1  4  3  4 0 0)
 

     Environ Module
     ==============

     Plese cite
         O. Andreussi, I. Dabo and N. Marzari, J. Chem. Phys. 136, 064102 (2012)         
     in publications or presentations arising from this work.

     compensation onset threshold      =               0.1000E+03 
     static permittivity               =                   100.00 
     epsilon calculation mode          =                     full 

     Electrostatic Setup
     -------------------
     electrostatic problem to solve    = generalized              
     numerical solver adopted          = cg                       
     type of auxiliary density adopted = none                     
     type of core tool for poisson     = fft                      
     type of core tool for s(r) deriv  = analytic                 



     celldm(1)=  20.000000  celldm(2)=   0.000000  celldm(3)=   0.000000
     celldm(4)=   0.000000  celldm(5)=   0.000000  celldm(6)=   0.000000

     crystal axes: (cart. coord. in units of alat)
               a(1) = (   1.000000   0.000000   0.000000 )  
               a(2) = (   0.000000   1.000000   0.000000 )  
               a(3) = (   0.000000   0.000000   1.000000 )  

     reciprocal axes: (cart. coord. in units 2 pi/alat)
               b(1) = (  1.000000  0.000000  0.000000 )  
               b(2) = (  0.000000  1.000000  0.000000 )  
               b(3) = (  0.000000  0.000000  1.000000 )  


     PseudoPot. # 1 for C  read from file:
     /home/fnattino/Programs/quantumespresso/q-e-qe-6.3-develop/Environ/tests/../..//pseudo/C.pbe-rrkjus.UPF
     MD5 check sum: c9ac5a99bc85b198593446162950cd17
     Pseudo is Ultrasoft, Zval =  4.0
     Generated by new atomic code, or converted to UPF format
     Using radial grid of  627 points,  4 beta functions with: 
                l(1) =   0
                l(2) =   0
                l(3) =   1
                l(4) =   1
     Q(r) pseudized with 0 coefficients 


     PseudoPot. # 2 for H  read from file:
     /home/fnattino/Programs/quantumespresso/q-e-qe-6.3-develop/Environ/tests/../..//pseudo/H.pbe-rrkjus.UPF
     MD5 check sum: 2d52a7f45632fd764c17cc6affed14c8
     Pseudo is Ultrasoft, Zval =  1.0
     Generated by new atomic code, or converted to UPF format
     Using radial grid of 1061 points,  2 beta functions with: 
                l(1) =   0
                l(2) =   0
     Q(r) pseudized with 0 coefficients 


     PseudoPot. # 3 for N  read from file:
     /home/fnattino/Programs/quantumespresso/q-e-qe-6.3-develop/Environ/tests/../..//pseudo/N.pbe-rrkjus.UPF
     MD5 check sum: 28c76d763763edb36c62a6ca2be9aebd
     Pseudo is Ultrasoft, Zval =  5.0
     Generated by new atomic code, or converted to UPF format
     Using radial grid of 1257 points,  4 beta functions with: 
                l(1) =   0
                l(2) =   0
                l(3) =   1
                l(4) =   1
     Q(r) pseudized with 0 coefficients 


     PseudoPot. # 4 for O  read from file:
     /home/fnattino/Programs/quantumespresso/q-e-qe-6.3-develop/Environ/tests/../..//pseudo/O.pbe-rrkjus.UPF
     MD5 check sum: fadcf19ee70a498d3030e2e79cf929a4
     Pseudo is Ultrasoft, Zval =  6.0
     Generated by new atomic code, or converted to UPF format
     Using radial grid of 1269 points,  4 beta functions with: 
                l(1) =   0
                l(2) =   0
                l(3) =   1
                l(4) =   1
     Q(r) pseudized with 0 coefficients 


     atomic species   valence    mass     pseudopotential
        C              4.00    12.00000     C ( 1.00)
        H              1.00     1.00000     H ( 1.00)
        N              5.00    14.00000     N ( 1.00)
        O              6.00    16.00000     O ( 1.00)

     No symmetry found



   Cartesian axes

     site n.     atom                  positions (alat units)
         1           C   tau(   1) = (   0.0000000   0.0000000   0.0000000  )
         2           C   tau(   2) = (   0.0000000   0.0000000   0.1455089  )
         3           N   tau(   3) = (   0.1170969   0.0000000  -0.0545024  )
         4           H   tau(   4) = (   0.0476617  -0.0825466   0.1792090  )
         5           H   tau(   5) = (  -0.0953183  -0.0000030   0.1792090  )
         6           H   tau(   6) = (   0.0476566   0.0825496   0.1792090  )
         7           O   tau(   7) = (  -0.0984002  -0.0000019  -0.0641310  )
         8           H   tau(   8) = (   0.1263131  -0.0000015  -0.1475548  )
         9           H   tau(   9) = (   0.1944645   0.0000134  -0.0025716  )
        10           H   tau(  10) = (  -0.0770366  -0.0000045  -0.1522861  )

     number of k points=     1
                       cart. coord. in units 2pi/alat
        k(    1) = (   0.0000000   0.0000000   0.0000000), wk =   2.0000000

     Dense  grid:   350738 G-vectors     FFT dimensions: ( 120, 120, 120)

     Smooth grid:    88755 G-vectors     FFT dimensions: (  72,  72,  72)

     Estimated max dynamical RAM per process >     691.80 MB

     Initial potential from superposition of free atoms
     Check: negative starting charge=   -0.000452

     starting charge   24.42266, renormalised to   24.00000

     negative rho (up, down):  4.438E-04 0.000E+00
     Starting wfcs are   22 randomized atomic wfcs

     total cpu time spent up to now is        6.1 secs

     Self-consistent Calculation

     iteration #  1     ecut=    30.00 Ry     beta= 0.70
     Davidson diagonalization with overlap
     ethr =  1.00E-02,  avg # of iterations =  2.0

     negative rho (up, down):  1.277E-04 0.000E+00

     add environment contribution to local potential
     polarization accuracy = 8.3E-06, # of iterations =  14

     total cpu time spent up to now is       10.3 secs

     total energy              =     -80.23414911 Ry
     Harris-Foulkes estimate   =     -83.01882218 Ry
     estimated scf accuracy    <       3.73443027 Ry
     electrostatic embedding   =       0.00490874 Ry
     correction to one-el term =       0.00000000 Ry

     iteration #  2     ecut=    30.00 Ry     beta= 0.70
     Davidson diagonalization with overlap
     ethr =  1.00E-02,  avg # of iterations =  3.0

     negative rho (up, down):  5.315E-04 0.000E+00

     add environment contribution to local potential
     polarization accuracy = 9.7E-06, # of iterations =  17

     total cpu time spent up to now is       14.8 secs

     total energy              =     -81.20587210 Ry
     Harris-Foulkes estimate   =     -76.34191424 Ry
     estimated scf accuracy    <       1.06171147 Ry
     electrostatic embedding   =      -0.05500775 Ry
     correction to one-el term =      -5.38159298 Ry

     iteration #  3     ecut=    30.00 Ry     beta= 0.70
     Davidson diagonalization with overlap
     ethr =  4.42E-03,  avg # of iterations =  3.0

     negative rho (up, down):  1.171E-04 0.000E+00

     add environment contribution to local potential
     polarization accuracy = 5.5E-06, # of iterations =  22

     total cpu time spent up to now is       19.7 secs

     total energy              =     -81.36104569 Ry
     Harris-Foulkes estimate   =     -76.84669436 Ry
     estimated scf accuracy    <       0.04362775 Ry
     electrostatic embedding   =      -0.09364147 Ry
     correction to one-el term =      -4.44605033 Ry

     iteration #  4     ecut=    30.00 Ry     beta= 0.70
     Davidson diagonalization with overlap
     ethr =  1.82E-04,  avg # of iterations =  3.0

     negative rho (up, down):  1.998E-04 0.000E+00

     add environment contribution to local potential
     polarization accuracy = 8.2E-06, # of iterations =  22

     total cpu time spent up to now is       24.5 secs

     total energy              =     -81.34826419 Ry
     Harris-Foulkes estimate   =     -77.31716811 Ry
     estimated scf accuracy    <       0.01893836 Ry
     electrostatic embedding   =      -0.10097278 Ry
     correction to one-el term =      -3.93983283 Ry

     iteration #  5     ecut=    30.00 Ry     beta= 0.70
     Davidson diagonalization with overlap
     ethr =  7.89E-05,  avg # of iterations =  3.0

     negative rho (up, down):  2.744E-04 0.000E+00

     the potential shift due to the Gaussian-smeared nuclei is    -0.0668 ev

     total cpu time spent up to now is       26.6 secs

     End of self-consistent calculation

          k = 0.0000 0.0000 0.0000 ( 11060 PWs)   bands (ev):

   -28.7582 -23.0417 -18.6146 -15.8855 -14.5557 -13.3055 -11.5970 -10.8665
    -9.6078  -9.5799  -9.2343  -7.3343

     highest occupied level (ev):    -7.3343

!    total energy              =     -81.35239694 Ry
     Harris-Foulkes estimate   =     -77.34956496 Ry
     estimated scf accuracy    <       0.00127234 Ry

     The total energy is the sum of the following terms:

     one-electron contribution =    -241.86370247 Ry
     hartree contribution      =     123.16921353 Ry
     xc contribution           =     -22.96210127 Ry
     ewald contribution        =      64.30784006 Ry
     electrostatic embedding   =      -0.10126213 Ry
     correction to one-el term =      -3.90238466 Ry

     convergence has been achieved in   5 iterations
 WARNING: Unphysical forces due to core electrons are non-negligible 
 atom type   4 is subject to a spurious force of     0.000118 
 WARNING: Unphysical forces due to core electrons are non-negligible 
 atom type   5 is subject to a spurious force of     0.000076 
 WARNING: Unphysical forces due to core electrons are non-negligible 
 atom type   6 is subject to a spurious force of     0.000149 
 WARNING: Unphysical forces due to core electrons are non-negligible 
 atom type   8 is subject to a spurious force of     0.005102 
 WARNING: Unphysical forces due to core electrons are non-negligible 
 atom type   9 is subject to a spurious force of     0.005429 
 WARNING: Unphysical forces due to core electrons are non-negligible 
 atom type  10 is subject to a spurious force of     0.170455 

     Forces acting on atoms (cartesian axes, Ry/au):

     atom    1 type  1   force =     0.20996090   -0.00135707    0.09739438
     atom    2 type  1   force =    -0.03404094   -0.00123967   -0.07896602
     atom    3 type  3   force =    -0.13478861   -0.00116327    0.04265140
     atom    4 type  2   force =     0.01294423   -0.02516792    0.00698055
     atom    5 type  2   force =    -0.02910169   -0.00119852    0.01017989
     atom    6 type  2   force =     0.01288161    0.02271754    0.00692771
     atom    7 type  4   force =    -0.08534964   -0.00134150   -0.00006830
     atom    8 type  2   force =     0.00327391   -0.00081777   -0.04607463
     atom    9 type  2   force =     0.03605311   -0.00101422    0.03699620
     atom   10 type  2   force =     0.00816712    0.01058240   -0.07602119

     Total force =     0.318646     Total SCF correction =     0.045896
     SCF correction compared to forces is large: reduce conv_thr to get better values

     Writing output data file pwscf.save/
 
     init_run     :      4.94s CPU      5.42s WALL (       1 calls)
     electrons    :     16.81s CPU     20.52s WALL (       1 calls)
     forces       :      2.12s CPU      2.52s WALL (       1 calls)

     Called by init_run:
     wfcinit      :      0.13s CPU      0.14s WALL (       1 calls)
     potinit      :      1.48s CPU      1.58s WALL (       1 calls)
     hinit0       :      2.97s CPU      3.04s WALL (       1 calls)

     Called by electrons:
     c_bands      :      1.16s CPU      1.16s WALL (       5 calls)
     sum_band     :      1.98s CPU      2.82s WALL (       5 calls)
     v_of_rho     :      2.68s CPU      2.93s WALL (       6 calls)
     newd         :      1.44s CPU      2.59s WALL (       6 calls)
     mix_rho      :      0.23s CPU      0.23s WALL (       5 calls)

     Called by c_bands:
     init_us_2    :      0.04s CPU      0.05s WALL (      11 calls)
     regterg      :      1.09s CPU      1.09s WALL (       5 calls)

     Called by sum_band:
     sum_band:bec :      0.00s CPU      0.00s WALL (       5 calls)
     addusdens    :      1.62s CPU      2.44s WALL (       5 calls)

     Called by *egterg:
     h_psi        :      1.12s CPU      1.11s WALL (      20 calls)
     s_psi        :      0.00s CPU      0.02s WALL (      20 calls)
     g_psi        :      0.01s CPU      0.01s WALL (      14 calls)
     rdiaghg      :      0.00s CPU      0.00s WALL (      19 calls)

     Called by h_psi:
     h_psi:pot    :      1.12s CPU      1.11s WALL (      20 calls)
     h_psi:calbec :      0.03s CPU      0.02s WALL (      20 calls)
     vloc_psi     :      1.06s CPU      1.07s WALL (      20 calls)
     add_vuspsi   :      0.02s CPU      0.02s WALL (      20 calls)

     General routines
     calbec       :      0.04s CPU      0.03s WALL (      29 calls)
     fft          :      5.39s CPU      5.39s WALL (     304 calls)
     ffts         :      0.04s CPU      0.03s WALL (      11 calls)
     fftw         :      0.92s CPU      0.95s WALL (     242 calls)
     interpolate  :      0.16s CPU      0.17s WALL (       6 calls)
 
     Parallel routines
 
     Environ routines
     calc_eelect  :      0.03s CPU      0.02s WALL (      10 calls)
     calc_velect  :      6.32s CPU      7.65s WALL (       8 calls)
     dielectric   :      0.32s CPU      0.34s WALL (       8 calls)
     calc_felect  :      0.09s CPU      0.09s WALL (       1 calls)
 
     PWSCF        :    24.55s CPU        29.19s WALL

 
   This run was terminated on:  23:27:24  21Apr2019            

=------------------------------------------------------------------------------=
   JOB DONE.
=------------------------------------------------------------------------------=

%%%% IONS %%%%%%%%%%%%%%%%%%%%%%%%%%%%%%%%%%%%%%%%%%%%%%%%%%%%%%%%%%%%%%%%%%%%%%
 number of ions             =         10
 ionic center of charge     =      0.0095530    -0.0000002     0.0063981
 total ionic charge         =    -25.0000000
 ionic dipole               =      0.0000000     0.0000000     0.0000000
 ionic quadrupole (pc)      =    -79.0828058    -5.4513517  -105.8059629
 ionic quadrupole (gauss)   =    -82.2078058    -8.5763517  -108.9309629
 ion   1 type =  1 coordinates =      0.0000000     0.0000000     0.0000000
 ion   2 type =  1 coordinates =      0.0000000     0.0000000     2.9101782
 ion   3 type =  3 coordinates =      2.3419379     0.0000000    -1.0900479
 ion   4 type =  2 coordinates =      0.9532347    -1.6509323     3.5841800
 ion   5 type =  2 coordinates =     -1.9063663    -0.0000596     3.5841809
 ion   6 type =  2 coordinates =      0.9531315     1.6509919     3.5841800
 ion   7 type =  4 coordinates =     -1.9680045    -0.0000375    -1.2826193
 ion   8 type =  2 coordinates =      2.5262613    -0.0000303    -2.9510950
 ion   9 type =  2 coordinates =      3.8892907     0.0002681    -0.0514326
 ion  10 type =  2 coordinates =     -1.5407317    -0.0000890    -3.0457220

%%%% SYSTEM %%%%%%%%%%%%%%%%%%%%%%%%%%%%%%%%%%%%%%%%%%%%%%%%%%%%%%%%%%%%%%%%%%%%
 system is built from all present ionic types
 system defined dimension   =  0 
 system defined axis        =  3 
 system center              =      0.0095530    -0.0000002     0.0063981 
 system width               =      0.2021425 

%%%% ELECTRONS %%%%%%%%%%%%%%%%%%%%%%%%%%%%%%%%%%%%%%%%%%%%%%%%%%%%%%%%%%%%%%%%%
 number of electrons        =         24
 total electronic charge    =     24.0000000
 number of spin components  =  1

%%%% BOUNDARY %%%%%%%%%%%%%%%%%%%%%%%%%%%%%%%%%%%%%%%%%%%%%%%%%%%%%%%%%%%%%%%%%%
 boundary label             = solvent              
 boundary mode              = full                 
 boundary is built as a function of a smooth density
 function type              =  2 
 using the modified SCCS function with parameters 
 rhomax                     =      0.0050000 
 rhomin                     =      0.0001000 
 volume of the QM region    =   2771.6247532 
 surface of the QM region   =    905.6004067 

%%%% DIELECTRIC %%%%%%%%%%%%%%%%%%%%%%%%%%%%%%%%%%%%%%%%%%%%%%%%%%%%%%%%%%%%%%%%%
 dielectric build on homogeneous background
 environment bulk permitt.  =    100.0000000 
 dielectric flags
 need gradient              =  F 
 need factor depend. sqrt   =  T 
 total dielectric charge    =      0.0000000

%%%% DENSITY %%%%%%%%%%%%%%%%%%%%%%%%%%%%%%%%%%%%%%%%%%%%%%%%%%%%%%%%%%%%%%%%%%%
 density label              = vreference                                                                      
 integral of density        =      0.000000000    

%%%% DENSITY %%%%%%%%%%%%%%%%%%%%%%%%%%%%%%%%%%%%%%%%%%%%%%%%%%%%%%%%%%%%%%%%%%%
 density label              = velectrostatic                                                                  
 integral of density        =      0.000000000    

%%%% CHARGES %%%%%%%%%%%%%%%%%%%%%%%%%%%%%%%%%%%%%%%%%%%%%%%%%%%%%%%%%%%%%%%%%%%
 total number of charges    =         34
 total charge               =     -1.0000000

%%%% DENSITY %%%%%%%%%%%%%%%%%%%%%%%%%%%%%%%%%%%%%%%%%%%%%%%%%%%%%%%%%%%%%%%%%%%
 density label              = vsoftcavity                                                                     
 integral of density        =      0.000000000    

%%%% ELECTRONS %%%%%%%%%%%%%%%%%%%%%%%%%%%%%%%%%%%%%%%%%%%%%%%%%%%%%%%%%%%%%%%%%
 number of electrons        =         24
 total electronic charge    =     24.0000000
 number of spin components  =  1

%%%% BOUNDARY %%%%%%%%%%%%%%%%%%%%%%%%%%%%%%%%%%%%%%%%%%%%%%%%%%%%%%%%%%%%%%%%%%
 boundary label             = solvent              
 boundary mode              = full                 
 boundary is built as a function of a smooth density
 function type              =  2 
 using the modified SCCS function with parameters 
 rhomax                     =      0.0050000 
 rhomin                     =      0.0001000 
 volume of the QM region    =    989.6663966 
 surface of the QM region   =    490.3840420 

%%%% DIELECTRIC %%%%%%%%%%%%%%%%%%%%%%%%%%%%%%%%%%%%%%%%%%%%%%%%%%%%%%%%%%%%%%%%%
 dielectric build on homogeneous background
 environment bulk permitt.  =    100.0000000 
 dielectric flags
 need gradient              =  F 
 need factor depend. sqrt   =  T 
 total dielectric charge    =      0.0000000

%%%% DENSITY %%%%%%%%%%%%%%%%%%%%%%%%%%%%%%%%%%%%%%%%%%%%%%%%%%%%%%%%%%%%%%%%%%%
 density label              = vreference                                                                      
 integral of density        =    -0.1947413424E-12

%%%% COMPUTE ELECTROSTATIC POTENTIAL %%%%%%%%%%%%%%%%%%%%%%%%%%%%%%%%%%%%%%%%%%%
 Iteration #          1
  pAp =    91.2614240861687       rzold =    89.3236069816263       alpha = 
  0.978766306531522     
 delta_qm =   0.113586E-01 delta_en =   0.222942E+03 tol =   0.100000E-04
 Iteration #          2
  pAp =    74.5805936098890       rzold =    10.2496379938369       alpha = 
  0.137430362212588     
 delta_qm =   0.471223E-02 delta_en =   0.383705E+02 tol =   0.100000E-04
 Iteration #          3
  pAp =   0.892073690946020       rzold =   0.260105517181303       alpha = 
  0.291574025577941     
 delta_qm =   0.221675E-02 delta_en =   0.849134E+01 tol =   0.100000E-04
 Iteration #          4
  pAp =   0.379771212080110       rzold =   7.925427277449422E-002  alpha = 
  0.208689522147814     
 delta_qm =   0.140998E-02 delta_en =   0.343536E+01 tol =   0.100000E-04
 Iteration #          5
  pAp =   2.804408432629240E-002  rzold =   9.846277057466931E-003  alpha = 
  0.351099966142794     
 delta_qm =   0.853249E-03 delta_en =   0.125804E+01 tol =   0.100000E-04
 Iteration #          6
  pAp =   6.798091425360672E-003  rzold =   2.302517605566362E-003  alpha = 
  0.338700594254541     
 delta_qm =   0.489136E-03 delta_en =   0.413430E+00 tol =   0.100000E-04
 Iteration #          7
  pAp =   1.165424268890758E-003  rzold =   4.850183026099571E-004  alpha = 
  0.416173161617437     
 delta_qm =   0.279123E-03 delta_en =   0.134628E+00 tol =   0.100000E-04
 Iteration #          8
  pAp =   1.077595075576063E-003  rzold =   2.931777489419787E-004  alpha = 
  0.272066711872501     
 delta_qm =   0.171834E-03 delta_en =   0.510223E-01 tol =   0.100000E-04
 Iteration #          9
  pAp =   1.672760177900594E-004  rzold =   8.947217719848248E-005  alpha = 
  0.534877493979890     
 delta_qm =   0.576181E-04 delta_en =   0.573669E-02 tol =   0.100000E-04
 Iteration #         10
  pAp =   4.833410160930190E-005  rzold =   2.076796438606672E-005  alpha = 
  0.429675191936741     
 delta_qm =   0.292080E-04 delta_en =   0.147417E-02 tol =   0.100000E-04
 Iteration #         11
  pAp =   9.661303194038934E-006  rzold =   4.190945131534929E-006  alpha = 
  0.433786731185578     
 delta_qm =   0.153945E-04 delta_en =   0.409520E-03 tol =   0.100000E-04
 Iteration #         12
  pAp =   9.570419997969755E-007  rzold =   5.350345255674843E-007  alpha = 
  0.559050204359877     
 delta_qm =   0.815479E-05 delta_en =   0.114913E-03 tol =   0.100000E-04
 Iteration #         13
  pAp =   4.679495487715650E-007  rzold =   2.013251885363692E-007  alpha = 
  0.430228406170872     
 delta_qm =   0.421770E-05 delta_en =   0.307394E-04 tol =   0.100000E-04
 Iteration #         14
  pAp =   1.953043950227013E-007  rzold =   8.020852959178461E-008  alpha = 
  0.410684713892186     
 delta_qm =   0.219764E-05 delta_en =   0.834561E-05 tol =   0.100000E-04
 Charges are converged, EXIT

%%%% DENSITY %%%%%%%%%%%%%%%%%%%%%%%%%%%%%%%%%%%%%%%%%%%%%%%%%%%%%%%%%%%%%%%%%%%
 density label              = velectrostatic                                                                  
 integral of density        =     0.5900794257E-12

%%%% CHARGES %%%%%%%%%%%%%%%%%%%%%%%%%%%%%%%%%%%%%%%%%%%%%%%%%%%%%%%%%%%%%%%%%%%
 total number of charges    =         34
 total charge               =     -1.0000000

%%%% DENSITY %%%%%%%%%%%%%%%%%%%%%%%%%%%%%%%%%%%%%%%%%%%%%%%%%%%%%%%%%%%%%%%%%%%
 density label              = vsoftcavity                                                                     
 integral of density        =      409.6751205    

%%%% ELECTRONS %%%%%%%%%%%%%%%%%%%%%%%%%%%%%%%%%%%%%%%%%%%%%%%%%%%%%%%%%%%%%%%%%
 number of electrons        =         24
 total electronic charge    =     24.0000000
 number of spin components  =  1

%%%% BOUNDARY %%%%%%%%%%%%%%%%%%%%%%%%%%%%%%%%%%%%%%%%%%%%%%%%%%%%%%%%%%%%%%%%%%
 boundary label             = solvent              
 boundary mode              = full                 
 boundary is built as a function of a smooth density
 function type              =  2 
 using the modified SCCS function with parameters 
 rhomax                     =      0.0050000 
 rhomin                     =      0.0001000 
 volume of the QM region    =    839.6498476 
 surface of the QM region   =    449.0126179 

%%%% DIELECTRIC %%%%%%%%%%%%%%%%%%%%%%%%%%%%%%%%%%%%%%%%%%%%%%%%%%%%%%%%%%%%%%%%%
 dielectric build on homogeneous background
 environment bulk permitt.  =    100.0000000 
 dielectric flags
 need gradient              =  F 
 need factor depend. sqrt   =  T 
 total dielectric charge    =     -0.0006637

%%%% DENSITY %%%%%%%%%%%%%%%%%%%%%%%%%%%%%%%%%%%%%%%%%%%%%%%%%%%%%%%%%%%%%%%%%%%
 density label              = vreference                                                                      
 integral of density        =     0.4584316466E-12

%%%% COMPUTE ELECTROSTATIC POTENTIAL %%%%%%%%%%%%%%%%%%%%%%%%%%%%%%%%%%%%%%%%%%%
 Warning: bad guess with residual norm =   0.371303E+03, reset to no guess
 Iteration #          1
  pAp =    94.8832861599616       rzold =    93.2150257075185       alpha = 
  0.982417762706589     
 delta_qm =   0.144556E-01 delta_en =   0.361089E+03 tol =   0.100000E-04
 Iteration #          2
  pAp =    105.126167095533       rzold =    12.0378684329463       alpha = 
  0.114508773272470     
 delta_qm =   0.514843E-02 delta_en =   0.458030E+02 tol =   0.100000E-04
 Iteration #          3
  pAp =   0.707409149596356       rzold =   0.143512556915420       alpha = 
  0.202870654128954     
 delta_qm =   0.349855E-02 delta_en =   0.211505E+02 tol =   0.100000E-04
 Iteration #          4
  pAp =   0.182463163278277       rzold =   4.095899352275643E-002  alpha = 
  0.224478151024322     
 delta_qm =   0.255274E-02 delta_en =   0.112605E+02 tol =   0.100000E-04
 Iteration #          5
  pAp =   2.000595438809609E-002  rzold =   8.270450590190657E-003  alpha = 
  0.413399452470597     
 delta_qm =   0.132833E-02 delta_en =   0.304901E+01 tol =   0.100000E-04
 Iteration #          6
  pAp =   7.612647164056329E-003  rzold =   3.265172127165161E-003  alpha = 
  0.428914155194518     
 delta_qm =   0.758098E-03 delta_en =   0.993104E+00 tol =   0.100000E-04
 Iteration #          7
  pAp =   5.257177416351065E-003  rzold =   1.703603302963359E-003  alpha = 
  0.324052845860737     
 delta_qm =   0.437083E-03 delta_en =   0.330120E+00 tol =   0.100000E-04
 Iteration #          8
  pAp =   3.848622682777848E-003  rzold =   1.138408130116907E-003  alpha = 
  0.295796242954955     
 delta_qm =   0.273966E-03 delta_en =   0.129699E+00 tol =   0.100000E-04
 Iteration #          9
  pAp =   1.196042691659059E-003  rzold =   4.009426442253155E-004  alpha = 
  0.335224358646562     
 delta_qm =   0.192715E-03 delta_en =   0.641762E-01 tol =   0.100000E-04
 Iteration #         10
  pAp =   3.247563222120713E-004  rzold =   1.124612687556454E-004  alpha = 
  0.346294316888483     
 delta_qm =   0.125412E-03 delta_en =   0.271781E-01 tol =   0.100000E-04
 Iteration #         11
  pAp =   3.592189192504125E-005  rzold =   1.751249102445679E-005  alpha = 
  0.487515831877685     
 delta_qm =   0.673404E-04 delta_en =   0.783601E-02 tol =   0.100000E-04
 Iteration #         12
  pAp =   8.124211598745242E-006  rzold =   4.608703979819864E-006  alpha = 
  0.567280150671071     
 delta_qm =   0.314201E-04 delta_en =   0.170592E-02 tol =   0.100000E-04
 Iteration #         13
  pAp =   6.991236234758177E-006  rzold =   2.663846859931326E-006  alpha = 
  0.381026583923389     
 delta_qm =   0.188345E-04 delta_en =   0.612990E-03 tol =   0.100000E-04
 Iteration #         14
  pAp =   2.273536233381487E-006  rzold =   8.537170016074631E-007  alpha = 
  0.375501823578905     
 delta_qm =   0.139460E-04 delta_en =   0.336081E-03 tol =   0.100000E-04
 Iteration #         15
  pAp =   6.618594418473640E-007  rzold =   2.662253810150464E-007  alpha = 
  0.402238548221002     
 delta_qm =   0.904223E-05 delta_en =   0.141285E-03 tol =   0.100000E-04
 Iteration #         16
  pAp =   2.464644662259941E-007  rzold =   8.712664541085114E-008  alpha = 
  0.353505909979579     
 delta_qm =   0.540218E-05 delta_en =   0.504292E-04 tol =   0.100000E-04
 Iteration #         17
  pAp =   1.072197765776305E-007  rzold =   4.114584789154733E-008  alpha = 
  0.383752412147179     
 delta_qm =   0.237356E-05 delta_en =   0.973519E-05 tol =   0.100000E-04
 Charges are converged, EXIT

%%%% DENSITY %%%%%%%%%%%%%%%%%%%%%%%%%%%%%%%%%%%%%%%%%%%%%%%%%%%%%%%%%%%%%%%%%%%
 density label              = velectrostatic                                                                  
 integral of density        =    -0.8727175361E-12

%%%% CHARGES %%%%%%%%%%%%%%%%%%%%%%%%%%%%%%%%%%%%%%%%%%%%%%%%%%%%%%%%%%%%%%%%%%%
 total number of charges    =         34
 total charge               =     -1.0000000

%%%% DENSITY %%%%%%%%%%%%%%%%%%%%%%%%%%%%%%%%%%%%%%%%%%%%%%%%%%%%%%%%%%%%%%%%%%%
 density label              = vsoftcavity                                                                     
 integral of density        =      190.3735148    

%%%% ELECTRONS %%%%%%%%%%%%%%%%%%%%%%%%%%%%%%%%%%%%%%%%%%%%%%%%%%%%%%%%%%%%%%%%%
 number of electrons        =         24
 total electronic charge    =     24.0000000
 number of spin components  =  1

%%%% BOUNDARY %%%%%%%%%%%%%%%%%%%%%%%%%%%%%%%%%%%%%%%%%%%%%%%%%%%%%%%%%%%%%%%%%%
 boundary label             = solvent              
 boundary mode              = full                 
 boundary is built as a function of a smooth density
 function type              =  2 
 using the modified SCCS function with parameters 
 rhomax                     =      0.0050000 
 rhomin                     =      0.0001000 
 volume of the QM region    =    716.1314494 
 surface of the QM region   =    412.6364810 

%%%% DIELECTRIC %%%%%%%%%%%%%%%%%%%%%%%%%%%%%%%%%%%%%%%%%%%%%%%%%%%%%%%%%%%%%%%%%
 dielectric build on homogeneous background
 environment bulk permitt.  =    100.0000000 
 dielectric flags
 need gradient              =  F 
 need factor depend. sqrt   =  T 
 total dielectric charge    =      0.0000210

%%%% DENSITY %%%%%%%%%%%%%%%%%%%%%%%%%%%%%%%%%%%%%%%%%%%%%%%%%%%%%%%%%%%%%%%%%%%
 density label              = vreference                                                                      
 integral of density        =    -0.9740356669E-12

%%%% COMPUTE ELECTROSTATIC POTENTIAL %%%%%%%%%%%%%%%%%%%%%%%%%%%%%%%%%%%%%%%%%%%
 Warning: bad guess with residual norm =   0.130866E+04, reset to no guess
 Iteration #          1
  pAp =    95.3727058479037       rzold =    93.2028145041593       alpha = 
  0.977248298405155     
 delta_qm =   0.269393E-01 delta_en =   0.125405E+04 tol =   0.100000E-04
 Iteration #          2
  pAp =    231.629308096477       rzold =    20.8048168657256       alpha = 
  8.981944917376398E-002
 delta_qm =   0.880719E-02 delta_en =   0.134035E+03 tol =   0.100000E-04
 Iteration #          3
  pAp =    1.32778701764877       rzold =   0.213709224209525       alpha = 
  0.160951433753252     
 delta_qm =   0.703138E-02 delta_en =   0.854328E+02 tol =   0.100000E-04
 Iteration #          4
  pAp =   0.213511436946466       rzold =   3.932331222233953E-002  alpha = 
  0.184174266187900     
 delta_qm =   0.620172E-02 delta_en =   0.664613E+02 tol =   0.100000E-04
 Iteration #          5
  pAp =   3.159626455502023E-002  rzold =   1.212867194729321E-002  alpha = 
  0.383864109194709     
 delta_qm =   0.363522E-02 delta_en =   0.228353E+02 tol =   0.100000E-04
 Iteration #          6
  pAp =   2.118323461888697E-002  rzold =   9.510241119740125E-003  alpha = 
  0.448951318853864     
 delta_qm =   0.231660E-02 delta_en =   0.927355E+01 tol =   0.100000E-04
 Iteration #          7
  pAp =   1.833967045837769E-002  rzold =   6.459772266754566E-003  alpha = 
  0.352229462433099     
 delta_qm =   0.139049E-02 delta_en =   0.334102E+01 tol =   0.100000E-04
 Iteration #          8
  pAp =   1.681701844426560E-002  rzold =   5.012296479088836E-003  alpha = 
  0.298049056418676     
 delta_qm =   0.940071E-03 delta_en =   0.152709E+01 tol =   0.100000E-04
 Iteration #          9
  pAp =   1.486180981372295E-002  rzold =   3.544458924766705E-003  alpha = 
  0.238494434338263     
 delta_qm =   0.695836E-03 delta_en =   0.836677E+00 tol =   0.100000E-04
 Iteration #         10
  pAp =   3.132478369153546E-003  rzold =   1.012396749682880E-003  alpha = 
  0.323193532524360     
 delta_qm =   0.539174E-03 delta_en =   0.502345E+00 tol =   0.100000E-04
 Iteration #         11
  pAp =   4.844838875947356E-004  rzold =   1.705839000125887E-004  alpha = 
  0.352094062115188     
 delta_qm =   0.425492E-03 delta_en =   0.312843E+00 tol =   0.100000E-04
 Iteration #         12
  pAp =   2.707587079146845E-004  rzold =   1.025351278469095E-004  alpha = 
  0.378695587065728     
 delta_qm =   0.257470E-03 delta_en =   0.114551E+00 tol =   0.100000E-04
 Iteration #         13
  pAp =   1.030373750346666E-004  rzold =   5.668061634607873E-005  alpha = 
  0.550097635222255     
 delta_qm =   0.104636E-03 delta_en =   0.189192E-01 tol =   0.100000E-04
 Iteration #         14
  pAp =   6.309118066241462E-005  rzold =   2.324666245093422E-005  alpha = 
  0.368461363487892     
 delta_qm =   0.855797E-04 delta_en =   0.126557E-01 tol =   0.100000E-04
 Iteration #         15
  pAp =   1.453794232674929E-005  rzold =   5.815570265667441E-006  alpha = 
  0.400027055752381     
 delta_qm =   0.672519E-04 delta_en =   0.781543E-02 tol =   0.100000E-04
 Iteration #         16
  pAp =   6.599049075703050E-006  rzold =   2.297558538143080E-006  alpha = 
  0.348165093452999     
 delta_qm =   0.476575E-04 delta_en =   0.392469E-02 tol =   0.100000E-04
 Iteration #         17
  pAp =   4.305990746231862E-006  rzold =   1.410116060623135E-006  alpha = 
  0.327477726666532     
 delta_qm =   0.287830E-04 delta_en =   0.143158E-02 tol =   0.100000E-04
 Iteration #         18
  pAp =   2.332660171819014E-006  rzold =   7.588840652253090E-007  alpha = 
  0.325329884907123     
 delta_qm =   0.170230E-04 delta_en =   0.500742E-03 tol =   0.100000E-04
 Iteration #         19
  pAp =   3.609770778127958E-007  rzold =   1.923583290106538E-007  alpha = 
  0.532882392910310     
 delta_qm =   0.868967E-05 delta_en =   0.130482E-03 tol =   0.100000E-04
 Iteration #         20
  pAp =   1.352543082496634E-007  rzold =   5.876817388307090E-008  alpha = 
  0.434501308265847     
 delta_qm =   0.470445E-05 delta_en =   0.382439E-04 tol =   0.100000E-04
 Iteration #         21
  pAp =   4.584056482368829E-008  rzold =   1.770501720072614E-008  alpha = 
  0.386230345739043     
 delta_qm =   0.277579E-05 delta_en =   0.133143E-04 tol =   0.100000E-04
 Iteration #         22
  pAp =   8.854060308024372E-009  rzold =   3.680641689003162E-009  alpha = 
  0.415700996035392     
 delta_qm =   0.177641E-05 delta_en =   0.545291E-05 tol =   0.100000E-04
 Charges are converged, EXIT

%%%% DENSITY %%%%%%%%%%%%%%%%%%%%%%%%%%%%%%%%%%%%%%%%%%%%%%%%%%%%%%%%%%%%%%%%%%%
 density label              = velectrostatic                                                                  
 integral of density        =     0.2055310654E-12

%%%% CHARGES %%%%%%%%%%%%%%%%%%%%%%%%%%%%%%%%%%%%%%%%%%%%%%%%%%%%%%%%%%%%%%%%%%%
 total number of charges    =         34
 total charge               =     -1.0000000

%%%% DENSITY %%%%%%%%%%%%%%%%%%%%%%%%%%%%%%%%%%%%%%%%%%%%%%%%%%%%%%%%%%%%%%%%%%%
 density label              = vsoftcavity                                                                     
 integral of density        =      47.87063520    

%%%% ELECTRONS %%%%%%%%%%%%%%%%%%%%%%%%%%%%%%%%%%%%%%%%%%%%%%%%%%%%%%%%%%%%%%%%%
 number of electrons        =         24
 total electronic charge    =     24.0000000
 number of spin components  =  1

%%%% BOUNDARY %%%%%%%%%%%%%%%%%%%%%%%%%%%%%%%%%%%%%%%%%%%%%%%%%%%%%%%%%%%%%%%%%%
 boundary label             = solvent              
 boundary mode              = full                 
 boundary is built as a function of a smooth density
 function type              =  2 
 using the modified SCCS function with parameters 
 rhomax                     =      0.0050000 
 rhomin                     =      0.0001000 
 volume of the QM region    =    714.0054853 
 surface of the QM region   =    412.5102803 

%%%% DIELECTRIC %%%%%%%%%%%%%%%%%%%%%%%%%%%%%%%%%%%%%%%%%%%%%%%%%%%%%%%%%%%%%%%%%
 dielectric build on homogeneous background
 environment bulk permitt.  =    100.0000000 
 dielectric flags
 need gradient              =  F 
 need factor depend. sqrt   =  T 
 total dielectric charge    =     -0.0005737

%%%% DENSITY %%%%%%%%%%%%%%%%%%%%%%%%%%%%%%%%%%%%%%%%%%%%%%%%%%%%%%%%%%%%%%%%%%%
 density label              = vreference                                                                      
 integral of density        =    -0.1425822423E-11

%%%% COMPUTE ELECTROSTATIC POTENTIAL %%%%%%%%%%%%%%%%%%%%%%%%%%%%%%%%%%%%%%%%%%%
 Warning: bad guess with residual norm =   0.145455E+04, reset to no guess
 Iteration #          1
  pAp =    95.4273414825836       rzold =    93.2371958385845       alpha = 
  0.977049076187470     
 delta_qm =   0.283900E-01 delta_en =   0.139276E+04 tol =   0.100000E-04
 Iteration #          2
  pAp =    238.831177068159       rzold =    21.2128021155303       alpha = 
  8.881923363580140E-002
 delta_qm =   0.893748E-02 delta_en =   0.138030E+03 tol =   0.100000E-04
 Iteration #          3
  pAp =    1.50261773613709       rzold =   0.235264307829980       alpha = 
  0.156569633228737     
 delta_qm =   0.727242E-02 delta_en =   0.913906E+02 tol =   0.100000E-04
 Iteration #          4
  pAp =   0.228677172419701       rzold =   4.139894020802986E-002  alpha = 
  0.181036610563160     
 delta_qm =   0.650906E-02 delta_en =   0.732116E+02 tol =   0.100000E-04
 Iteration #          5
  pAp =   3.348243236968038E-002  rzold =   1.225306726845111E-002  alpha = 
  0.365955111419765     
 delta_qm =   0.389275E-02 delta_en =   0.261853E+02 tol =   0.100000E-04
 Iteration #          6
  pAp =   2.100350259040578E-002  rzold =   9.371093147255852E-003  alpha = 
  0.446168114433280     
 delta_qm =   0.248547E-02 delta_en =   0.106749E+02 tol =   0.100000E-04
 Iteration #          7
  pAp =   1.865403935691070E-002  rzold =   6.634486013384354E-003  alpha = 
  0.355659484063783     
 delta_qm =   0.148757E-02 delta_en =   0.382384E+01 tol =   0.100000E-04
 Iteration #          8
  pAp =   1.726723535240875E-002  rzold =   5.142883604327908E-003  alpha = 
  0.297840592275849     
 delta_qm =   0.978143E-03 delta_en =   0.165329E+01 tol =   0.100000E-04
 Iteration #          9
  pAp =   1.605054351469929E-002  rzold =   3.884457871981527E-003  alpha = 
  0.242014101791886     
 delta_qm =   0.692601E-03 delta_en =   0.828915E+00 tol =   0.100000E-04
 Iteration #         10
  pAp =   3.483372991110262E-003  rzold =   1.128073433133327E-003  alpha = 
  0.323845145498982     
 delta_qm =   0.555036E-03 delta_en =   0.532337E+00 tol =   0.100000E-04
 Iteration #         11
  pAp =   5.714419418216189E-004  rzold =   1.937001110312485E-004  alpha = 
  0.338967263084994     
 delta_qm =   0.439644E-03 delta_en =   0.333999E+00 tol =   0.100000E-04
 Iteration #         12
  pAp =   2.814944513121491E-004  rzold =   1.050760344279089E-004  alpha = 
  0.373279238500478     
 delta_qm =   0.283197E-03 delta_en =   0.138587E+00 tol =   0.100000E-04
 Iteration #         13
  pAp =   1.054890499705628E-004  rzold =   5.876874654258181E-005  alpha = 
  0.557107553428356     
 delta_qm =   0.119974E-03 delta_en =   0.248726E-01 tol =   0.100000E-04
 Iteration #         14
  pAp =   8.435507532672291E-005  rzold =   3.010285949966107E-005  alpha = 
  0.356858901293930     
 delta_qm =   0.947611E-04 delta_en =   0.155169E-01 tol =   0.100000E-04
 Iteration #         15
  pAp =   1.943884003601140E-005  rzold =   7.711074411601992E-006  alpha = 
  0.396683876060344     
 delta_qm =   0.769791E-04 delta_en =   0.102398E-01 tol =   0.100000E-04
 Iteration #         16
  pAp =   6.877967949054526E-006  rzold =   2.657205488046323E-006  alpha = 
  0.386335834614000     
 delta_qm =   0.537692E-04 delta_en =   0.499587E-02 tol =   0.100000E-04
 Iteration #         17
  pAp =   4.205067729849681E-006  rzold =   1.440803792462975E-006  alpha = 
  0.342635097702571     
 delta_qm =   0.330579E-04 delta_en =   0.188840E-02 tol =   0.100000E-04
 Iteration #         18
  pAp =   3.491288612530702E-006  rzold =   9.861178928192419E-007  alpha = 
  0.282450980786846     
 delta_qm =   0.199503E-04 delta_en =   0.687771E-03 tol =   0.100000E-04
 Iteration #         19
  pAp =   4.722360350781097E-007  rzold =   2.457927703110335E-007  alpha = 
  0.520487112488945     
 delta_qm =   0.103104E-04 delta_en =   0.183693E-03 tol =   0.100000E-04
 Iteration #         20
  pAp =   1.879113685288528E-007  rzold =   8.095090411174430E-008  alpha = 
  0.430793010265979     
 delta_qm =   0.574397E-05 delta_en =   0.570122E-04 tol =   0.100000E-04
 Iteration #         21
  pAp =   6.247892457403581E-008  rzold =   2.516088546718451E-008  alpha = 
  0.402709964019460     
 delta_qm =   0.343023E-05 delta_en =   0.203324E-04 tol =   0.100000E-04
 Iteration #         22
  pAp =   1.100787899769496E-008  rzold =   4.918339699629132E-009  alpha = 
  0.446801759054494     
 delta_qm =   0.218194E-05 delta_en =   0.822676E-05 tol =   0.100000E-04
 Charges are converged, EXIT

%%%% DENSITY %%%%%%%%%%%%%%%%%%%%%%%%%%%%%%%%%%%%%%%%%%%%%%%%%%%%%%%%%%%%%%%%%%%
 density label              = velectrostatic                                                                  
 integral of density        =    -0.1778330569E-12

%%%% CHARGES %%%%%%%%%%%%%%%%%%%%%%%%%%%%%%%%%%%%%%%%%%%%%%%%%%%%%%%%%%%%%%%%%%%
 total number of charges    =         34
 total charge               =     -1.0000000

%%%% DENSITY %%%%%%%%%%%%%%%%%%%%%%%%%%%%%%%%%%%%%%%%%%%%%%%%%%%%%%%%%%%%%%%%%%%
 density label              = vsoftcavity                                                                     
 integral of density        =      46.11560846    

%%%% ELECTRONS %%%%%%%%%%%%%%%%%%%%%%%%%%%%%%%%%%%%%%%%%%%%%%%%%%%%%%%%%%%%%%%%%
 number of electrons        =         24
 total electronic charge    =     24.0000000
 number of spin components  =  1

%%%% BOUNDARY %%%%%%%%%%%%%%%%%%%%%%%%%%%%%%%%%%%%%%%%%%%%%%%%%%%%%%%%%%%%%%%%%%
 boundary label             = solvent              
 boundary mode              = full                 
 boundary is built as a function of a smooth density
 function type              =  2 
 using the modified SCCS function with parameters 
 rhomax                     =      0.0050000 
 rhomin                     =      0.0001000 
 volume of the QM region    =    714.0054853 
 surface of the QM region   =    412.5102803 

%%%% DIELECTRIC %%%%%%%%%%%%%%%%%%%%%%%%%%%%%%%%%%%%%%%%%%%%%%%%%%%%%%%%%%%%%%%%%
 dielectric build on homogeneous background
 environment bulk permitt.  =    100.0000000 
 dielectric flags
 need gradient              =  F 
 need factor depend. sqrt   =  T 
 total dielectric charge    =     -0.0002632

%%%% DENSITY %%%%%%%%%%%%%%%%%%%%%%%%%%%%%%%%%%%%%%%%%%%%%%%%%%%%%%%%%%%%%%%%%%%
 density label              = vreference                                                                      
 integral of density        =    -0.1425822423E-11

%%%% DENSITY %%%%%%%%%%%%%%%%%%%%%%%%%%%%%%%%%%%%%%%%%%%%%%%%%%%%%%%%%%%%%%%%%%%
 density label              = velectrostatic                                                                  
 integral of density        =    -0.1778330569E-12

%%%% CHARGES %%%%%%%%%%%%%%%%%%%%%%%%%%%%%%%%%%%%%%%%%%%%%%%%%%%%%%%%%%%%%%%%%%%
 total number of charges    =         34
 total charge               =     -1.0000000

%%%% DENSITY %%%%%%%%%%%%%%%%%%%%%%%%%%%%%%%%%%%%%%%%%%%%%%%%%%%%%%%%%%%%%%%%%%%
 density label              = vsoftcavity                                                                     
 integral of density        =      46.11560846    
