
     Program PWSCF v.6.1 (svn rev. 13369) starts on 13Nov2017 at 12:36:38 

     This program is part of the open-source Quantum ESPRESSO suite
     for quantum simulation of materials; please cite
         "P. Giannozzi et al., J. Phys.:Condens. Matter 21 395502 (2009);
          URL http://www.quantum-espresso.org", 
     in publications or presentations arising from this work. More details at
     http://www.quantum-espresso.org/quote

     Serial version
     Reading input from slab.in

     Current dimensions of program PWSCF are:
     Max number of different atomic species (ntypx) = 10
     Max number of k-points (npk) =  40000
     Max angular momentum in pseudopotentials (lmaxx) =  3
               file C.pbe-rrkjus.UPF: wavefunction(s)  2S 2P renormalized
               file O.pbe-rrkjus.UPF: wavefunction(s)  2S renormalized

     gamma-point specific algorithms are used

     G-vector sticks info
     --------------------
     sticks:   dense  smooth     PW     G-vecs:    dense   smooth      PW
     Sum        2357    1099    269               366833   116965   14571



     bravais-lattice index     =            8
     lattice parameter (alat)  =      10.6881  a.u.
     unit-cell volume          =    4181.1215 (a.u.)^3
     number of atoms/cell      =           10
     number of atomic types    =            3
     number of electrons       =        89.00
     number of Kohn-Sham states=           80
     kinetic-energy cutoff     =      35.0000  Ry
     charge density cutoff     =     300.0000  Ry
     convergence threshold     =      5.0E-02
     mixing beta               =       0.7000
     number of iterations used =            8  plain     mixing
     Exchange-correlation      = PBE ( 1  4  3  4 0 0)


     Environ Module
     ==============

     Plese cite
         O. Andreussi, I. Dabo and N. Marzari, J. Chem. Phys. 136, 064102 (2012)         
     in publications or presentations arising from this work.

     compensation onset threshold      =               0.1000E+03 
     static permittivity               =                   100.00 
     epsilon calculation mode          =                     full 

     Electrostatic Setup
     -------------------
     electrostatic problem to solve    = generalized              
     numerical solver adopted          = cg                       
     type of auxiliary density adopted = none                     
     type of core tool for poisson     = fft                      
     type of core tool for s(r) deriv  = analytic                 



     celldm(1)=  10.688100  celldm(2)=   0.866025  celldm(3)=   3.954220
     celldm(4)=   0.000000  celldm(5)=   0.000000  celldm(6)=   0.000000

     crystal axes: (cart. coord. in units of alat)
               a(1) = (   1.000000   0.000000   0.000000 )  
               a(2) = (   0.000000   0.866025   0.000000 )  
               a(3) = (   0.000000   0.000000   3.954220 )  

     reciprocal axes: (cart. coord. in units 2 pi/alat)
               b(1) = (  1.000000  0.000000  0.000000 )  
               b(2) = (  0.000000  1.154701  0.000000 )  
               b(3) = (  0.000000  0.000000  0.252894 )  


     PseudoPot. # 1 for C  read from file:
     /Users/oliviero/PWSCF/espresso-6.1-Environ-1.0/Environ/tests/../..//pseudo/C.pbe-rrkjus.UPF
     MD5 check sum: 00fb224312de0c5b6853bd333518df6f
     Pseudo is Ultrasoft, Zval =  4.0
     Generated by new atomic code, or converted to UPF format
     Using radial grid of  627 points,  4 beta functions with: 
                l(1) =   0
                l(2) =   0
                l(3) =   1
                l(4) =   1
     Q(r) pseudized with 0 coefficients 


     PseudoPot. # 2 for O  read from file:
     /Users/oliviero/PWSCF/espresso-6.1-Environ-1.0/Environ/tests/../..//pseudo/O.pbe-rrkjus.UPF
     MD5 check sum: 390ba29e75625707450f3bd3f0eb6be9
     Pseudo is Ultrasoft, Zval =  6.0
     Generated by new atomic code, or converted to UPF format
     Using radial grid of 1269 points,  4 beta functions with: 
                l(1) =   0
                l(2) =   0
                l(3) =   1
                l(4) =   1
     Q(r) pseudized with 0 coefficients 


     PseudoPot. # 3 for Pt read from file:
     /Users/oliviero/PWSCF/espresso-6.1-Environ-1.0/Environ/tests/../..//pseudo/Pt.pbe-n-rrkjus_psl.0.1.UPF
     MD5 check sum: df5be8f5ed4f66d4aed38ca70ec8d507
     Pseudo is Ultrasoft + core correction, Zval = 10.0
     Generated using "atomic" code by A. Dal Corso  v.5.0.2 svn rev. 9415
     Using radial grid of 1277 points,  6 beta functions with: 
                l(1) =   0
                l(2) =   0
                l(3) =   1
                l(4) =   1
                l(5) =   2
                l(6) =   2
     Q(r) pseudized with 0 coefficients 


     atomic species   valence    mass     pseudopotential
        C              4.00     1.00000     C ( 1.00)
        O              6.00     1.00000     O ( 1.00)
        Pt            10.00     1.00000     Pt( 1.00)

     No symmetry found



   Cartesian axes

     site n.     atom                  positions (alat units)
         1           C   tau(   1) = (   0.4991611   0.4347567   0.7762281  )
         2           O   tau(   2) = (   0.4991542   0.4322212   0.9800832  )
         3           Pt  tau(   3) = (   0.7542339   0.0091745   0.4105048  )
         4           Pt  tau(   4) = (   0.2441023   0.0091745   0.4105046  )
         5           Pt  tau(   5) = (   0.0000034   0.4416918   0.4083168  )
         6           Pt  tau(   6) = (   0.4991682   0.4417635   0.4468119  )
         7           Pt  tau(   7) = (   0.0000038   0.7300598   0.0000000  )
         8           Pt  tau(   8) = (   0.4991683   0.7202168   0.0139279  )
         9           Pt  tau(   9) = (   0.2524172   0.2949237   0.0078392  )
        10           Pt  tau(  10) = (   0.7459196   0.2949237   0.0078394  )

     number of k points=     1  Marzari-Vanderbilt smearing, width (Ry)=  0.0300
                       cart. coord. in units 2pi/alat
        k(    1) = (   0.0000000   0.0000000   0.0000000), wk =   2.0000000

     Dense  grid:   183417 G-vectors     FFT dimensions: (  60,  54, 240)

     Smooth grid:    58483 G-vectors     FFT dimensions: (  45,  36, 160)

     Estimated max dynamical RAM per process >     231.32MB

     Initial potential from superposition of free atoms
     Check: negative starting charge=   -0.003083

     starting charge   89.99859, renormalised to   89.00000

     negative rho (up, down):  3.049E-03 0.000E+00
     Starting wfc are   80 randomized atomic wfcs

     total cpu time spent up to now is       13.0 secs

     Self-consistent Calculation

     iteration #  1     ecut=    35.00 Ry     beta=0.70
     Davidson diagonalization with overlap
     ethr =  1.00E-02,  avg # of iterations =  5.0

     negative rho (up, down):  2.886E-03 0.000E+00

     add environment contribution to local potential
     polarization accuracy = 9.1E-05, # of iterations =  23

     total cpu time spent up to now is       20.5 secs

     total energy              =    -622.72243073 Ry
     Harris-Foulkes estimate   =    -624.21130265 Ry
     estimated scf accuracy    <       1.86638633 Ry
     electrostatic embedding   =      -0.00033812 Ry
     correction to one-el term =       0.00000000 Ry

     iteration #  2     ecut=    35.00 Ry     beta=0.70
     Davidson diagonalization with overlap
     ethr =  2.10E-03,  avg # of iterations =  8.0

     negative rho (up, down):  2.033E-02 0.000E+00

     add environment contribution to local potential
     polarization accuracy = 5.5E-05, # of iterations =  47

     total cpu time spent up to now is       30.5 secs

     total energy              =    -618.71844741 Ry
     Harris-Foulkes estimate   =    -605.79941578 Ry
     estimated scf accuracy    <      44.76176643 Ry
     electrostatic embedding   =      -0.22803562 Ry
     correction to one-el term =     -21.33528064 Ry

     iteration #  3     ecut=    35.00 Ry     beta=0.70
     Davidson diagonalization with overlap
     ethr =  2.10E-03,  avg # of iterations =  5.0

     negative rho (up, down):  8.598E-03 0.000E+00

     add environment contribution to local potential
     polarization accuracy = 6.2E-05, # of iterations =  27

     total cpu time spent up to now is       38.3 secs

     total energy              =    -624.24971306 Ry
     Harris-Foulkes estimate   =    -599.52679142 Ry
     estimated scf accuracy    <       0.51957455 Ry
     electrostatic embedding   =      -0.24356133 Ry
     correction to one-el term =     -24.73894866 Ry

     iteration #  4     ecut=    35.00 Ry     beta=0.70
     Davidson diagonalization with overlap
     ethr =  5.84E-04,  avg # of iterations =  6.0

     negative rho (up, down):  9.037E-03 0.000E+00

     add environment contribution to local potential
     polarization accuracy = 5.8E-05, # of iterations =  29

     total cpu time spent up to now is       46.4 secs

     total energy              =    -623.95850366 Ry
     Harris-Foulkes estimate   =    -600.92062940 Ry
     estimated scf accuracy    <       1.45255498 Ry
     electrostatic embedding   =      -0.20278448 Ry
     correction to one-el term =     -23.09643152 Ry

     iteration #  5     ecut=    35.00 Ry     beta=0.70
     Davidson diagonalization with overlap
     ethr =  5.84E-04,  avg # of iterations =  2.0

     negative rho (up, down):  5.420E-03 0.000E+00

     add environment contribution to local potential
     polarization accuracy = 2.9E-05, # of iterations =  28

     total cpu time spent up to now is       53.6 secs

     total energy              =    -624.10180069 Ry
     Harris-Foulkes estimate   =    -600.51266772 Ry
     estimated scf accuracy    <       0.21881597 Ry
     electrostatic embedding   =      -0.21860936 Ry
     correction to one-el term =     -23.41956844 Ry

     iteration #  6     ecut=    35.00 Ry     beta=0.70
     Davidson diagonalization with overlap
     ethr =  2.46E-04,  avg # of iterations =  3.0

     negative rho (up, down):  5.294E-03 0.000E+00

     add environment contribution to local potential
     polarization accuracy = 2.2E-05, # of iterations =  28

     total cpu time spent up to now is       61.0 secs

     total energy              =    -624.12286670 Ry
     Harris-Foulkes estimate   =    -599.89226900 Ry
     estimated scf accuracy    <       0.26122501 Ry
     electrostatic embedding   =      -0.23496658 Ry
     correction to one-el term =     -24.02255382 Ry

     iteration #  7     ecut=    35.00 Ry     beta=0.70
     Davidson diagonalization with overlap
     ethr =  2.46E-04,  avg # of iterations =  1.0

     negative rho (up, down):  4.451E-03 0.000E+00

     add environment contribution to local potential
     polarization accuracy = 7.5E-05, # of iterations =  27

     total cpu time spent up to now is       68.3 secs

     total energy              =    -624.13010883 Ry
     Harris-Foulkes estimate   =    -599.67321389 Ry
     estimated scf accuracy    <       0.12512074 Ry
     electrostatic embedding   =      -0.24347063 Ry
     correction to one-el term =     -24.23124184 Ry

     iteration #  8     ecut=    35.00 Ry     beta=0.70
     Davidson diagonalization with overlap
     ethr =  1.41E-04,  avg # of iterations =  1.0

     negative rho (up, down):  3.638E-03 0.000E+00

     total cpu time spent up to now is       72.9 secs

     End of self-consistent calculation

          k = 0.0000 0.0000 0.0000 (  7286 PWs)   bands (ev):

   -24.7941 -11.3391  -9.7390  -8.4905  -8.2675  -7.6935  -7.6912  -7.5663
    -7.3831  -6.5823  -6.4387  -6.3266  -6.0951  -6.0569  -5.9917  -5.8546
    -5.1531  -5.1202  -5.0475  -4.8551  -4.8282  -4.7594  -4.7339  -4.7043
    -4.6601  -4.5097  -4.4825  -4.4041  -4.2841  -4.0451  -3.9762  -3.1857
    -3.0653  -2.8049  -2.5580  -2.5290  -2.4684  -2.2807  -2.2069  -2.0369
    -1.8531  -1.8243  -1.6475  -1.5620  -1.5255  -1.3649  -1.1411  -0.1202
     0.2088   0.2449   0.8589   1.5126   1.6950   2.6757   2.9978   3.0628
     4.4181   4.4747   4.7147   4.9661   5.4676   5.8170   6.0561   6.0706
     6.9380   7.1484   7.3345   7.5113   7.5997   7.9682   8.9231   9.1051
     9.2448   9.4309   9.6226   9.9325  10.0590  10.1132  10.2233  10.3438

     the Fermi energy is    -1.4435 ev

!    total energy              =    -624.12756546 Ry
     Harris-Foulkes estimate   =    -599.55376849 Ry
     estimated scf accuracy    <       0.02225339 Ry

     The total energy is the sum of the following terms:

     one-electron contribution =   -3917.50494917 Ry
     hartree contribution      =    2007.66028304 Ry
     xc contribution           =    -262.89554071 Ry
     ewald contribution        =    1573.20467954 Ry
     smearing contrib. (-TS)   =       0.00156220 Ry
     electrostatic embedding   =      -0.24671505 Ry
     correction to one-el term =     -24.34688530 Ry

     convergence has been achieved in   8 iterations

     negative rho (up, down):  3.638E-03 0.000E+00

     Forces acting on atoms (cartesian axes, Ry/au):

     atom    1 type  1   force =    -0.00008347   -0.00349346    0.10789299
     atom    2 type  2   force =    -0.00004057    0.00172803   -0.00948002
     atom    3 type  3   force =    -0.01335551    0.01384619    0.09317861
     atom    4 type  3   force =     0.01432810    0.01384429    0.09437408
     atom    5 type  3   force =    -0.00232569    0.00354990    0.07185004
     atom    6 type  3   force =     0.00133724    0.00832204    0.10927002
     atom    7 type  3   force =    -0.00242075   -0.00232287   -0.13281799
     atom    8 type  3   force =     0.00141320   -0.01819430   -0.09636283
     atom    9 type  3   force =     0.03299449   -0.00872436   -0.11933474
     atom   10 type  3   force =    -0.03184703   -0.00855546   -0.11857015

     Total force =     0.324216     Total SCF correction =     0.554671
     SCF correction compared to forces is large: reduce conv_thr to get better values

     Writing output data file pwscf.save

     init_run     :     12.27s CPU     12.60s WALL (       1 calls)
     electrons    :     59.92s CPU     60.06s WALL (       1 calls)
     forces       :      7.90s CPU      8.10s WALL (       1 calls)

     Called by init_run:
     wfcinit      :      0.58s CPU      0.50s WALL (       1 calls)
     potinit      :      3.00s CPU      3.06s WALL (       1 calls)

     Called by electrons:
     c_bands      :     15.46s CPU     11.66s WALL (       8 calls)
     sum_band     :     12.91s CPU     12.45s WALL (       8 calls)
     v_of_rho     :      5.22s CPU      5.53s WALL (       9 calls)
     newd         :      7.43s CPU      9.45s WALL (       9 calls)
     mix_rho      :      0.45s CPU      0.58s WALL (       8 calls)

     Called by c_bands:
     init_us_2    :      0.12s CPU      0.14s WALL (      17 calls)
     regterg      :     14.87s CPU     11.05s WALL (       8 calls)

     Called by sum_band:
     sum_band:bec :      0.00s CPU      0.00s WALL (       8 calls)
     addusdens    :     10.45s CPU     10.03s WALL (       8 calls)

     Called by *egterg:
     h_psi        :      9.73s CPU      8.56s WALL (      40 calls)
     s_psi        :      1.24s CPU      0.34s WALL (      40 calls)
     g_psi        :      0.07s CPU      0.07s WALL (      31 calls)
     rdiaghg      :      0.64s CPU      0.60s WALL (      39 calls)

     Called by h_psi:
     h_psi:pot    :      9.67s CPU      8.49s WALL (      40 calls)
     h_psi:calbec :      0.62s CPU      0.32s WALL (      40 calls)
     vloc_psi     :      7.80s CPU      7.84s WALL (      40 calls)
     add_vuspsi   :      1.24s CPU      0.33s WALL (      40 calls)

     General routines
     calbec       :      0.93s CPU      0.47s WALL (      52 calls)
     fft          :     13.81s CPU     13.85s WALL (     680 calls)
     ffts         :      0.11s CPU      0.11s WALL (      17 calls)
     fftw         :      7.69s CPU      7.72s WALL (    2120 calls)
     interpolate  :      0.55s CPU      0.63s WALL (      17 calls)
     davcio       :      0.00s CPU      0.00s WALL (       1 calls)


     Environ routines
     calc_eelect  :      0.02s CPU      0.02s WALL (      16 calls)
     calc_velect  :     15.53s CPU     17.31s WALL (      14 calls)
     dielectric   :      0.31s CPU      0.40s WALL (      10 calls)
     calc_felect  :      0.24s CPU      0.26s WALL (       1 calls)

     PWSCF        :  1m20.55s CPU     1m21.44s WALL


   This run was terminated on:  12:37:59  13Nov2017            

=------------------------------------------------------------------------------=
   JOB DONE.
=------------------------------------------------------------------------------=

%%%% IONS %%%%%%%%%%%%%%%%%%%%%%%%%%%%%%%%%%%%%%%%%%%%%%%%%%%%%%%%%%%%%%%%%%%%%%
 number of ions             =         10
 ionic center of charge     =      0.3882415     0.3750182     0.2893651
 total ionic charge         =    -90.0000000
 ionic dipole               =      0.0000000     0.0000000     0.0000000
 ionic quadrupole (pc)      =   -730.5101255  -614.6110457  -876.7220256
 ionic quadrupole (gauss)   =   -741.7601255  -625.8610457  -887.9720256
 ion   1 type =  1 coordinates =      5.3350841     4.6467234     8.2964034
 ion   2 type =  2 coordinates =      5.3350096     4.6196233    10.4752278
 ion   3 type =  3 coordinates =      8.0613271     0.0980580     4.3875164
 ion   4 type =  3 coordinates =      2.6089894     0.0980583     4.3875141
 ion   5 type =  3 coordinates =      0.0000366     4.7208463     4.3641304
 ion   6 type =  3 coordinates =      5.3351596     4.7216127     4.7755699
 ion   7 type =  3 coordinates =      0.0000411     7.8029520     0.0000000
 ion   8 type =  3 coordinates =      5.3351612     7.6977491     0.1488629
 ion   9 type =  3 coordinates =      2.6978606     3.1521739     0.0837858
 ion  10 type =  3 coordinates =      7.9724637     3.1521745     0.0837887

%%%% SYSTEM %%%%%%%%%%%%%%%%%%%%%%%%%%%%%%%%%%%%%%%%%%%%%%%%%%%%%%%%%%%%%%%%%%%%
 system is built from all present ionic types
 system defined dimension   =  0 
 system defined axis        =  3 
 system center              =      0.3882415     0.3750182     0.2893651 
 system width               =      1.5145225 

%%%% ELECTRONS %%%%%%%%%%%%%%%%%%%%%%%%%%%%%%%%%%%%%%%%%%%%%%%%%%%%%%%%%%%%%%%%%
 number of electrons        =         89
 total electronic charge    =     89.0000000
 number of spin components  =  1

%%%% BOUNDARY %%%%%%%%%%%%%%%%%%%%%%%%%%%%%%%%%%%%%%%%%%%%%%%%%%%%%%%%%%%%%%%%%%
 boundary mode              = full                 
 boundary is built as a function of a smooth density
 function type              =  2 
 using the modified SCCS function with parameters 
 rhomax                     =      0.0050000 
 rhomin                     =      0.0001000 
 volume of the QM region    =   1500.3585238 
 surface of the QM region   =    259.8000154 

%%%% DIELECTRIC %%%%%%%%%%%%%%%%%%%%%%%%%%%%%%%%%%%%%%%%%%%%%%%%%%%%%%%%%%%%%%%%%
 dielectric build on homogeneous background
 environment bulk permitt.  =    100.0000000 
 dielectric flags
 need gradient              =  F 
 need factor depend. sqrt   =  T 
 need gradient of logarithm =  T 

%%%% COMPUTE ELECTROSTATIC POTENTIAL %%%%%%%%%%%%%%%%%%%%%%%%%%%%%%%%%%%%%%%%%%%
 Iteration #          1
  pAp =    1280.5279095390890       rzold =    1272.9573654803057       alpha =   0.99408795075656864     
 delta_qm =   0.151674E+00 delta_en =   0.178888E+05 tol =   0.100000E-03
 Iteration #          2
  pAp =    3687.2184127652417       rzold =    161.95589857863897       alpha =    4.3923597804226520E-002
 delta_qm =   0.211067E-01 delta_en =   0.346414E+03 tol =   0.100000E-03
 Iteration #          3
  pAp =    8.9488804196489351       rzold =   0.95928091686921724       alpha =   0.10719563474811186     
 delta_qm =   0.330952E-01 delta_en =   0.851700E+03 tol =   0.100000E-03
 Iteration #          4
  pAp =   0.30117023903136320       rzold =   0.11417447858844712       alpha =   0.37910279234648164     
 delta_qm =   0.253654E-01 delta_en =   0.500311E+03 tol =   0.100000E-03
 Iteration #          5
  pAp =   0.16658072373413926       rzold =    9.8489056803944916E-002  alpha =   0.59123921781689581     
 delta_qm =   0.142650E-01 delta_en =   0.158235E+03 tol =   0.100000E-03
 Iteration #          6
  pAp =   0.29864093509245604       rzold =   0.13550852333729532       alpha =   0.45375066648295664     
 delta_qm =   0.841540E-02 delta_en =   0.550688E+02 tol =   0.100000E-03
 Iteration #          7
  pAp =    7.0001493590871045E-002  rzold =    4.0444837205118524E-002  alpha =   0.57777106073623796     
 delta_qm =   0.609279E-02 delta_en =   0.288661E+02 tol =   0.100000E-03
 Iteration #          8
  pAp =    1.9171551093269498E-002  rzold =    9.7703526195982160E-003  alpha =   0.50962765464648641     
 delta_qm =   0.420162E-02 delta_en =   0.137274E+02 tol =   0.100000E-03
 Iteration #          9
  pAp =    4.7744391553609950E-003  rzold =    2.8950543565967831E-003  alpha =   0.60636532635379004     
 delta_qm =   0.319717E-02 delta_en =   0.794857E+01 tol =   0.100000E-03
 Iteration #         10
  pAp =    2.6834294164768246E-003  rzold =    2.0826196262465862E-003  alpha =   0.77610374748777100     
 delta_qm =   0.182880E-02 delta_en =   0.260068E+01 tol =   0.100000E-03
 Iteration #         11
  pAp =    3.6114326586871512E-003  rzold =    1.7275841574813449E-003  alpha =   0.47836532499802065     
 delta_qm =   0.171276E-02 delta_en =   0.228112E+01 tol =   0.100000E-03
 Iteration #         12
  pAp =    1.9835213731373099E-003  rzold =    7.6824170117922451E-004  alpha =   0.38731203584870205     
 delta_qm =   0.166759E-02 delta_en =   0.216239E+01 tol =   0.100000E-03
 Iteration #         13
  pAp =    1.2973848148863196E-004  rzold =    2.2917457373275606E-004  alpha =    1.7664348395571206     
 delta_qm =   0.123536E-02 delta_en =   0.118670E+01 tol =   0.100000E-03
 Iteration #         14
  pAp =    4.3139888773462472E-003  rzold =    7.0297286032879980E-004  alpha =   0.16295194084070841     
 delta_qm =   0.110236E-02 delta_en =   0.944942E+00 tol =   0.100000E-03
 Iteration #         15
  pAp =    6.8609382771866083E-003  rzold =    1.4957413115185643E-003  alpha =   0.21800827395460945     
 delta_qm =   0.148209E-02 delta_en =   0.170807E+01 tol =   0.100000E-03
 Iteration #         16
  pAp =    6.1988230369037947E-004  rzold =    3.1980032706230987E-004  alpha =   0.51590491478531486     
 delta_qm =   0.108252E-02 delta_en =   0.911232E+00 tol =   0.100000E-03
 Iteration #         17
  pAp =    5.5677189236273152E-004  rzold =    1.8217152904279030E-004  alpha =   0.32719239520106252     
 delta_qm =   0.646075E-03 delta_en =   0.324581E+00 tol =   0.100000E-03
 Iteration #         18
  pAp =    7.3400029428737450E-005  rzold =    3.7732680658597896E-005  alpha =   0.51406901267296856     
 delta_qm =   0.272751E-03 delta_en =   0.578482E-01 tol =   0.100000E-03
 Iteration #         19
  pAp =    1.3656432134002609E-005  rzold =    7.9811043998431104E-006  alpha =   0.58442090302424421     
 delta_qm =   0.127909E-03 delta_en =   0.127222E-01 tol =   0.100000E-03
 Iteration #         20
  pAp =    2.7708622094717686E-006  rzold =    1.8390821964860579E-006  alpha =   0.66372199606297155     
 delta_qm =   0.618915E-04 delta_en =   0.297864E-02 tol =   0.100000E-03
 Iteration #         21
  pAp =    2.6151291291113313E-006  rzold =    6.8169400078345192E-007  alpha =   0.26067317028245712     
 delta_qm =   0.521878E-04 delta_en =   0.211784E-02 tol =   0.100000E-03
 Iteration #         22
  pAp =    3.1430906552486064E-006  rzold =    6.6042261516682689E-007  alpha =   0.21011885675775713     
 delta_qm =   0.280401E-04 delta_en =   0.611384E-03 tol =   0.100000E-03
 Iteration #         23
  pAp =    6.9496618994845564E-008  rzold =    4.6974758543220484E-008  alpha =   0.67592868865612754     
 delta_qm =   0.108412E-04 delta_en =   0.913931E-04 tol =   0.100000E-03
 Charges are converged, EXIT

%%%% ELECTRONS %%%%%%%%%%%%%%%%%%%%%%%%%%%%%%%%%%%%%%%%%%%%%%%%%%%%%%%%%%%%%%%%%
 number of electrons        =         89
 total electronic charge    =     89.0000000
 number of spin components  =  1

%%%% BOUNDARY %%%%%%%%%%%%%%%%%%%%%%%%%%%%%%%%%%%%%%%%%%%%%%%%%%%%%%%%%%%%%%%%%%
 boundary mode              = full                 
 boundary is built as a function of a smooth density
 function type              =  2 
 using the modified SCCS function with parameters 
 rhomax                     =      0.0050000 
 rhomin                     =      0.0001000 
 volume of the QM region    =   1513.6869400 
 surface of the QM region   =    348.5027271 

%%%% DIELECTRIC %%%%%%%%%%%%%%%%%%%%%%%%%%%%%%%%%%%%%%%%%%%%%%%%%%%%%%%%%%%%%%%%%
 dielectric build on homogeneous background
 environment bulk permitt.  =    100.0000000 
 dielectric flags
 need gradient              =  F 
 need factor depend. sqrt   =  T 
 need gradient of logarithm =  T 

%%%% COMPUTE ELECTROSTATIC POTENTIAL %%%%%%%%%%%%%%%%%%%%%%%%%%%%%%%%%%%%%%%%%%%
 Warning: bad guess with residual norm =   0.379701E+07, reset to no guess
 Iteration #          1
  pAp =    1274.6580618975977       rzold =    1274.1244117291560       alpha =   0.99958133856883369     
 delta_qm =   0.111249E+00 delta_en =   0.962379E+04 tol =   0.100000E-03
 Iteration #          2
  pAp =    149.25240509997172       rzold =    7.0854411261271055       alpha =    4.7472877380978620E-002
 delta_qm =   0.116946E+00 delta_en =   0.106347E+05 tol =   0.100000E-03
 Iteration #          3
  pAp =    17.058236170860738       rzold =    1.6606277190837293       alpha =    9.7350494063416171E-002
 delta_qm =   0.690216E-01 delta_en =   0.370447E+04 tol =   0.100000E-03
 Iteration #          4
  pAp =    1.0231340475880852       rzold =   0.16436045707116292       alpha =   0.16064410861765652     
 delta_qm =   0.728779E-01 delta_en =   0.412998E+04 tol =   0.100000E-03
 Iteration #          5
  pAp =   0.31326429486118829       rzold =   0.14810145491565854       alpha =   0.47276838549788869     
 delta_qm =   0.272657E-01 delta_en =   0.578081E+03 tol =   0.100000E-03
 Iteration #          6
  pAp =    7.5038556589971328E-002  rzold =   0.10579863331444007       alpha =    1.4099236195673270     
 delta_qm =   0.458721E-01 delta_en =   0.163626E+04 tol =   0.100000E-03
 Iteration #          7
  pAp =   0.40764937999309175       rzold =   0.25559001211367444       alpha =   0.62698491561058134     
 delta_qm =   0.636088E-01 delta_en =   0.314623E+04 tol =   0.100000E-03
 Iteration #          8
  pAp =   0.19116672628992662       rzold =   0.13350425611334052       alpha =   0.69836555086927499     
 delta_qm =   0.586597E-01 delta_en =   0.267569E+04 tol =   0.100000E-03
 Iteration #          9
  pAp =    7.8304103801331001E-002  rzold =   0.13624364092067509       alpha =    1.7399297649372911     
 delta_qm =   0.879672E-01 delta_en =   0.601725E+04 tol =   0.100000E-03
 Iteration #         10
  pAp =   0.59108252437501108       rzold =   0.45247809176892351       alpha =   0.76550747672223474     
 delta_qm =   0.125901E+00 delta_en =   0.123259E+05 tol =   0.100000E-03
 Iteration #         11
  pAp =   0.73155939611363774       rzold =   0.64453339673050369       alpha =   0.88104041880200834     
 delta_qm =   0.153432E+00 delta_en =   0.183057E+05 tol =   0.100000E-03
 Iteration #         12
  pAp =   0.90075144088831227       rzold =   0.78775135391750062       alpha =   0.87454909107958567     
 delta_qm =   0.189074E+00 delta_en =   0.277984E+05 tol =   0.100000E-03
 Iteration #         13
  pAp =    1.0461381562951768       rzold =    1.3399903569577309       alpha =    1.2808923457138879     
 delta_qm =   0.363731E+00 delta_en =   0.102877E+06 tol =   0.100000E-03
 Iteration #         14
  pAp =   -3.3788462475039225       rzold =    6.1944583214134274       alpha =   -1.8333057699768081     
 delta_qm =   0.113775E+01 delta_en =   0.100658E+07 tol =   0.100000E-03
 Iteration #         15
  pAp =    3682.2424218992201       rzold =    114.26370620276198       alpha =    3.1031011299855499E-002
 delta_qm =   0.611316E+00 delta_en =   0.290595E+06 tol =   0.100000E-03
 Iteration #         16
  pAp =    74.482173318949549       rzold =    14.114477727306820       alpha =   0.18950142159339828     
 delta_qm =   0.216785E+00 delta_en =   0.365441E+05 tol =   0.100000E-03
 Iteration #         17
  pAp =    4.1310586781747478       rzold =    1.8866552137297701       alpha =   0.45670017317772960     
 delta_qm =   0.100974E+00 delta_en =   0.792822E+04 tol =   0.100000E-03
 Iteration #         18
  pAp =    1.0405200441878160       rzold =   0.41800741456146862       alpha =   0.40172932457802557     
 delta_qm =   0.775134E-01 delta_en =   0.467208E+04 tol =   0.100000E-03
 Iteration #         19
  pAp =   0.57471826918518898       rzold =   0.29388106396248409       alpha =   0.51134804602459583     
 delta_qm =   0.508133E-01 delta_en =   0.200776E+04 tol =   0.100000E-03
 Iteration #         20
  pAp =   0.17672445565798714       rzold =    9.8365675014098458E-002  alpha =   0.55660477010869647     
 delta_qm =   0.419966E-01 delta_en =   0.137147E+04 tol =   0.100000E-03
 Iteration #         21
  pAp =   0.14470662274712032       rzold =    7.3207781910263614E-002  alpha =   0.50590484748024744     
 delta_qm =   0.295919E-01 delta_en =   0.680929E+03 tol =   0.100000E-03
 Iteration #         22
  pAp =   0.92976579875769894       rzold =   0.11653372394914997       alpha =   0.12533664295337149     
 delta_qm =   0.268028E-01 delta_en =   0.558621E+03 tol =   0.100000E-03
 Iteration #         23
  pAp =    8.3615820816052108E-002  rzold =    3.6038163917902918E-002  alpha =   0.43099695208618355     
 delta_qm =   0.197133E-01 delta_en =   0.302185E+03 tol =   0.100000E-03
 Iteration #         24
  pAp =    2.6402753852041421E-002  rzold =    1.4027122348272403E-002  alpha =   0.53127497331827933     
 delta_qm =   0.112031E-01 delta_en =   0.975957E+02 tol =   0.100000E-03
 Iteration #         25
  pAp =    7.1225703714009169E-003  rzold =    4.3182334131243649E-003  alpha =   0.60627458739660367     
 delta_qm =   0.803070E-02 delta_en =   0.501491E+02 tol =   0.100000E-03
 Iteration #         26
  pAp =    7.9390600077798856E-003  rzold =    2.8001344160813275E-003  alpha =   0.35270352073637617     
 delta_qm =   0.685537E-02 delta_en =   0.365442E+02 tol =   0.100000E-03
 Iteration #         27
  pAp =   0.13737246506928016       rzold =    7.8640765850297063E-003  alpha =    5.7246381806307894E-002
 delta_qm =   0.651596E-02 delta_en =   0.330151E+02 tol =   0.100000E-03
 Iteration #         28
  pAp =    3.1175160764355552E-003  rzold =    1.5724193500275738E-003  alpha =   0.50438211430986946     
 delta_qm =   0.429194E-02 delta_en =   0.143240E+02 tol =   0.100000E-03
 Iteration #         29
  pAp =    1.0543617952395959E-003  rzold =    6.3865857705109035E-004  alpha =   0.60573000646894637     
 delta_qm =   0.296599E-02 delta_en =   0.684061E+01 tol =   0.100000E-03
 Iteration #         30
  pAp =    7.7634276654320864E-004  rzold =    4.5623003899377366E-004  alpha =   0.58766573046749893     
 delta_qm =   0.235068E-02 delta_en =   0.429679E+01 tol =   0.100000E-03
 Iteration #         31
  pAp =    1.8020809701435549E-004  rzold =    1.5485041495371762E-004  alpha =   0.85928666646639162     
 delta_qm =   0.170118E-02 delta_en =   0.225039E+01 tol =   0.100000E-03
 Iteration #         32
  pAp =    1.4920836413350968E-004  rzold =    8.8954922388732901E-005  alpha =   0.59617919481469017     
 delta_qm =   0.119471E-02 delta_en =   0.110990E+01 tol =   0.100000E-03
 Iteration #         33
  pAp =    4.0730696979469498E-004  rzold =    1.0938080185030179E-004  alpha =   0.26854635437600222     
 delta_qm =   0.104173E-02 delta_en =   0.843853E+00 tol =   0.100000E-03
 Iteration #         34
  pAp =    6.1625988846825027E-005  rzold =    4.3425059061386260E-005  alpha =   0.70465496576974629     
 delta_qm =   0.782212E-03 delta_en =   0.475779E+00 tol =   0.100000E-03
 Iteration #         35
  pAp =    2.8716250725348971E-005  rzold =    2.2853929948859244E-005  alpha =   0.79585354534758868     
 delta_qm =   0.599408E-03 delta_en =   0.279384E+00 tol =   0.100000E-03
 Iteration #         36
  pAp =    9.4368598191454096E-006  rzold =    9.3180849431644369E-006  alpha =   0.98741372890376067     
 delta_qm =   0.388686E-03 delta_en =   0.117477E+00 tol =   0.100000E-03
 Iteration #         37
  pAp =    9.7447631419597127E-005  rzold =    8.4886760425556264E-006  alpha =    8.7110132066776105E-002
 delta_qm =   0.355056E-03 delta_en =   0.980278E-01 tol =   0.100000E-03
 Iteration #         38
  pAp =    4.0351802937995240E-005  rzold =    1.0960792452767610E-005  alpha =   0.27163079849517535     
 delta_qm =   0.274454E-03 delta_en =   0.585728E-01 tol =   0.100000E-03
 Iteration #         39
  pAp =    6.0108682693143029E-006  rzold =    2.6154384285965768E-006  alpha =   0.43511824106152575     
 delta_qm =   0.198441E-03 delta_en =   0.306210E-01 tol =   0.100000E-03
 Iteration #         40
  pAp =    3.4608706496145472E-005  rzold =    4.0271423734772499E-006  alpha =   0.11636211754766886     
 delta_qm =   0.151864E-03 delta_en =   0.179335E-01 tol =   0.100000E-03
 Iteration #         41
  pAp =    9.5751158241670275E-007  rzold =    6.2076011403948709E-007  alpha =   0.64830559278742628     
 delta_qm =   0.778149E-04 delta_en =   0.470849E-02 tol =   0.100000E-03
 Iteration #         42
  pAp =    3.4544810203046519E-007  rzold =    2.0979997722593758E-007  alpha =   0.60732705142329957     
 delta_qm =   0.500021E-04 delta_en =   0.194416E-02 tol =   0.100000E-03
 Iteration #         43
  pAp =    1.5758038950608410E-007  rzold =    1.0129427109352563E-007  alpha =   0.64281013272666587     
 delta_qm =   0.371647E-04 delta_en =   0.107403E-02 tol =   0.100000E-03
 Iteration #         44
  pAp =    5.9385769370832436E-008  rzold =    4.2997463835502781E-008  alpha =   0.72403648704130730     
 delta_qm =   0.271316E-04 delta_en =   0.572411E-03 tol =   0.100000E-03
 Iteration #         45
  pAp =    2.7157131650060086E-008  rzold =    2.2751845598960159E-008  alpha =   0.83778529677341018     
 delta_qm =   0.190271E-04 delta_en =   0.281514E-03 tol =   0.100000E-03
 Iteration #         46
  pAp =    1.2074385737795862E-008  rzold =    9.2859778244349508E-009  alpha =   0.76906420136699016     
 delta_qm =   0.122293E-04 delta_en =   0.116294E-03 tol =   0.100000E-03
 Iteration #         47
  pAp =    1.1708066140911456E-008  rzold =    6.2709124597151666E-009  alpha =   0.53560616964767038     
 delta_qm =   0.838098E-05 delta_en =   0.546193E-04 tol =   0.100000E-03
 Charges are converged, EXIT

%%%% ELECTRONS %%%%%%%%%%%%%%%%%%%%%%%%%%%%%%%%%%%%%%%%%%%%%%%%%%%%%%%%%%%%%%%%%
 number of electrons        =         89
 total electronic charge    =     89.0000000
 number of spin components  =  1

%%%% BOUNDARY %%%%%%%%%%%%%%%%%%%%%%%%%%%%%%%%%%%%%%%%%%%%%%%%%%%%%%%%%%%%%%%%%%
 boundary mode              = full                 
 boundary is built as a function of a smooth density
 function type              =  2 
 using the modified SCCS function with parameters 
 rhomax                     =      0.0050000 
 rhomin                     =      0.0001000 
 volume of the QM region    =   1481.6719310 
 surface of the QM region   =    275.6073432 

%%%% DIELECTRIC %%%%%%%%%%%%%%%%%%%%%%%%%%%%%%%%%%%%%%%%%%%%%%%%%%%%%%%%%%%%%%%%%
 dielectric build on homogeneous background
 environment bulk permitt.  =    100.0000000 
 dielectric flags
 need gradient              =  F 
 need factor depend. sqrt   =  T 
 need gradient of logarithm =  T 

%%%% COMPUTE ELECTROSTATIC POTENTIAL %%%%%%%%%%%%%%%%%%%%%%%%%%%%%%%%%%%%%%%%%%%
 Warning: bad guess with residual norm =   0.805808E+06, reset to no guess
 Iteration #          1
  pAp =    1271.3722635062625       rzold =    1271.0000372879185       alpha =   0.99970722483962537     
 delta_qm =   0.738765E-01 delta_en =   0.424393E+04 tol =   0.100000E-03
 Iteration #          2
  pAp =    23.694568074832489       rzold =    3.0063936754808296       alpha =   0.12688113435898044     
 delta_qm =   0.402053E-01 delta_en =   0.125696E+04 tol =   0.100000E-03
 Iteration #          3
  pAp =    1.7408982587856972       rzold =   0.20198052235669300       alpha =   0.11602086528455573     
 delta_qm =   0.433042E-01 delta_en =   0.145820E+04 tol =   0.100000E-03
 Iteration #          4
  pAp =   0.73563634988656046       rzold =   0.11979173701408993       alpha =   0.16284097031442579     
 delta_qm =   0.447618E-01 delta_en =   0.155802E+04 tol =   0.100000E-03
 Iteration #          5
  pAp =   0.76624666401925889       rzold =   0.30507679104455343       alpha =   0.39814436443260731     
 delta_qm =   0.143347E-01 delta_en =   0.159784E+03 tol =   0.100000E-03
 Iteration #          6
  pAp =   0.27148121147344367       rzold =   0.14934822311412718       alpha =   0.55012360635769608     
 delta_qm =   0.136537E-01 delta_en =   0.144963E+03 tol =   0.100000E-03
 Iteration #          7
  pAp =   0.11425505073260793       rzold =    5.3400711372986485E-002  alpha =   0.46738162585005216     
 delta_qm =   0.102361E-01 delta_en =   0.814750E+02 tol =   0.100000E-03
 Iteration #          8
  pAp =    3.6503747213642766E-002  rzold =    1.9130343305991063E-002  alpha =   0.52406519237678051     
 delta_qm =   0.942885E-02 delta_en =   0.691312E+02 tol =   0.100000E-03
 Iteration #          9
  pAp =    8.8104980909764000E-003  rzold =    7.2106544088886438E-003  alpha =   0.81841620467220855     
 delta_qm =   0.766445E-02 delta_en =   0.456792E+02 tol =   0.100000E-03
 Iteration #         10
  pAp =    1.7978076154715732E-002  rzold =    8.4646120161602622E-003  alpha =   0.47082968963505895     
 delta_qm =   0.515191E-02 delta_en =   0.206392E+02 tol =   0.100000E-03
 Iteration #         11
  pAp =    1.1965080957898652E-002  rzold =    4.5107811168491026E-003  alpha =   0.37699545307893190     
 delta_qm =   0.325294E-02 delta_en =   0.822826E+01 tol =   0.100000E-03
 Iteration #         12
  pAp =    1.2671665805217645E-003  rzold =    6.3207135602142794E-004  alpha =   0.49880683860930758     
 delta_qm =   0.203194E-02 delta_en =   0.321053E+01 tol =   0.100000E-03
 Iteration #         13
  pAp =    3.4050753540173189E-004  rzold =    2.8918055327874378E-004  alpha =   0.84926330026020602     
 delta_qm =   0.150328E-02 delta_en =   0.175725E+01 tol =   0.100000E-03
 Iteration #         14
  pAp =    4.5733280286855172E-004  rzold =    3.1909063123265204E-004  alpha =   0.69772084843073512     
 delta_qm =   0.237282E-02 delta_en =   0.437812E+01 tol =   0.100000E-03
 Iteration #         15
  pAp =    9.5572011346642166E-004  rzold =    5.3139974646957853E-004  alpha =   0.55602026051557907     
 delta_qm =   0.299854E-02 delta_en =   0.699160E+01 tol =   0.100000E-03
 Iteration #         16
  pAp =    8.2813334021539589E-004  rzold =    4.0399551682213710E-004  alpha =   0.48783872983191168     
 delta_qm =   0.262807E-02 delta_en =   0.537068E+01 tol =   0.100000E-03
 Iteration #         17
  pAp =    2.6829987077370415E-002  rzold =    2.0374937151932996E-003  alpha =    7.5940913028311186E-002
 delta_qm =   0.203838E-02 delta_en =   0.323093E+01 tol =   0.100000E-03
 Iteration #         18
  pAp =    8.3727814729111279E-004  rzold =    4.2290953740708835E-004  alpha =   0.50510041230067737     
 delta_qm =   0.150293E-02 delta_en =   0.175644E+01 tol =   0.100000E-03
 Iteration #         19
  pAp =    1.5700192673461549E-004  rzold =    1.1858443755513510E-004  alpha =   0.75530561962835974     
 delta_qm =   0.905156E-03 delta_en =   0.637093E+00 tol =   0.100000E-03
 Iteration #         20
  pAp =    8.6267431293750774E-005  rzold =    4.7013151010026605E-005  alpha =   0.54496987223302484     
 delta_qm =   0.565022E-03 delta_en =   0.248249E+00 tol =   0.100000E-03
 Iteration #         21
  pAp =    2.7455580226848141E-004  rzold =    3.7298974572941046E-005  alpha =   0.13585207183662901     
 delta_qm =   0.415750E-03 delta_en =   0.134406E+00 tol =   0.100000E-03
 Iteration #         22
  pAp =    4.2312266188248131E-005  rzold =    1.5761317013238303E-005  alpha =   0.37249994937912057     
 delta_qm =   0.196781E-03 delta_en =   0.301108E-01 tol =   0.100000E-03
 Iteration #         23
  pAp =    7.9870018570655623E-006  rzold =    3.6830278941113148E-006  alpha =   0.46112771225327664     
 delta_qm =   0.121868E-03 delta_en =   0.115488E-01 tol =   0.100000E-03
 Iteration #         24
  pAp =    2.4965055565040130E-006  rzold =    1.2751749255445936E-006  alpha =   0.51078393245408493     
 delta_qm =   0.588111E-04 delta_en =   0.268952E-02 tol =   0.100000E-03
 Iteration #         25
  pAp =    3.8116744497888115E-007  rzold =    2.1443033849661685E-007  alpha =   0.56256204804819443     
 delta_qm =   0.339557E-04 delta_en =   0.896566E-03 tol =   0.100000E-03
 Iteration #         26
  pAp =    1.7150777706605029E-007  rzold =    8.0615851857004511E-008  alpha =   0.47004196098908158     
 delta_qm =   0.182997E-04 delta_en =   0.260401E-03 tol =   0.100000E-03
 Iteration #         27
  pAp =    4.6431572112506692E-008  rzold =    2.6422648259390259E-008  alpha =   0.56906641445106532     
 delta_qm =   0.895717E-05 delta_en =   0.623875E-04 tol =   0.100000E-03
 Charges are converged, EXIT

%%%% ELECTRONS %%%%%%%%%%%%%%%%%%%%%%%%%%%%%%%%%%%%%%%%%%%%%%%%%%%%%%%%%%%%%%%%%
 number of electrons        =         89
 total electronic charge    =     89.0000000
 number of spin components  =  1

%%%% BOUNDARY %%%%%%%%%%%%%%%%%%%%%%%%%%%%%%%%%%%%%%%%%%%%%%%%%%%%%%%%%%%%%%%%%%
 boundary mode              = full                 
 boundary is built as a function of a smooth density
 function type              =  2 
 using the modified SCCS function with parameters 
 rhomax                     =      0.0050000 
 rhomin                     =      0.0001000 
 volume of the QM region    =   1475.8607137 
 surface of the QM region   =    278.1837153 

%%%% DIELECTRIC %%%%%%%%%%%%%%%%%%%%%%%%%%%%%%%%%%%%%%%%%%%%%%%%%%%%%%%%%%%%%%%%%
 dielectric build on homogeneous background
 environment bulk permitt.  =    100.0000000 
 dielectric flags
 need gradient              =  F 
 need factor depend. sqrt   =  T 
 need gradient of logarithm =  T 

%%%% COMPUTE ELECTROSTATIC POTENTIAL %%%%%%%%%%%%%%%%%%%%%%%%%%%%%%%%%%%%%%%%%%%
 Warning: bad guess with residual norm =   0.105230E+07, reset to no guess
 Iteration #          1
  pAp =    1270.7699038041103       rzold =    1270.3903394707518       alpha =   0.99970131151814168     
 delta_qm =   0.641828E-01 delta_en =   0.320327E+04 tol =   0.100000E-03
 Iteration #          2
  pAp =    48.942961924064434       rzold =    3.7947313162542549       alpha =    7.7533748818508857E-002
 delta_qm =   0.556715E-01 delta_en =   0.241003E+04 tol =   0.100000E-03
 Iteration #          3
  pAp =    24.978922743930248       rzold =    1.6602572134854998       alpha =    6.6466325650049660E-002
 delta_qm =   0.380683E-01 delta_en =   0.112689E+04 tol =   0.100000E-03
 Iteration #          4
  pAp =   0.39197267411468473       rzold =    9.4681636798334870E-002  alpha =   0.24155162604685190     
 delta_qm =   0.427482E-01 delta_en =   0.142099E+04 tol =   0.100000E-03
 Iteration #          5
  pAp =   0.25823453941376923       rzold =   0.16746202382158121       alpha =   0.64848809226583282     
 delta_qm =   0.154427E-01 delta_en =   0.185439E+03 tol =   0.100000E-03
 Iteration #          6
  pAp =   0.29979142244512291       rzold =   0.15248478876891430       alpha =   0.50863626292318875     
 delta_qm =   0.115394E-01 delta_en =   0.103544E+03 tol =   0.100000E-03
 Iteration #          7
  pAp =   0.10581383431384463       rzold =    5.2286194161606431E-002  alpha =   0.49413382003080225     
 delta_qm =   0.108756E-01 delta_en =   0.919735E+02 tol =   0.100000E-03
 Iteration #          8
  pAp =    3.1669455305643003E-002  rzold =    1.6931485383673207E-002  alpha =   0.53463140493787653     
 delta_qm =   0.104035E-01 delta_en =   0.841620E+02 tol =   0.100000E-03
 Iteration #          9
  pAp =    9.0099784081758786E-003  rzold =    6.6769755688841671E-003  alpha =   0.74106454714978154     
 delta_qm =   0.688091E-02 delta_en =   0.368170E+02 tol =   0.100000E-03
 Iteration #         10
  pAp =    1.4499721395772066E-002  rzold =    7.4906107350442676E-003  alpha =   0.51660376986473922     
 delta_qm =   0.378938E-02 delta_en =   0.111659E+02 tol =   0.100000E-03
 Iteration #         11
  pAp =    9.6437907418683525E-003  rzold =    3.3653501692337555E-003  alpha =   0.34896549078187122     
 delta_qm =   0.248833E-02 delta_en =   0.481473E+01 tol =   0.100000E-03
 Iteration #         12
  pAp =    1.9481294594273916E-003  rzold =    6.8023175271651065E-004  alpha =   0.34917173980647537     
 delta_qm =   0.175641E-02 delta_en =   0.239887E+01 tol =   0.100000E-03
 Iteration #         13
  pAp =    2.1201104899180984E-004  rzold =    1.3505689738530559E-004  alpha =   0.63702763618948444     
 delta_qm =   0.715623E-03 delta_en =   0.398222E+00 tol =   0.100000E-03
 Iteration #         14
  pAp =    8.0618462673484804E-005  rzold =    5.5685982214382276E-005  alpha =   0.69073485610756069     
 delta_qm =   0.628531E-03 delta_en =   0.307192E+00 tol =   0.100000E-03
 Iteration #         15
  pAp =    1.2147658393214895E-004  rzold =    4.9282773184040915E-005  alpha =   0.40569772040649360     
 delta_qm =   0.633907E-03 delta_en =   0.312469E+00 tol =   0.100000E-03
 Iteration #         16
  pAp =    1.9658724453117727E-003  rzold =    1.3277060607376419E-004  alpha =    6.7537752202792470E-002
 delta_qm =   0.791274E-03 delta_en =   0.486867E+00 tol =   0.100000E-03
 Iteration #         17
  pAp =    1.1977949240894399E-004  rzold =    4.9998108559882232E-005  alpha =   0.41741793652941589     
 delta_qm =   0.727737E-03 delta_en =   0.411818E+00 tol =   0.100000E-03
 Iteration #         18
  pAp =    4.8812138076761429E-005  rzold =    4.0221468612969277E-005  alpha =   0.82400546662630181     
 delta_qm =   0.581762E-03 delta_en =   0.263177E+00 tol =   0.100000E-03
 Iteration #         19
  pAp =    2.7687207089832575E-005  rzold =    2.8544759446938435E-005  alpha =    1.0309728732957242     
 delta_qm =   0.637889E-03 delta_en =   0.316407E+00 tol =   0.100000E-03
 Iteration #         20
  pAp =    4.3552236529537980E-005  rzold =    2.5911043125429307E-005  alpha =   0.59494173411406626     
 delta_qm =   0.560546E-03 delta_en =   0.244331E+00 tol =   0.100000E-03
 Iteration #         21
  pAp =    2.8883585380793068E-005  rzold =    1.5127903942074673E-005  alpha =   0.52375436576285950     
 delta_qm =   0.297165E-03 delta_en =   0.686674E-01 tol =   0.100000E-03
 Iteration #         22
  pAp =    5.0125973006878009E-005  rzold =    9.7936771325330018E-006  alpha =   0.19538128728571846     
 delta_qm =   0.219885E-03 delta_en =   0.375966E-01 tol =   0.100000E-03
 Iteration #         23
  pAp =    3.8391780085186455E-005  rzold =    8.6610076847713074E-006  alpha =   0.22559536613185527     
 delta_qm =   0.129060E-03 delta_en =   0.129520E-01 tol =   0.100000E-03
 Iteration #         24
  pAp =    2.1742533547895080E-006  rzold =    1.3930808737541880E-006  alpha =   0.64071690205075194     
 delta_qm =   0.715323E-04 delta_en =   0.397888E-02 tol =   0.100000E-03
 Iteration #         25
  pAp =    4.2266205517697223E-007  rzold =    2.9635869681135864E-007  alpha =   0.70117175928478059     
 delta_qm =   0.357921E-04 delta_en =   0.996166E-03 tol =   0.100000E-03
 Iteration #         26
  pAp =    2.0731793040396533E-007  rzold =    1.0133849197069121E-007  alpha =   0.48880717540074831     
 delta_qm =   0.235826E-04 delta_en =   0.432455E-03 tol =   0.100000E-03
 Iteration #         27
  pAp =    9.2266967159340477E-008  rzold =    4.6479640724293090E-008  alpha =   0.50375169093858974     
 delta_qm =   0.131943E-04 delta_en =   0.135372E-03 tol =   0.100000E-03
 Iteration #         28
  pAp =    1.2824306679514614E-007  rzold =    2.0193822624925385E-008  alpha =   0.15746521920894752     
 delta_qm =   0.126977E-04 delta_en =   0.125374E-03 tol =   0.100000E-03
 Iteration #         29
  pAp =    3.4268702509381876E-007  rzold =    4.4633937502153296E-008  alpha =   0.13024694322737690     
 delta_qm =   0.864044E-05 delta_en =   0.580535E-04 tol =   0.100000E-03
 Charges are converged, EXIT

%%%% ELECTRONS %%%%%%%%%%%%%%%%%%%%%%%%%%%%%%%%%%%%%%%%%%%%%%%%%%%%%%%%%%%%%%%%%
 number of electrons        =         89
 total electronic charge    =     89.0000000
 number of spin components  =  1

%%%% BOUNDARY %%%%%%%%%%%%%%%%%%%%%%%%%%%%%%%%%%%%%%%%%%%%%%%%%%%%%%%%%%%%%%%%%%
 boundary mode              = full                 
 boundary is built as a function of a smooth density
 function type              =  2 
 using the modified SCCS function with parameters 
 rhomax                     =      0.0050000 
 rhomin                     =      0.0001000 
 volume of the QM region    =   1467.8233467 
 surface of the QM region   =    268.1923816 

%%%% DIELECTRIC %%%%%%%%%%%%%%%%%%%%%%%%%%%%%%%%%%%%%%%%%%%%%%%%%%%%%%%%%%%%%%%%%
 dielectric build on homogeneous background
 environment bulk permitt.  =    100.0000000 
 dielectric flags
 need gradient              =  F 
 need factor depend. sqrt   =  T 
 need gradient of logarithm =  T 

%%%% COMPUTE ELECTROSTATIC POTENTIAL %%%%%%%%%%%%%%%%%%%%%%%%%%%%%%%%%%%%%%%%%%%
 Warning: bad guess with residual norm =   0.696092E+06, reset to no guess
 Iteration #          1
  pAp =    1269.9786784601959       rzold =    1269.5023190428435       alpha =   0.99962490754732203     
 delta_qm =   0.508275E-01 delta_en =   0.200888E+04 tol =   0.100000E-03
 Iteration #          2
  pAp =    134.60196832483066       rzold =    6.8457089375480811       alpha =    5.0858906617379837E-002
 delta_qm =   0.458729E-01 delta_en =   0.163632E+04 tol =   0.100000E-03
 Iteration #          3
  pAp =    13.617942788925886       rzold =    1.4412062980473312       alpha =   0.10583142552334120     
 delta_qm =   0.310799E-01 delta_en =   0.751132E+03 tol =   0.100000E-03
 Iteration #          4
  pAp =    9.8426728244269790E-002  rzold =    6.7462812301178510E-002  alpha =   0.68541150868850564     
 delta_qm =   0.305490E-01 delta_en =   0.725690E+03 tol =   0.100000E-03
 Iteration #          5
  pAp =    1.3257192785398029       rzold =   0.30903501020843710       alpha =   0.23310742719893152     
 delta_qm =   0.120601E-01 delta_en =   0.113100E+03 tol =   0.100000E-03
 Iteration #          6
  pAp =   0.30917392930049004       rzold =   0.14245190460287896       alpha =   0.46075005394270535     
 delta_qm =   0.730636E-02 delta_en =   0.415105E+02 tol =   0.100000E-03
 Iteration #          7
  pAp =    8.3473066916210259E-002  rzold =    3.7869379761741810E-002  alpha =   0.45367183884299900     
 delta_qm =   0.658209E-02 delta_en =   0.336886E+02 tol =   0.100000E-03
 Iteration #          8
  pAp =    1.9922221734556208E-002  rzold =    1.0871734062157724E-002  alpha =   0.54570891776091890     
 delta_qm =   0.555715E-02 delta_en =   0.240138E+02 tol =   0.100000E-03
 Iteration #          9
  pAp =    5.6151265933796022E-003  rzold =    3.7554584301955759E-003  alpha =   0.66881099967067004     
 delta_qm =   0.417034E-02 delta_en =   0.135238E+02 tol =   0.100000E-03
 Iteration #         10
  pAp =    7.0517695850244189E-003  rzold =    3.7399526994756774E-003  alpha =   0.53035662245942861     
 delta_qm =   0.217925E-02 delta_en =   0.369292E+01 tol =   0.100000E-03
 Iteration #         11
  pAp =    5.4722335866311160E-003  rzold =    2.0874726441010519E-003  alpha =   0.38146628996262705     
 delta_qm =   0.126079E-02 delta_en =   0.123607E+01 tol =   0.100000E-03
 Iteration #         12
  pAp =    1.1840743393596064E-003  rzold =    4.0130512142627959E-004  alpha =   0.33891885676985539     
 delta_qm =   0.940746E-03 delta_en =   0.688178E+00 tol =   0.100000E-03
 Iteration #         13
  pAp =    1.0999270371335828E-004  rzold =    6.0923569542546093E-005  alpha =   0.55388737148705169     
 delta_qm =   0.502221E-03 delta_en =   0.196131E+00 tol =   0.100000E-03
 Iteration #         14
  pAp =    1.9411802871144933E-004  rzold =    2.9981959456135905E-005  alpha =   0.15445221474355272     
 delta_qm =   0.504101E-03 delta_en =   0.197602E+00 tol =   0.100000E-03
 Iteration #         15
  pAp =    3.5985300365978177E-004  rzold =    7.2060088001327780E-005  alpha =   0.20024867728895221     
 delta_qm =   0.323061E-03 delta_en =   0.811570E-01 tol =   0.100000E-03
 Iteration #         16
  pAp =    2.6037928270150842E-005  rzold =    1.9574117156768210E-005  alpha =   0.75175401643637807     
 delta_qm =   0.429361E-03 delta_en =   0.143351E+00 tol =   0.100000E-03
 Iteration #         17
  pAp =    9.9688050045402682E-006  rzold =    1.2544574119725057E-005  alpha =    1.2583829369730535     
 delta_qm =   0.331878E-03 delta_en =   0.856470E-01 tol =   0.100000E-03
 Iteration #         18
  pAp =    2.2770452925597883E-005  rzold =    1.4689429328808234E-005  alpha =   0.64510922891194677     
 delta_qm =   0.258860E-03 delta_en =   0.521059E-01 tol =   0.100000E-03
 Iteration #         19
  pAp =    2.6527136406013175E-005  rzold =    1.2572923932494430E-005  alpha =   0.47396461269164347     
 delta_qm =   0.250121E-03 delta_en =   0.486472E-01 tol =   0.100000E-03
 Iteration #         20
  pAp =    1.8337473365689929E-005  rzold =    8.3730044103646306E-006  alpha =   0.45660622068200640     
 delta_qm =   0.204492E-03 delta_en =   0.325168E-01 tol =   0.100000E-03
 Iteration #         21
  pAp =    9.1260950364065876E-006  rzold =    3.9239630500147693E-006  alpha =   0.42997174962138407     
 delta_qm =   0.119342E-03 delta_en =   0.110749E-01 tol =   0.100000E-03
 Iteration #         22
  pAp =    9.2471308378523556E-006  rzold =    1.9818798026199767E-006  alpha =   0.21432375483510169     
 delta_qm =   0.916631E-04 delta_en =   0.653349E-02 tol =   0.100000E-03
 Iteration #         23
  pAp =    9.5179982806284975E-006  rzold =    1.7973115774253578E-006  alpha =   0.18883293781249524     
 delta_qm =   0.539753E-04 delta_en =   0.226541E-02 tol =   0.100000E-03
 Iteration #         24
  pAp =    4.2255902679770350E-007  rzold =    2.8401857235522596E-007  alpha =   0.67213940383102355     
 delta_qm =   0.282999E-04 delta_en =   0.622767E-03 tol =   0.100000E-03
 Iteration #         25
  pAp =    2.5139610337716290E-007  rzold =    1.1736425722902844E-007  alpha =   0.46684994577242894     
 delta_qm =   0.231394E-04 delta_en =   0.416350E-03 tol =   0.100000E-03
 Iteration #         26
  pAp =    1.5027556666078123E-007  rzold =    5.0127336900179352E-008  alpha =   0.33356944188626730     
 delta_qm =   0.168716E-04 delta_en =   0.221343E-03 tol =   0.100000E-03
 Iteration #         27
  pAp =    2.4043528825530034E-006  rzold =    1.7715672105494443E-007  alpha =    7.3681663927316232E-002
 delta_qm =   0.124310E-04 delta_en =   0.120162E-03 tol =   0.100000E-03
 Iteration #         28
  pAp =    1.9935927330760874E-008  rzold =    1.3934599103140515E-008  alpha =   0.69896919626305076     
 delta_qm =   0.609130E-05 delta_en =   0.288520E-04 tol =   0.100000E-03
 Charges are converged, EXIT

%%%% ELECTRONS %%%%%%%%%%%%%%%%%%%%%%%%%%%%%%%%%%%%%%%%%%%%%%%%%%%%%%%%%%%%%%%%%
 number of electrons        =         89
 total electronic charge    =     89.0000000
 number of spin components  =  1

%%%% BOUNDARY %%%%%%%%%%%%%%%%%%%%%%%%%%%%%%%%%%%%%%%%%%%%%%%%%%%%%%%%%%%%%%%%%%
 boundary mode              = full                 
 boundary is built as a function of a smooth density
 function type              =  2 
 using the modified SCCS function with parameters 
 rhomax                     =      0.0050000 
 rhomin                     =      0.0001000 
 volume of the QM region    =   1470.9171655 
 surface of the QM region   =    268.3909465 

%%%% DIELECTRIC %%%%%%%%%%%%%%%%%%%%%%%%%%%%%%%%%%%%%%%%%%%%%%%%%%%%%%%%%%%%%%%%%
 dielectric build on homogeneous background
 environment bulk permitt.  =    100.0000000 
 dielectric flags
 need gradient              =  F 
 need factor depend. sqrt   =  T 
 need gradient of logarithm =  T 

%%%% COMPUTE ELECTROSTATIC POTENTIAL %%%%%%%%%%%%%%%%%%%%%%%%%%%%%%%%%%%%%%%%%%%
 Warning: bad guess with residual norm =   0.692257E+06, reset to no guess
 Iteration #          1
  pAp =    1270.5321709773309       rzold =    1269.9157794450643       alpha =   0.99951485562794340     
 delta_qm =   0.532031E-01 delta_en =   0.220105E+04 tol =   0.100000E-03
 Iteration #          2
  pAp =    230.52490566458405       rzold =    10.516441020489122       alpha =    4.5619543754593893E-002
 delta_qm =   0.452797E-01 delta_en =   0.159427E+04 tol =   0.100000E-03
 Iteration #          3
  pAp =    10.831299645560049       rzold =    1.3086308466687997       alpha =   0.12081937435875774     
 delta_qm =   0.315688E-01 delta_en =   0.774949E+03 tol =   0.100000E-03
 Iteration #          4
  pAp =    6.3003723393612168E-002  rzold =    6.5048596841945958E-002  alpha =    1.0324563904828061     
 delta_qm =   0.260794E-01 delta_en =   0.528874E+03 tol =   0.100000E-03
 Iteration #          5
  pAp =    1.6763781700554263       rzold =   0.29713059359855992       alpha =   0.17724556362406929     
 delta_qm =   0.110196E-01 delta_en =   0.944249E+02 tol =   0.100000E-03
 Iteration #          6
  pAp =   0.38064651991478932       rzold =   0.15184783220634918       alpha =   0.39892084719529680     
 delta_qm =   0.719651E-02 delta_en =   0.402718E+02 tol =   0.100000E-03
 Iteration #          7
  pAp =    7.6983199091100574E-002  rzold =    3.4693854919182927E-002  alpha =   0.45066787726146357     
 delta_qm =   0.636875E-02 delta_en =   0.315402E+02 tol =   0.100000E-03
 Iteration #          8
  pAp =    1.8071027027323244E-002  rzold =    9.9249347097383443E-003  alpha =   0.54921807679950474     
 delta_qm =   0.547048E-02 delta_en =   0.232706E+02 tol =   0.100000E-03
 Iteration #          9
  pAp =    5.0650086319885199E-003  rzold =    3.4832029129352980E-003  alpha =   0.68769930438752169     
 delta_qm =   0.407488E-02 delta_en =   0.129118E+02 tol =   0.100000E-03
 Iteration #         10
  pAp =    6.0244208329201850E-003  rzold =    3.3458511029273792E-003  alpha =   0.55538137120901676     
 delta_qm =   0.210200E-02 delta_en =   0.343577E+01 tol =   0.100000E-03
 Iteration #         11
  pAp =    5.2052115611685001E-003  rzold =    1.9534812180874417E-003  alpha =   0.37529333728923620     
 delta_qm =   0.134412E-02 delta_en =   0.140487E+01 tol =   0.100000E-03
 Iteration #         12
  pAp =    1.1740129373555832E-003  rzold =    4.1766349017842316E-004  alpha =   0.35575714448189416     
 delta_qm =   0.111936E-02 delta_en =   0.974315E+00 tol =   0.100000E-03
 Iteration #         13
  pAp =    1.2013627814932299E-004  rzold =    8.9946455681529561E-005  alpha =   0.74870353124916111     
 delta_qm =   0.671023E-03 delta_en =   0.350131E+00 tol =   0.100000E-03
 Iteration #         14
  pAp =    2.8237415102757695E-004  rzold =    8.3149704159168040E-005  alpha =   0.29446641576993199     
 delta_qm =   0.814302E-03 delta_en =   0.515617E+00 tol =   0.100000E-03
 Iteration #         15
  pAp =    2.6206372793050460E-003  rzold =    3.9728723194322441E-004  alpha =   0.15159947356338421     
 delta_qm =   0.822765E-03 delta_en =   0.526390E+00 tol =   0.100000E-03
 Iteration #         16
  pAp =    1.8679364843644303E-004  rzold =    1.1221968100583323E-004  alpha =   0.60076818427804435     
 delta_qm =   0.100655E-02 delta_en =   0.787825E+00 tol =   0.100000E-03
 Iteration #         17
  pAp =    2.1236149580164206E-004  rzold =    9.2065688119906183E-005  alpha =   0.43353286702171689     
 delta_qm =   0.838306E-03 delta_en =   0.546464E+00 tol =   0.100000E-03
 Iteration #         18
  pAp =    1.0852820305579398E-004  rzold =    6.6892684783417670E-005  alpha =   0.61636222566984145     
 delta_qm =   0.402388E-03 delta_en =   0.125906E+00 tol =   0.100000E-03
 Iteration #         19
  pAp =    3.0997971199975362E-005  rzold =    2.1169387829837500E-005  alpha =   0.68292817272681139     
 delta_qm =   0.290625E-03 delta_en =   0.656785E-01 tol =   0.100000E-03
 Iteration #         20
  pAp =    1.4302225595083272E-005  rzold =    8.7281177989755692E-006  alpha =   0.61026290915003234     
 delta_qm =   0.203455E-03 delta_en =   0.321880E-01 tol =   0.100000E-03
 Iteration #         21
  pAp =    6.6968937092599139E-006  rzold =    3.3563277315080557E-006  alpha =   0.50117679587286890     
 delta_qm =   0.105327E-03 delta_en =   0.862659E-02 tol =   0.100000E-03
 Iteration #         22
  pAp =    3.2035525560897901E-006  rzold =    1.2910613982529731E-006  alpha =   0.40300927662283276     
 delta_qm =   0.556459E-04 delta_en =   0.240782E-02 tol =   0.100000E-03
 Iteration #         23
  pAp =    2.5430838620026334E-006  rzold =    4.7114294257990390E-007  alpha =   0.18526441444557287     
 delta_qm =   0.446885E-04 delta_en =   0.155292E-02 tol =   0.100000E-03
 Iteration #         24
  pAp =    1.2547889333212614E-006  rzold =    4.5690072638483635E-007  alpha =   0.36412556267569252     
 delta_qm =   0.294421E-04 delta_en =   0.674054E-03 tol =   0.100000E-03
 Iteration #         25
  pAp =    1.8739119319566458E-007  rzold =    1.0284507756929412E-007  alpha =   0.54882556546778793     
 delta_qm =   0.231222E-04 delta_en =   0.415735E-03 tol =   0.100000E-03
 Iteration #         26
  pAp =    1.5405719976659456E-007  rzold =    5.4583311907929769E-008  alpha =   0.35430549166560599     
 delta_qm =   0.161525E-04 delta_en =   0.202879E-03 tol =   0.100000E-03
 Iteration #         27
  pAp =    2.4133776770381739E-006  rzold =    1.4967180436183542E-007  alpha =    6.2017563925394661E-002
 delta_qm =   0.126318E-04 delta_en =   0.124075E-03 tol =   0.100000E-03
 Iteration #         28
  pAp =    2.1870503679574565E-008  rzold =    1.4634213485263545E-008  alpha =   0.66913015354698113     
 delta_qm =   0.529791E-05 delta_en =   0.218256E-04 tol =   0.100000E-03
 Charges are converged, EXIT

%%%% ELECTRONS %%%%%%%%%%%%%%%%%%%%%%%%%%%%%%%%%%%%%%%%%%%%%%%%%%%%%%%%%%%%%%%%%
 number of electrons        =         89
 total electronic charge    =     89.0000000
 number of spin components  =  1

%%%% BOUNDARY %%%%%%%%%%%%%%%%%%%%%%%%%%%%%%%%%%%%%%%%%%%%%%%%%%%%%%%%%%%%%%%%%%
 boundary mode              = full                 
 boundary is built as a function of a smooth density
 function type              =  2 
 using the modified SCCS function with parameters 
 rhomax                     =      0.0050000 
 rhomin                     =      0.0001000 
 volume of the QM region    =   1475.7119933 
 surface of the QM region   =    267.3024652 

%%%% DIELECTRIC %%%%%%%%%%%%%%%%%%%%%%%%%%%%%%%%%%%%%%%%%%%%%%%%%%%%%%%%%%%%%%%%%
 dielectric build on homogeneous background
 environment bulk permitt.  =    100.0000000 
 dielectric flags
 need gradient              =  F 
 need factor depend. sqrt   =  T 
 need gradient of logarithm =  T 

%%%% COMPUTE ELECTROSTATIC POTENTIAL %%%%%%%%%%%%%%%%%%%%%%%%%%%%%%%%%%%%%%%%%%%
 Warning: bad guess with residual norm =   0.618418E+06, reset to no guess
 Iteration #          1
  pAp =    1271.1401779506070       rzold =    1270.3518138751656       alpha =   0.99937979768941576     
 delta_qm =   0.551100E-01 delta_en =   0.236166E+04 tol =   0.100000E-03
 Iteration #          2
  pAp =    340.83680856210390       rzold =    14.909291533433803       alpha =    4.3743196623428016E-002
 delta_qm =   0.436774E-01 delta_en =   0.148344E+04 tol =   0.100000E-03
 Iteration #          3
  pAp =    8.8731192631967009       rzold =    1.1720595867384964       alpha =   0.13209104396915780     
 delta_qm =   0.315987E-01 delta_en =   0.776417E+03 tol =   0.100000E-03
 Iteration #          4
  pAp =    4.6632957053643724E-002  rzold =    6.5291829921943295E-002  alpha =    1.4001220177145433     
 delta_qm =   0.179093E-01 delta_en =   0.249409E+03 tol =   0.100000E-03
 Iteration #          5
  pAp =   0.42448894776204321       rzold =   0.15514484330591252       alpha =   0.36548617843610487     
 delta_qm =   0.815341E-02 delta_en =   0.516933E+02 tol =   0.100000E-03
 Iteration #          6
  pAp =    1.4148137832350611       rzold =   0.21623346523048811       alpha =   0.15283528319610842     
 delta_qm =   0.679709E-02 delta_en =   0.359255E+02 tol =   0.100000E-03
 Iteration #          7
  pAp =    8.0485033653314178E-002  rzold =    3.4024494646329825E-002  alpha =   0.42274312504966916     
 delta_qm =   0.614291E-02 delta_en =   0.293430E+02 tol =   0.100000E-03
 Iteration #          8
  pAp =    1.6109873203298396E-002  rzold =    9.1036944191440709E-003  alpha =   0.56510031483551004     
 delta_qm =   0.520225E-02 delta_en =   0.210445E+02 tol =   0.100000E-03
 Iteration #          9
  pAp =    5.0166281686139643E-003  rzold =    3.4380271016530017E-003  alpha =   0.68532627615550157     
 delta_qm =   0.381160E-02 delta_en =   0.112972E+02 tol =   0.100000E-03
 Iteration #         10
  pAp =    5.6525709013725313E-003  rzold =    3.2064945748747306E-003  alpha =   0.56726304381182446     
 delta_qm =   0.198999E-02 delta_en =   0.307934E+01 tol =   0.100000E-03
 Iteration #         11
  pAp =    4.9712156777863455E-003  rzold =    1.9055882855082708E-003  alpha =   0.38332440373152721     
 delta_qm =   0.139633E-02 delta_en =   0.151611E+01 tol =   0.100000E-03
 Iteration #         12
  pAp =    1.1768935421747947E-003  rzold =    4.5016568622454744E-004  alpha =   0.38250331919799752     
 delta_qm =   0.125419E-02 delta_en =   0.122317E+01 tol =   0.100000E-03
 Iteration #         13
  pAp =    1.2966146259242817E-004  rzold =    1.2853024894358449E-004  alpha =   0.99127563713823375     
 delta_qm =   0.847529E-03 delta_en =   0.558554E+00 tol =   0.100000E-03
 Iteration #         14
  pAp =    4.5557066714211497E-004  rzold =    1.7293091537009779E-004  alpha =   0.37959185663758310     
 delta_qm =   0.109993E-02 delta_en =   0.940769E+00 tol =   0.100000E-03
 Iteration #         15
  pAp =    7.6553131299516922E-003  rzold =    1.0084324183695106E-003  alpha =   0.13172974132488219     
 delta_qm =   0.120070E-02 delta_en =   0.112105E+01 tol =   0.100000E-03
 Iteration #         16
  pAp =    4.4571691037173180E-004  rzold =    2.2900553578530965E-004  alpha =   0.51379144577287195     
 delta_qm =   0.121674E-02 delta_en =   0.115120E+01 tol =   0.100000E-03
 Iteration #         17
  pAp =    3.5972095115671915E-004  rzold =    1.4239898613179020E-004  alpha =   0.39585958414124017     
 delta_qm =   0.886720E-03 delta_en =   0.611405E+00 tol =   0.100000E-03
 Iteration #         18
  pAp =    1.3595769666275393E-004  rzold =    7.6627695707081147E-005  alpha =   0.56361425346266225     
 delta_qm =   0.384163E-03 delta_en =   0.114759E+00 tol =   0.100000E-03
 Iteration #         19
  pAp =    3.0149808798131928E-005  rzold =    1.9840986891313218E-005  alpha =   0.65808002379579134     
 delta_qm =   0.265902E-03 delta_en =   0.549792E-01 tol =   0.100000E-03
 Iteration #         20
  pAp =    1.0754351755622709E-005  rzold =    6.8880994477186350E-006  alpha =   0.64049415569072521     
 delta_qm =   0.172633E-03 delta_en =   0.231741E-01 tol =   0.100000E-03
 Iteration #         21
  pAp =    3.9483915143787555E-006  rzold =    2.2823036388307026E-006  alpha =   0.57803377160529712     
 delta_qm =   0.777886E-04 delta_en =   0.470531E-02 tol =   0.100000E-03
 Iteration #         22
  pAp =    1.8766190590973772E-006  rzold =    7.6879126201575208E-007  alpha =   0.40966825861052908     
 delta_qm =   0.435973E-04 delta_en =   0.147800E-02 tol =   0.100000E-03
 Iteration #         23
  pAp =    3.8350441667108254E-007  rzold =    2.4495580477166350E-007  alpha =   0.63873007486574263     
 delta_qm =   0.307872E-04 delta_en =   0.737049E-03 tol =   0.100000E-03
 Iteration #         24
  pAp =    2.0709881051987729E-006  rzold =    2.6461382339314688E-007  alpha =   0.12777177364220030     
 delta_qm =   0.261336E-04 delta_en =   0.531075E-03 tol =   0.100000E-03
 Iteration #         25
  pAp =    1.6484508023312969E-007  rzold =    8.9457904395323553E-008  alpha =   0.54267864269172639     
 delta_qm =   0.184052E-04 delta_en =   0.263412E-03 tol =   0.100000E-03
 Iteration #         26
  pAp =    8.7079263169207136E-008  rzold =    3.4642092542925868E-008  alpha =   0.39782252722570077     
 delta_qm =   0.116555E-04 delta_en =   0.105638E-03 tol =   0.100000E-03
 Iteration #         27
  pAp =    9.0634060518707159E-007  rzold =    5.1617422555198208E-008  alpha =    5.6951462021878861E-002
 delta_qm =   0.982119E-05 delta_en =   0.750040E-04 tol =   0.100000E-03
 Charges are converged, EXIT

%%%% ELECTRONS %%%%%%%%%%%%%%%%%%%%%%%%%%%%%%%%%%%%%%%%%%%%%%%%%%%%%%%%%%%%%%%%%
 number of electrons        =         89
 total electronic charge    =     89.0000000
 number of spin components  =  1

%%%% BOUNDARY %%%%%%%%%%%%%%%%%%%%%%%%%%%%%%%%%%%%%%%%%%%%%%%%%%%%%%%%%%%%%%%%%%
 boundary mode              = full                 
 boundary is built as a function of a smooth density
 function type              =  2 
 using the modified SCCS function with parameters 
 rhomax                     =      0.0050000 
 rhomin                     =      0.0001000 
 volume of the QM region    =   1475.7119933 
 surface of the QM region   =    267.3024652 

%%%% DIELECTRIC %%%%%%%%%%%%%%%%%%%%%%%%%%%%%%%%%%%%%%%%%%%%%%%%%%%%%%%%%%%%%%%%%
 dielectric build on homogeneous background
 environment bulk permitt.  =    100.0000000 
 dielectric flags
 need gradient              =  F 
 need factor depend. sqrt   =  T 
 need gradient of logarithm =  T 
