
     Program PWSCF v.6.4.1 starts on 24Apr2019 at 16:34:35 

     This program is part of the open-source Quantum ESPRESSO suite
     for quantum simulation of materials; please cite
         "P. Giannozzi et al., J. Phys.:Condens. Matter 21 395502 (2009);
         "P. Giannozzi et al., J. Phys.:Condens. Matter 29 465901 (2017);
          URL http://www.quantum-espresso.org", 
     in publications or presentations arising from this work. More details at
     http://www.quantum-espresso.org/quote

     Parallel version (MPI), running on     1 processors

     MPI processes distributed on     1 nodes
     Reading input from slab.in

     Current dimensions of program PWSCF are:
     Max number of different atomic species (ntypx) = 10
     Max number of k-points (npk) =  40000
     Max angular momentum in pseudopotentials (lmaxx) =  3
               file C.pbe-rrkjus.UPF: wavefunction(s)  2S 2P renormalized
               file O.pbe-rrkjus.UPF: wavefunction(s)  2S renormalized

     gamma-point specific algorithms are used

     Subspace diagonalization in iterative solution of the eigenvalue problem:
     a serial algorithm will be used

 
     G-vector sticks info
     --------------------
     sticks:   dense  smooth     PW     G-vecs:    dense   smooth      PW
     Sum        2357    1099    269               366833   116965   14571
 


     bravais-lattice index     =            8
     lattice parameter (alat)  =      10.6881  a.u.
     unit-cell volume          =    4181.1215 (a.u.)^3
     number of atoms/cell      =           10
     number of atomic types    =            3
     number of electrons       =        89.00
     number of Kohn-Sham states=           80
     kinetic-energy cutoff     =      35.0000  Ry
     charge density cutoff     =     300.0000  Ry
     convergence threshold     =      5.0E-06
     mixing beta               =       0.7000
     number of iterations used =            8  plain     mixing
     Exchange-correlation      = PBE ( 1  4  3  4 0 0)
 

     Environ Module
     ==============

     Plese cite
         O. Andreussi, I. Dabo and N. Marzari, J. Chem. Phys. 136, 064102 (2012)         
     in publications or presentations arising from this work.

     compensation onset threshold      =               0.1000E+03 
     static permittivity               =                   100.00 
     epsilon calculation mode          =                     full 

     Electrostatic Setup
     -------------------
     electrostatic problem to solve    = generalized              
     numerical solver adopted          = cg                       
     type of auxiliary density adopted = none                     
     type of core tool for poisson     = fft                      
     type of core tool for s(r) deriv  = analytic                 



     celldm(1)=  10.688100  celldm(2)=   0.866025  celldm(3)=   3.954220
     celldm(4)=   0.000000  celldm(5)=   0.000000  celldm(6)=   0.000000

     crystal axes: (cart. coord. in units of alat)
               a(1) = (   1.000000   0.000000   0.000000 )  
               a(2) = (   0.000000   0.866025   0.000000 )  
               a(3) = (   0.000000   0.000000   3.954220 )  

     reciprocal axes: (cart. coord. in units 2 pi/alat)
               b(1) = (  1.000000  0.000000  0.000000 )  
               b(2) = (  0.000000  1.154701  0.000000 )  
               b(3) = (  0.000000  0.000000  0.252894 )  


     PseudoPot. # 1 for C  read from file:
     /home/fnattino/Programs/quantumespresso/q-e-qe-6.4.1-develop/Environ/tests/../..//pseudo/C.pbe-rrkjus.UPF
     MD5 check sum: c9ac5a99bc85b198593446162950cd17
     Pseudo is Ultrasoft, Zval =  4.0
     Generated by new atomic code, or converted to UPF format
     Using radial grid of  627 points,  4 beta functions with: 
                l(1) =   0
                l(2) =   0
                l(3) =   1
                l(4) =   1
     Q(r) pseudized with 0 coefficients 


     PseudoPot. # 2 for O  read from file:
     /home/fnattino/Programs/quantumespresso/q-e-qe-6.4.1-develop/Environ/tests/../..//pseudo/O.pbe-rrkjus.UPF
     MD5 check sum: fadcf19ee70a498d3030e2e79cf929a4
     Pseudo is Ultrasoft, Zval =  6.0
     Generated by new atomic code, or converted to UPF format
     Using radial grid of 1269 points,  4 beta functions with: 
                l(1) =   0
                l(2) =   0
                l(3) =   1
                l(4) =   1
     Q(r) pseudized with 0 coefficients 


     PseudoPot. # 3 for Pt read from file:
     /home/fnattino/Programs/quantumespresso/q-e-qe-6.4.1-develop/Environ/tests/../..//pseudo/Pt.pbe-n-rrkjus_psl.0.1.UPF
     MD5 check sum: 957548fe13c2a9232dd96292d902c87c
     Pseudo is Ultrasoft + core correction, Zval = 10.0
     Generated using "atomic" code by A. Dal Corso v.5.0.2 svn rev. 9415
     Using radial grid of 1277 points,  6 beta functions with: 
                l(1) =   0
                l(2) =   0
                l(3) =   1
                l(4) =   1
                l(5) =   2
                l(6) =   2
     Q(r) pseudized with 0 coefficients 


     atomic species   valence    mass     pseudopotential
        C              4.00     1.00000     C ( 1.00)
        O              6.00     1.00000     O ( 1.00)
        Pt            10.00     1.00000     Pt( 1.00)

     No symmetry found



   Cartesian axes

     site n.     atom                  positions (alat units)
         1           C   tau(   1) = (   0.4991611   0.4347567   0.7762281  )
         2           O   tau(   2) = (   0.4991542   0.4322212   0.9800832  )
         3           Pt  tau(   3) = (   0.7542339   0.0091745   0.4105048  )
         4           Pt  tau(   4) = (   0.2441023   0.0091745   0.4105046  )
         5           Pt  tau(   5) = (   0.0000034   0.4416918   0.4083168  )
         6           Pt  tau(   6) = (   0.4991682   0.4417635   0.4468119  )
         7           Pt  tau(   7) = (   0.0000038   0.7300598   0.0000000  )
         8           Pt  tau(   8) = (   0.4991683   0.7202168   0.0139279  )
         9           Pt  tau(   9) = (   0.2524172   0.2949237   0.0078392  )
        10           Pt  tau(  10) = (   0.7459196   0.2949237   0.0078394  )

     number of k points=     1  Marzari-Vanderbilt smearing, width (Ry)=  0.0300
                       cart. coord. in units 2pi/alat
        k(    1) = (   0.0000000   0.0000000   0.0000000), wk =   2.0000000

     Dense  grid:   183417 G-vectors     FFT dimensions: (  60,  54, 240)

     Smooth grid:    58483 G-vectors     FFT dimensions: (  45,  36, 160)

     Estimated max dynamical RAM per process >     774.12 MB

     Initial potential from superposition of free atoms

     starting charge   89.99859, renormalised to   89.00000

     negative rho (up, down):  3.049E-03 0.000E+00
     Starting wfcs are   80 randomized atomic wfcs

     total cpu time spent up to now is        6.9 secs

     Self-consistent Calculation

     iteration #  1     ecut=    35.00 Ry     beta= 0.70
     Davidson diagonalization with overlap
     ethr =  1.00E-02,  avg # of iterations =  5.0

     negative rho (up, down):  2.886E-03 0.000E+00

     add environment contribution to local potential
     polarization accuracy = 3.6E-06, # of iterations =  25

     total cpu time spent up to now is       11.2 secs

     total energy              =    -622.68849484 Ry
     Harris-Foulkes estimate   =    -624.21151040 Ry
     estimated scf accuracy    <       1.86637819 Ry
     electrostatic embedding   =       0.03381190 Ry
     correction to one-el term =       0.00000000 Ry

     iteration #  2     ecut=    35.00 Ry     beta= 0.70
     Davidson diagonalization with overlap
     ethr =  2.10E-03,  avg # of iterations =  8.0

     negative rho (up, down):  2.058E-02 0.000E+00

     add environment contribution to local potential
     polarization accuracy = 5.4E-06, # of iterations =  50

     total cpu time spent up to now is       16.8 secs

     total energy              =    -618.07188064 Ry
     Harris-Foulkes estimate   =    -607.34369806 Ry
     estimated scf accuracy    <      45.74914670 Ry
     electrostatic embedding   =       0.01313304 Ry
     correction to one-el term =     -19.48161439 Ry

     iteration #  3     ecut=    35.00 Ry     beta= 0.70
     Davidson diagonalization with overlap
     ethr =  2.10E-03,  avg # of iterations =  5.0

     negative rho (up, down):  7.638E-03 0.000E+00

     add environment contribution to local potential
     polarization accuracy = 4.9E-06, # of iterations =  29

     total cpu time spent up to now is       21.1 secs

     total energy              =    -623.81075890 Ry
     Harris-Foulkes estimate   =    -601.96536130 Ry
     estimated scf accuracy    <       0.59990518 Ry
     electrostatic embedding   =       0.26892188 Ry
     correction to one-el term =     -22.38154194 Ry

     iteration #  4     ecut=    35.00 Ry     beta= 0.70
     Davidson diagonalization with overlap
     ethr =  6.74E-04,  avg # of iterations =  5.0

     negative rho (up, down):  8.686E-03 0.000E+00

     add environment contribution to local potential
     polarization accuracy = 7.1E-06, # of iterations =  30

     total cpu time spent up to now is       25.4 secs

     total energy              =    -623.59558407 Ry
     Harris-Foulkes estimate   =    -602.08561189 Ry
     estimated scf accuracy    <       1.01434329 Ry
     electrostatic embedding   =       0.22789792 Ry
     correction to one-el term =     -21.93670467 Ry

     iteration #  5     ecut=    35.00 Ry     beta= 0.70
     Davidson diagonalization with overlap
     ethr =  6.74E-04,  avg # of iterations =  1.0

     negative rho (up, down):  4.842E-03 0.000E+00

     add environment contribution to local potential
     polarization accuracy = 3.5E-06, # of iterations =  30

     total cpu time spent up to now is       29.3 secs

     total energy              =    -623.67336402 Ry
     Harris-Foulkes estimate   =    -601.82485989 Ry
     estimated scf accuracy    <       0.08559554 Ry
     electrostatic embedding   =       0.21891661 Ry
     correction to one-el term =     -22.09648561 Ry

     iteration #  6     ecut=    35.00 Ry     beta= 0.70
     Davidson diagonalization with overlap
     ethr =  9.62E-05,  avg # of iterations =  6.0

     negative rho (up, down):  4.831E-03 0.000E+00

     add environment contribution to local potential
     polarization accuracy = 3.5E-06, # of iterations =  30

     total cpu time spent up to now is       33.4 secs

     total energy              =    -623.67454424 Ry
     Harris-Foulkes estimate   =    -601.39647584 Ry
     estimated scf accuracy    <       0.24595802 Ry
     electrostatic embedding   =       0.21080723 Ry
     correction to one-el term =     -22.52193241 Ry

     iteration #  7     ecut=    35.00 Ry     beta= 0.70
     Davidson diagonalization with overlap
     ethr =  9.62E-05,  avg # of iterations =  4.0

     negative rho (up, down):  4.087E-03 0.000E+00

     add environment contribution to local potential
     polarization accuracy = 7.1E-06, # of iterations =  29

     total cpu time spent up to now is       37.4 secs

     total energy              =    -623.68690776 Ry
     Harris-Foulkes estimate   =    -601.17557288 Ry
     estimated scf accuracy    <       0.05133556 Ry
     electrostatic embedding   =       0.21142314 Ry
     correction to one-el term =     -22.73236799 Ry

     iteration #  8     ecut=    35.00 Ry     beta= 0.70
     Davidson diagonalization with overlap
     ethr =  5.77E-05,  avg # of iterations =  1.0

     negative rho (up, down):  4.006E-03 0.000E+00

     add environment contribution to local potential
     polarization accuracy = 7.4E-06, # of iterations =  29

     total cpu time spent up to now is       41.3 secs

     total energy              =    -623.69179795 Ry
     Harris-Foulkes estimate   =    -600.95388748 Ry
     estimated scf accuracy    <       0.03057874 Ry
     electrostatic embedding   =       0.20616700 Ry
     correction to one-el term =     -22.94953940 Ry

     iteration #  9     ecut=    35.00 Ry     beta= 0.70
     Davidson diagonalization with overlap
     ethr =  3.44E-05,  avg # of iterations =  1.0

     negative rho (up, down):  3.765E-03 0.000E+00

     add environment contribution to local potential
     polarization accuracy = 7.1E-06, # of iterations =  29

     total cpu time spent up to now is       45.2 secs

     total energy              =    -623.69386989 Ry
     Harris-Foulkes estimate   =    -600.91854974 Ry
     estimated scf accuracy    <       0.00888096 Ry
     electrostatic embedding   =       0.20528268 Ry
     correction to one-el term =     -22.98215182 Ry

     iteration # 10     ecut=    35.00 Ry     beta= 0.70
     Davidson diagonalization with overlap
     ethr =  9.98E-06,  avg # of iterations =  5.0

     negative rho (up, down):  3.660E-03 0.000E+00

     add environment contribution to local potential
     polarization accuracy = 8.2E-06, # of iterations =  29

     total cpu time spent up to now is       49.5 secs

     total energy              =    -623.69483382 Ry
     Harris-Foulkes estimate   =    -600.88129796 Ry
     estimated scf accuracy    <       0.00219546 Ry
     electrostatic embedding   =       0.20314018 Ry
     correction to one-el term =     -23.01740152 Ry

     iteration # 11     ecut=    35.00 Ry     beta= 0.70
     Davidson diagonalization with overlap
     ethr =  2.47E-06,  avg # of iterations =  7.0

     negative rho (up, down):  3.639E-03 0.000E+00

     add environment contribution to local potential
     polarization accuracy = 9.5E-06, # of iterations =  29

     total cpu time spent up to now is       53.6 secs

     total energy              =    -623.69474591 Ry
     Harris-Foulkes estimate   =    -600.84181214 Ry
     estimated scf accuracy    <       0.00502367 Ry
     electrostatic embedding   =       0.20299295 Ry
     correction to one-el term =     -23.05626026 Ry

     iteration # 12     ecut=    35.00 Ry     beta= 0.70
     Davidson diagonalization with overlap
     ethr =  2.47E-06,  avg # of iterations =  1.0

     negative rho (up, down):  3.575E-03 0.000E+00

     add environment contribution to local potential
     polarization accuracy = 9.4E-06, # of iterations =  29

     total cpu time spent up to now is       57.5 secs

     total energy              =    -623.69480140 Ry
     Harris-Foulkes estimate   =    -600.78705143 Ry
     estimated scf accuracy    <       0.00039563 Ry
     electrostatic embedding   =       0.20214194 Ry
     correction to one-el term =     -23.10997245 Ry

     iteration # 13     ecut=    35.00 Ry     beta= 0.70
     Davidson diagonalization with overlap
     ethr =  4.45E-07,  avg # of iterations =  1.0

     negative rho (up, down):  3.567E-03 0.000E+00

     add environment contribution to local potential
     polarization accuracy = 9.5E-06, # of iterations =  29

     total cpu time spent up to now is       61.4 secs

     total energy              =    -623.69464416 Ry
     Harris-Foulkes estimate   =    -600.81478074 Ry
     estimated scf accuracy    <       0.00002719 Ry
     electrostatic embedding   =       0.20247527 Ry
     correction to one-el term =     -23.08234891 Ry

     iteration # 14     ecut=    35.00 Ry     beta= 0.70
     Davidson diagonalization with overlap
     ethr =  3.06E-08,  avg # of iterations =  2.0

     negative rho (up, down):  3.568E-03 0.000E+00

     add environment contribution to local potential
     polarization accuracy = 9.4E-06, # of iterations =  29

     total cpu time spent up to now is       65.3 secs

     total energy              =    -623.69461351 Ry
     Harris-Foulkes estimate   =    -600.82167805 Ry
     estimated scf accuracy    <       0.00007757 Ry
     electrostatic embedding   =       0.20268761 Ry
     correction to one-el term =     -23.07563122 Ry

     iteration # 15     ecut=    35.00 Ry     beta= 0.70
     Davidson diagonalization with overlap
     ethr =  3.06E-08,  avg # of iterations =  1.0

     negative rho (up, down):  3.567E-03 0.000E+00

     add environment contribution to local potential
     polarization accuracy = 9.4E-06, # of iterations =  29

     total cpu time spent up to now is       69.2 secs

     total energy              =    -623.69462348 Ry
     Harris-Foulkes estimate   =    -600.82105315 Ry
     estimated scf accuracy    <       0.00010433 Ry
     electrostatic embedding   =       0.20270790 Ry
     correction to one-el term =     -23.07629013 Ry

     iteration # 16     ecut=    35.00 Ry     beta= 0.70
     Davidson diagonalization with overlap
     ethr =  3.06E-08,  avg # of iterations =  2.0

     negative rho (up, down):  3.567E-03 0.000E+00

     add environment contribution to local potential
     polarization accuracy = 9.7E-06, # of iterations =  29

     total cpu time spent up to now is       73.2 secs

     total energy              =    -623.69457852 Ry
     Harris-Foulkes estimate   =    -600.82149550 Ry
     estimated scf accuracy    <       0.00025446 Ry
     electrostatic embedding   =       0.20276005 Ry
     correction to one-el term =     -23.07587882 Ry

     iteration # 17     ecut=    35.00 Ry     beta= 0.70
     Davidson diagonalization with overlap
     ethr =  3.06E-08,  avg # of iterations =  2.0

     negative rho (up, down):  3.567E-03 0.000E+00

     add environment contribution to local potential
     polarization accuracy = 9.8E-06, # of iterations =  29

     total cpu time spent up to now is       77.1 secs

     total energy              =    -623.69456193 Ry
     Harris-Foulkes estimate   =    -600.81896613 Ry
     estimated scf accuracy    <       0.00001271 Ry
     electrostatic embedding   =       0.20282753 Ry
     correction to one-el term =     -23.07842766 Ry

     iteration # 18     ecut=    35.00 Ry     beta= 0.70
     Davidson diagonalization with overlap
     ethr =  1.43E-08,  avg # of iterations =  1.0

     negative rho (up, down):  3.566E-03 0.000E+00

     add environment contribution to local potential
     polarization accuracy = 9.8E-06, # of iterations =  29

     total cpu time spent up to now is       81.1 secs

     total energy              =    -623.69461550 Ry
     Harris-Foulkes estimate   =    -600.81463767 Ry
     estimated scf accuracy    <       0.00004292 Ry
     electrostatic embedding   =       0.20266245 Ry
     correction to one-el term =     -23.08264492 Ry

     iteration # 19     ecut=    35.00 Ry     beta= 0.70
     Davidson diagonalization with overlap
     ethr =  1.43E-08,  avg # of iterations =  1.0

     negative rho (up, down):  3.566E-03 0.000E+00

     add environment contribution to local potential
     polarization accuracy = 9.9E-06, # of iterations =  29

     total cpu time spent up to now is       85.0 secs

     total energy              =    -623.69456195 Ry
     Harris-Foulkes estimate   =    -600.81549484 Ry
     estimated scf accuracy    <       0.00002118 Ry
     electrostatic embedding   =       0.20274595 Ry
     correction to one-el term =     -23.08181614 Ry

     iteration # 20     ecut=    35.00 Ry     beta= 0.70
     Davidson diagonalization with overlap
     ethr =  1.43E-08,  avg # of iterations =  1.0

     negative rho (up, down):  3.566E-03 0.000E+00

     the potential shift due to the Gaussian-smeared nuclei is    -0.4600 ev

     total cpu time spent up to now is       87.9 secs

     End of self-consistent calculation

          k = 0.0000 0.0000 0.0000 (  7286 PWs)   bands (ev):

   -24.8114 -11.3352  -9.6927  -8.4720  -8.2323  -7.6661  -7.6658  -7.5203
    -7.3500  -6.5058  -6.3765  -6.2627  -6.0381  -5.9973  -5.9247  -5.7902
    -5.1081  -5.0645  -5.0118  -4.8117  -4.7640  -4.7191  -4.6796  -4.6372
    -4.6254  -4.4392  -4.4216  -4.3287  -4.2175  -3.9863  -3.8707  -3.1298
    -2.9988  -2.7316  -2.4883  -2.4549  -2.3873  -2.2270  -2.0589  -1.9396
    -1.7550  -1.7529  -1.5470  -1.5135  -1.4691  -1.3042  -1.1592  -0.0747
     0.2401   0.3140   0.9055   1.5969   1.7279   2.7025   3.0173   3.0948
     4.4293   4.6285   4.7053   5.0341   5.5091   5.8786   6.1199   6.1394
     6.9949   7.1905   7.4276   7.5655   7.7150   8.0391   8.9255   9.3178
     9.3200   9.3687   9.6700   9.9824  10.0651  10.1752  10.3084  10.3677

     the Fermi energy is    -1.3818 ev

!    total energy              =    -623.69455500 Ry
     Harris-Foulkes estimate   =    -600.81383563 Ry
     estimated scf accuracy    <       0.00000462 Ry

     The total energy is the sum of the following terms:

     one-electron contribution =   -3916.43592669 Ry
     hartree contribution      =    2005.18828753 Ry
     xc contribution           =    -262.76914004 Ry
     ewald contribution        =    1573.20467954 Ry
     smearing contrib. (-TS)   =      -0.00173154 Ry
     electrostatic embedding   =       0.20273502 Ry
     correction to one-el term =     -23.08345882 Ry

     convergence has been achieved in  20 iterations

     negative rho (up, down):  3.566E-03 0.000E+00

     Forces acting on atoms (cartesian axes, Ry/au):

     atom    1 type  1   force =    -0.00001148   -0.00429181    0.07629115
     atom    2 type  2   force =    -0.00010227    0.00126263   -0.05616344
     atom    3 type  3   force =     0.00166275    0.01304259    0.04593220
     atom    4 type  3   force =    -0.00067398    0.01327533    0.04632133
     atom    5 type  3   force =    -0.00157520    0.01122594    0.01031369
     atom    6 type  3   force =     0.00061615    0.00837849    0.06052629
     atom    7 type  3   force =    -0.00130569   -0.01215771   -0.05237601
     atom    8 type  3   force =     0.00035542   -0.02044550   -0.03454145
     atom    9 type  3   force =     0.01911612   -0.00533188   -0.04828823
     atom   10 type  3   force =    -0.01808181   -0.00495808   -0.04801552

     Total force =     0.165696     Total SCF correction =     0.007870

     Writing output data file pwscf.save/
 
     init_run     :      5.64s CPU      6.02s WALL (       1 calls)
     electrons    :     70.86s CPU     80.98s WALL (       1 calls)
     forces       :      3.62s CPU      3.90s WALL (       1 calls)

     Called by init_run:
     wfcinit      :      0.32s CPU      0.33s WALL (       1 calls)
     potinit      :      1.51s CPU      1.55s WALL (       1 calls)
     hinit0       :      3.40s CPU      3.43s WALL (       1 calls)

     Called by electrons:
     c_bands      :     16.81s CPU     17.47s WALL (      20 calls)
     sum_band     :     13.74s CPU     17.72s WALL (      20 calls)
     v_of_rho     :      5.24s CPU      5.49s WALL (      21 calls)
     newd         :      8.42s CPU     13.03s WALL (      21 calls)
     mix_rho      :      0.60s CPU      0.59s WALL (      20 calls)

     Called by c_bands:
     init_us_2    :      0.17s CPU      0.20s WALL (      41 calls)
     regterg      :     15.50s CPU     16.14s WALL (      20 calls)

     Called by sum_band:
     sum_band:bec :      0.01s CPU      0.00s WALL (      20 calls)
     addusdens    :     10.51s CPU     14.42s WALL (      20 calls)

     Called by *egterg:
     h_psi        :     12.48s CPU     12.54s WALL (      81 calls)
     s_psi        :      0.54s CPU      0.55s WALL (      81 calls)
     g_psi        :      0.08s CPU      0.09s WALL (      60 calls)
     rdiaghg      :      0.55s CPU      0.54s WALL (      80 calls)

     Called by h_psi:
     h_psi:pot    :     12.44s CPU     12.48s WALL (      81 calls)
     h_psi:calbec :      0.52s CPU      0.51s WALL (      81 calls)
     vloc_psi     :     11.40s CPU     11.43s WALL (      81 calls)
     add_vuspsi   :      0.53s CPU      0.53s WALL (      81 calls)

     General routines
     calbec       :      0.74s CPU      0.74s WALL (     105 calls)
     fft          :     12.72s CPU     13.01s WALL (    1737 calls)
     ffts         :      0.11s CPU      0.09s WALL (      41 calls)
     fftw         :     11.48s CPU     11.55s WALL (    4518 calls)
     interpolate  :      0.24s CPU      0.32s WALL (      21 calls)
 
     Parallel routines
 
     Environ routines
     calc_eelect  :      0.04s CPU      0.04s WALL (      40 calls)
     calc_velect  :     19.91s CPU     20.09s WALL (      38 calls)
     dielectric   :      0.50s CPU      0.49s WALL (      23 calls)
     calc_felect  :      0.05s CPU      0.05s WALL (       1 calls)
 
     PWSCF        :   1m21.01s CPU   1m31.84s WALL

 
   This run was terminated on:  16:36: 7  24Apr2019            

=------------------------------------------------------------------------------=
   JOB DONE.
=------------------------------------------------------------------------------=

%%%% IONS %%%%%%%%%%%%%%%%%%%%%%%%%%%%%%%%%%%%%%%%%%%%%%%%%%%%%%%%%%%%%%%%%%%%%%
 number of ions             =         10
 ionic center of charge     =      0.3882415     0.3750182     0.2893651
 total ionic charge         =    -90.0000000
 ionic dipole               =      0.0000000     0.0000000     0.0000000
 ionic quadrupole (pc)      =   -730.5101255  -614.6110457  -876.7220256
 ionic quadrupole (gauss)   =   -741.7601255  -625.8610457  -887.9720256
 ion   1 type =  1 coordinates =      5.3350841     4.6467234     8.2964034
 ion   2 type =  2 coordinates =      5.3350096     4.6196233    10.4752278
 ion   3 type =  3 coordinates =      8.0613271     0.0980580     4.3875164
 ion   4 type =  3 coordinates =      2.6089894     0.0980583     4.3875141
 ion   5 type =  3 coordinates =      0.0000366     4.7208463     4.3641304
 ion   6 type =  3 coordinates =      5.3351596     4.7216127     4.7755699
 ion   7 type =  3 coordinates =      0.0000411     7.8029520     0.0000000
 ion   8 type =  3 coordinates =      5.3351612     7.6977491     0.1488629
 ion   9 type =  3 coordinates =      2.6978606     3.1521739     0.0837858
 ion  10 type =  3 coordinates =      7.9724637     3.1521745     0.0837887

%%%% SYSTEM %%%%%%%%%%%%%%%%%%%%%%%%%%%%%%%%%%%%%%%%%%%%%%%%%%%%%%%%%%%%%%%%%%%%
 system is built from all present ionic types
 system defined dimension   =  0 
 system defined axis        =  3 
 system center              =      0.3882415     0.3750182     0.2893651 
 system width               =      0.7019013 

%%%% ELECTRONS %%%%%%%%%%%%%%%%%%%%%%%%%%%%%%%%%%%%%%%%%%%%%%%%%%%%%%%%%%%%%%%%%
 number of electrons        =         89
 total electronic charge    =     89.0000000

%%%% BOUNDARY %%%%%%%%%%%%%%%%%%%%%%%%%%%%%%%%%%%%%%%%%%%%%%%%%%%%%%%%%%%%%%%%%%
 boundary label             = solvent              
 boundary mode              = full                 
 boundary is built as a function of a smooth density
 function type              =  2 
 using the modified SCCS function with parameters 
 rhomax                     =      0.0050000 
 rhomin                     =      0.0001000 
 volume of the QM region    =   1610.6630766 
 surface of the QM region   =    255.0494111 

%%%% DIELECTRIC %%%%%%%%%%%%%%%%%%%%%%%%%%%%%%%%%%%%%%%%%%%%%%%%%%%%%%%%%%%%%%%%%
 dielectric build on homogeneous background
 environment bulk permitt.  =    100.0000000 
 dielectric flags
 need gradient              =  F 
 need factor depend. sqrt   =  T 
 total dielectric charge    =      0.0000000

%%%% DENSITY %%%%%%%%%%%%%%%%%%%%%%%%%%%%%%%%%%%%%%%%%%%%%%%%%%%%%%%%%%%%%%%%%%%
 density label              = vreference                                                                      
 integral of density        =      0.000000000    

%%%% DENSITY %%%%%%%%%%%%%%%%%%%%%%%%%%%%%%%%%%%%%%%%%%%%%%%%%%%%%%%%%%%%%%%%%%%
 density label              = velectrostatic                                                                  
 integral of density        =      0.000000000    

%%%% CHARGES %%%%%%%%%%%%%%%%%%%%%%%%%%%%%%%%%%%%%%%%%%%%%%%%%%%%%%%%%%%%%%%%%%%
 total number of charges    =         99
 total charge               =     -1.0000000

%%%% DENSITY %%%%%%%%%%%%%%%%%%%%%%%%%%%%%%%%%%%%%%%%%%%%%%%%%%%%%%%%%%%%%%%%%%%
 density label              = vsoftcavity                                                                     
 integral of density        =      0.000000000    

%%%% ELECTRONS %%%%%%%%%%%%%%%%%%%%%%%%%%%%%%%%%%%%%%%%%%%%%%%%%%%%%%%%%%%%%%%%%
 number of electrons        =         89
 total electronic charge    =     89.0000000

%%%% BOUNDARY %%%%%%%%%%%%%%%%%%%%%%%%%%%%%%%%%%%%%%%%%%%%%%%%%%%%%%%%%%%%%%%%%%
 boundary label             = solvent              
 boundary mode              = full                 
 boundary is built as a function of a smooth density
 function type              =  2 
 using the modified SCCS function with parameters 
 rhomax                     =      0.0050000 
 rhomin                     =      0.0001000 
 volume of the QM region    =   1500.3584888 
 surface of the QM region   =    259.8000326 

%%%% DIELECTRIC %%%%%%%%%%%%%%%%%%%%%%%%%%%%%%%%%%%%%%%%%%%%%%%%%%%%%%%%%%%%%%%%%
 dielectric build on homogeneous background
 environment bulk permitt.  =    100.0000000 
 dielectric flags
 need gradient              =  F 
 need factor depend. sqrt   =  T 
 total dielectric charge    =      0.0000000

%%%% DENSITY %%%%%%%%%%%%%%%%%%%%%%%%%%%%%%%%%%%%%%%%%%%%%%%%%%%%%%%%%%%%%%%%%%%
 density label              = vreference                                                                      
 integral of density        =     0.2276436177E-11

%%%% COMPUTE ELECTROSTATIC POTENTIAL %%%%%%%%%%%%%%%%%%%%%%%%%%%%%%%%%%%%%%%%%%%
 Iteration #          1
  pAp =    1283.82356395428       rzold =    1273.24891791843       alpha = 
  0.991763162530465     
 delta_qm =   0.183319E+00 delta_en =   0.261319E+05 tol =   0.100000E-04
 Iteration #          2
  pAp =    5130.46280498518       rzold =    225.752286335163       alpha = 
  4.400232394547392E-002
 delta_qm =   0.210559E-01 delta_en =   0.344751E+03 tol =   0.100000E-04
 Iteration #          3
  pAp =    12.1096600107592       rzold =    1.23575554375609       alpha = 
  0.102047088246750     
 delta_qm =   0.332695E-01 delta_en =   0.860694E+03 tol =   0.100000E-04
 Iteration #          4
  pAp =   0.226384934111938       rzold =   0.115055695570983       alpha = 
  0.508230355621160     
 delta_qm =   0.240253E-01 delta_en =   0.448842E+03 tol =   0.100000E-04
 Iteration #          5
  pAp =   0.144255685577259       rzold =   0.112191047410376       alpha = 
  0.777723574370241     
 delta_qm =   0.145251E-01 delta_en =   0.164057E+03 tol =   0.100000E-04
 Iteration #          6
  pAp =   0.546218062011905       rzold =   0.170104105259525       alpha = 
  0.311421604465027     
 delta_qm =   0.113185E-01 delta_en =   0.996170E+02 tol =   0.100000E-04
 Iteration #          7
  pAp =   9.618353767714913E-002  rzold =   5.208963801420870E-002  alpha = 
  0.541565004492281     
 delta_qm =   0.947758E-02 delta_en =   0.698475E+02 tol =   0.100000E-04
 Iteration #          8
  pAp =   2.438385027576074E-002  rzold =   1.457626604100125E-002  alpha = 
  0.597783609895730     
 delta_qm =   0.654651E-02 delta_en =   0.333255E+02 tol =   0.100000E-04
 Iteration #          9
  pAp =   8.820510141749369E-003  rzold =   7.141685827433049E-003  alpha = 
  0.809668115864401     
 delta_qm =   0.470991E-02 delta_en =   0.172497E+02 tol =   0.100000E-04
 Iteration #         10
  pAp =   1.019415780046529E-002  rzold =   8.180221895989622E-003  alpha = 
  0.802442149327554     
 delta_qm =   0.369769E-02 delta_en =   0.106320E+02 tol =   0.100000E-04
 Iteration #         11
  pAp =   1.315148826137301E-002  rzold =   6.281565991649733E-003  alpha = 
  0.477631570420756     
 delta_qm =   0.416803E-02 delta_en =   0.135088E+02 tol =   0.100000E-04
 Iteration #         12
  pAp =   6.867487322022050E-003  rzold =   2.988132624186728E-003  alpha = 
  0.435112943653299     
 delta_qm =   0.391001E-02 delta_en =   0.118881E+02 tol =   0.100000E-04
 Iteration #         13
  pAp =   8.946698498799429E-004  rzold =   1.545065040181661E-003  alpha = 
   1.72696670217399     
 delta_qm =   0.229976E-02 delta_en =   0.411265E+01 tol =   0.100000E-04
 Iteration #         14
  pAp =   9.722840287621447E-003  rzold =   2.404452008390338E-003  alpha = 
  0.247299342297286     
 delta_qm =   0.220983E-02 delta_en =   0.379731E+01 tol =   0.100000E-04
 Iteration #         15
  pAp =   6.159718845786634E-002  rzold =   5.748394400125497E-003  alpha = 
  9.332235032216622E-002
 delta_qm =   0.201878E-02 delta_en =   0.316908E+01 tol =   0.100000E-04
 Iteration #         16
  pAp =   1.434489183839094E-003  rzold =   5.838873190672396E-004  alpha = 
  0.407035009845521     
 delta_qm =   0.128700E-02 delta_en =   0.128799E+01 tol =   0.100000E-04
 Iteration #         17
  pAp =   7.468224484307289E-004  rzold =   2.509203079774722E-004  alpha = 
  0.335983885466649     
 delta_qm =   0.681614E-03 delta_en =   0.361271E+00 tol =   0.100000E-04
 Iteration #         18
  pAp =   8.190591956752692E-005  rzold =   4.307342772569170E-005  alpha = 
  0.525889068252021     
 delta_qm =   0.287388E-03 delta_en =   0.642233E-01 tol =   0.100000E-04
 Iteration #         19
  pAp =   1.532162332641162E-005  rzold =   9.244943148147393E-006  alpha = 
  0.603391882909094     
 delta_qm =   0.139104E-03 delta_en =   0.150464E-01 tol =   0.100000E-04
 Iteration #         20
  pAp =   3.506612706020065E-006  rzold =   2.306572975857340E-006  alpha = 
  0.657778080795029     
 delta_qm =   0.717224E-04 delta_en =   0.400006E-02 tol =   0.100000E-04
 Iteration #         21
  pAp =   1.087329441843485E-006  rzold =   6.017963852229441E-007  alpha = 
  0.553462788796230     
 delta_qm =   0.335370E-04 delta_en =   0.874592E-03 tol =   0.100000E-04
 Iteration #         22
  pAp =   1.192559238213957E-007  rzold =   7.054420524485587E-008  alpha = 
  0.591536277480914     
 delta_qm =   0.157393E-04 delta_en =   0.192631E-03 tol =   0.100000E-04
 Iteration #         23
  pAp =   3.069732437314574E-007  rzold =   4.623920139268967E-008  alpha = 
  0.150629419133154     
 delta_qm =   0.110363E-04 delta_en =   0.947109E-04 tol =   0.100000E-04
 Iteration #         24
  pAp =   4.285592338013494E-008  rzold =   1.788605716145398E-008  alpha = 
  0.417353209328928     
 delta_qm =   0.456456E-05 delta_en =   0.162015E-04 tol =   0.100000E-04
 Iteration #         25
  pAp =   4.479989239414287E-009  rzold =   2.642730634216093E-009  alpha = 
  0.589896647734271     
 delta_qm =   0.215816E-05 delta_en =   0.362179E-05 tol =   0.100000E-04
 Charges are converged, EXIT

%%%% DENSITY %%%%%%%%%%%%%%%%%%%%%%%%%%%%%%%%%%%%%%%%%%%%%%%%%%%%%%%%%%%%%%%%%%%
 density label              = velectrostatic                                                                  
 integral of density        =     0.5342266384E-11

%%%% CHARGES %%%%%%%%%%%%%%%%%%%%%%%%%%%%%%%%%%%%%%%%%%%%%%%%%%%%%%%%%%%%%%%%%%%
 total number of charges    =         99
 total charge               =     -1.0000000

%%%% DENSITY %%%%%%%%%%%%%%%%%%%%%%%%%%%%%%%%%%%%%%%%%%%%%%%%%%%%%%%%%%%%%%%%%%%
 density label              = vsoftcavity                                                                     
 integral of density        =      81.73592269    

%%%% ELECTRONS %%%%%%%%%%%%%%%%%%%%%%%%%%%%%%%%%%%%%%%%%%%%%%%%%%%%%%%%%%%%%%%%%
 number of electrons        =         89
 total electronic charge    =     89.0000000

%%%% BOUNDARY %%%%%%%%%%%%%%%%%%%%%%%%%%%%%%%%%%%%%%%%%%%%%%%%%%%%%%%%%%%%%%%%%%
 boundary label             = solvent              
 boundary mode              = full                 
 boundary is built as a function of a smooth density
 function type              =  2 
 using the modified SCCS function with parameters 
 rhomax                     =      0.0050000 
 rhomin                     =      0.0001000 
 volume of the QM region    =   1509.9840634 
 surface of the QM region   =    349.2460892 

%%%% DIELECTRIC %%%%%%%%%%%%%%%%%%%%%%%%%%%%%%%%%%%%%%%%%%%%%%%%%%%%%%%%%%%%%%%%%
 dielectric build on homogeneous background
 environment bulk permitt.  =    100.0000000 
 dielectric flags
 need gradient              =  F 
 need factor depend. sqrt   =  T 
 total dielectric charge    =      0.0141878

%%%% DENSITY %%%%%%%%%%%%%%%%%%%%%%%%%%%%%%%%%%%%%%%%%%%%%%%%%%%%%%%%%%%%%%%%%%%
 density label              = vreference                                                                      
 integral of density        =     0.1432607561E-11

%%%% COMPUTE ELECTROSTATIC POTENTIAL %%%%%%%%%%%%%%%%%%%%%%%%%%%%%%%%%%%%%%%%%%%
 Warning: bad guess with residual norm =   0.122819E+05, reset to no guess
 Iteration #          1
  pAp =    1275.41462592436       rzold =    1274.14077675890       alpha = 
  0.999001227412981     
 delta_qm =   0.125552E+00 delta_en =   0.122575E+05 tol =   0.100000E-04
 Iteration #          2
  pAp =    673.603721698021       rzold =    25.5788351468118       alpha = 
  3.797312028254923E-002
 delta_qm =   0.115050E+00 delta_en =   0.102927E+05 tol =   0.100000E-04
 Iteration #          3
  pAp =    16.1640463374558       rzold =    1.99368828321350       alpha = 
  0.123340916104259     
 delta_qm =   0.719290E-01 delta_en =   0.402313E+04 tol =   0.100000E-04
 Iteration #          4
  pAp =   0.352831726763809       rzold =   0.120348402475625       alpha = 
  0.341092915819864     
 delta_qm =   0.666830E-01 delta_en =   0.345769E+04 tol =   0.100000E-04
 Iteration #          5
  pAp =    1.25605812490883       rzold =   0.276162154821533       alpha = 
  0.219864152259338     
 delta_qm =   0.285404E-01 delta_en =   0.633397E+03 tol =   0.100000E-04
 Iteration #          6
  pAp =   0.118679702615927       rzold =   0.125367149480195       alpha = 
   1.05634869920351     
 delta_qm =   0.398433E-01 delta_en =   0.123443E+04 tol =   0.100000E-04
 Iteration #          7
  pAp =   0.362683244437828       rzold =   0.211492668139332       alpha = 
  0.583133275062523     
 delta_qm =   0.493332E-01 delta_en =   0.189250E+04 tol =   0.100000E-04
 Iteration #          8
  pAp =   0.134803331017697       rzold =   8.711846283187133E-002  alpha = 
  0.646263428167321     
 delta_qm =   0.468939E-01 delta_en =   0.170997E+04 tol =   0.100000E-04
 Iteration #          9
  pAp =   4.515617768964510E-002  rzold =   7.357126954844345E-002  alpha = 
   1.62926255747537     
 delta_qm =   0.590752E-01 delta_en =   0.271373E+04 tol =   0.100000E-04
 Iteration #         10
  pAp =   0.306644102845249       rzold =   0.204586572709284       alpha = 
  0.667179217897861     
 delta_qm =   0.685857E-01 delta_en =   0.365783E+04 tol =   0.100000E-04
 Iteration #         11
  pAp =   0.340229057262257       rzold =   0.221162359004987       alpha = 
  0.650039596219761     
 delta_qm =   0.654997E-01 delta_en =   0.333606E+04 tol =   0.100000E-04
 Iteration #         12
  pAp =   0.240706389954258       rzold =   0.149466223011272       alpha = 
  0.620948297382865     
 delta_qm =   0.608964E-01 delta_en =   0.288363E+04 tol =   0.100000E-04
 Iteration #         13
  pAp =   0.173612288036362       rzold =   0.127673971108294       alpha = 
  0.735397088261131     
 delta_qm =   0.653567E-01 delta_en =   0.332152E+04 tol =   0.100000E-04
 Iteration #         14
  pAp =   0.140480726979476       rzold =   0.191642148020495       alpha = 
   1.36418818539069     
 delta_qm =   0.131518E+00 delta_en =   0.134501E+05 tol =   0.100000E-04
 Iteration #         15
  pAp =    7.81496374588387       rzold =   0.820442407926378       alpha = 
  0.104983520666811     
 delta_qm =   0.137710E+00 delta_en =   0.147465E+05 tol =   0.100000E-04
 Iteration #         16
  pAp =    3.31969039941859       rzold =    1.45227093422333       alpha = 
  0.437471799923776     
 delta_qm =   0.247276E+00 delta_en =   0.475467E+05 tol =   0.100000E-04
 Iteration #         17
  pAp =   -1.47691274482157       rzold =    2.29475243064548       alpha = 
  -1.55374949447180     
 delta_qm =   0.404082E+00 delta_en =   0.126968E+06 tol =   0.100000E-04
 Iteration #         18
  pAp =    29.0689966726501       rzold =    6.08511583455742       alpha = 
  0.209333535074592     
 delta_qm =   0.173289E+00 delta_en =   0.233507E+05 tol =   0.100000E-04
 Iteration #         19
  pAp =    3.30070529312556       rzold =    1.26250181586017       alpha = 
  0.382494559114261     
 delta_qm =   0.782920E-01 delta_en =   0.476641E+04 tol =   0.100000E-04
 Iteration #         20
  pAp =   0.423319557946513       rzold =   0.222993806585242       alpha = 
  0.526774164810540     
 delta_qm =   0.562618E-01 delta_en =   0.246141E+04 tol =   0.100000E-04
 Iteration #         21
  pAp =   0.223179456732564       rzold =   0.135057944814813       alpha = 
  0.605154017274328     
 delta_qm =   0.375648E-01 delta_en =   0.109728E+04 tol =   0.100000E-04
 Iteration #         22
  pAp =   0.122957193401082       rzold =   5.846757337213441E-002  alpha = 
  0.475511613065332     
 delta_qm =   0.273617E-01 delta_en =   0.582158E+03 tol =   0.100000E-04
 Iteration #         23
  pAp =   0.223420190049549       rzold =   3.890897729639473E-002  alpha = 
  0.174151571922689     
 delta_qm =   0.226864E-01 delta_en =   0.400208E+03 tol =   0.100000E-04
 Iteration #         24
  pAp =   0.142434354686607       rzold =   3.577519822049342E-002  alpha = 
  0.251169728674014     
 delta_qm =   0.136177E-01 delta_en =   0.144200E+03 tol =   0.100000E-04
 Iteration #         25
  pAp =   1.185193127983661E-002  rzold =   6.873691561691222E-003  alpha = 
  0.579963838753036     
 delta_qm =   0.100884E-01 delta_en =   0.791405E+02 tol =   0.100000E-04
 Iteration #         26
  pAp =   7.454864350094383E-003  rzold =   4.117963523996594E-003  alpha = 
  0.552386110680130     
 delta_qm =   0.820236E-02 delta_en =   0.523160E+02 tol =   0.100000E-04
 Iteration #         27
  pAp =   4.315430826740834E-003  rzold =   2.359721884846116E-003  alpha = 
  0.546810267522759     
 delta_qm =   0.596215E-02 delta_en =   0.276416E+02 tol =   0.100000E-04
 Iteration #         28
  pAp =   2.443253454408680E-003  rzold =   1.252968508577677E-003  alpha = 
  0.512827887879083     
 delta_qm =   0.429438E-02 delta_en =   0.143403E+02 tol =   0.100000E-04
 Iteration #         29
  pAp =   1.941906689316331E-002  rzold =   1.455398854768946E-003  alpha = 
  7.494689949707803E-002
 delta_qm =   0.400041E-02 delta_en =   0.124442E+02 tol =   0.100000E-04
 Iteration #         30
  pAp =   4.475283495845495E-003  rzold =   1.423341203120958E-003  alpha = 
  0.318044924850521     
 delta_qm =   0.310928E-02 delta_en =   0.751756E+01 tol =   0.100000E-04
 Iteration #         31
  pAp =   3.202333832271794E-004  rzold =   2.689353882982531E-004  alpha = 
  0.839810595597603     
 delta_qm =   0.210793E-02 delta_en =   0.345515E+01 tol =   0.100000E-04
 Iteration #         32
  pAp =   1.803615648834282E-004  rzold =   1.360810677544058E-004  alpha = 
  0.754490391799151     
 delta_qm =   0.133489E-02 delta_en =   0.138562E+01 tol =   0.100000E-04
 Iteration #         33
  pAp =   1.141556415199957E-004  rzold =   6.979609271278693E-005  alpha = 
  0.611411681310216     
 delta_qm =   0.996600E-03 delta_en =   0.772321E+00 tol =   0.100000E-04
 Iteration #         34
  pAp =   2.801525929573040E-004  rzold =   7.261095429423986E-005  alpha = 
  0.259183588228669     
 delta_qm =   0.854943E-03 delta_en =   0.568369E+00 tol =   0.100000E-04
 Iteration #         35
  pAp =   5.512084488878596E-005  rzold =   3.409151143597209E-005  alpha = 
  0.618486735911913     
 delta_qm =   0.680725E-03 delta_en =   0.360329E+00 tol =   0.100000E-04
 Iteration #         36
  pAp =   1.310251356494634E-005  rzold =   1.225958732306823E-005  alpha = 
  0.935666829291959     
 delta_qm =   0.473894E-03 delta_en =   0.174630E+00 tol =   0.100000E-04
 Iteration #         37
  pAp =   1.395806328213262E-005  rzold =   9.062420543677167E-006  alpha = 
  0.649260600163473     
 delta_qm =   0.376879E-03 delta_en =   0.110448E+00 tol =   0.100000E-04
 Iteration #         38
  pAp =   5.687207210815538E-006  rzold =   4.422384645957877E-006  alpha = 
  0.777602166059237     
 delta_qm =   0.253402E-03 delta_en =   0.499319E-01 tol =   0.100000E-04
 Iteration #         39
  pAp =   2.474531884271399E-006  rzold =   1.763877693860443E-006  alpha = 
  0.712812675832544     
 delta_qm =   0.155857E-03 delta_en =   0.188891E-01 tol =   0.100000E-04
 Iteration #         40
  pAp =   2.288987205532563E-006  rzold =   9.732188640040697E-007  alpha = 
  0.425174444685302     
 delta_qm =   0.133598E-03 delta_en =   0.138790E-01 tol =   0.100000E-04
 Iteration #         41
  pAp =   5.266176730812331E-005  rzold =   3.228244641470961E-006  alpha = 
  6.130148695129323E-002
 delta_qm =   0.116778E-03 delta_en =   0.106041E-01 tol =   0.100000E-04
 Iteration #         42
  pAp =   5.441598756086727E-006  rzold =   8.800209378290577E-007  alpha = 
  0.161721026719345     
 delta_qm =   0.111807E-03 delta_en =   0.972055E-02 tol =   0.100000E-04
 Iteration #         43
  pAp =   2.852744853400437E-006  rzold =   9.367438057173870E-007  alpha = 
  0.328365785885408     
 delta_qm =   0.947375E-04 delta_en =   0.697911E-02 tol =   0.100000E-04
 Iteration #         44
  pAp =   3.479718254970765E-007  rzold =   2.615030351872680E-007  alpha = 
  0.751506346278788     
 delta_qm =   0.617838E-04 delta_en =   0.296828E-02 tol =   0.100000E-04
 Iteration #         45
  pAp =   1.598986698062684E-007  rzold =   1.331630814788021E-007  alpha = 
  0.832796680798790     
 delta_qm =   0.415922E-04 delta_en =   0.134518E-02 tol =   0.100000E-04
 Iteration #         46
  pAp =   5.874202711230143E-008  rzold =   4.443686181318627E-008  alpha = 
  0.756474776197850     
 delta_qm =   0.250081E-04 delta_en =   0.486316E-03 tol =   0.100000E-04
 Iteration #         47
  pAp =   2.879045634692210E-008  rzold =   1.966206486939842E-008  alpha = 
  0.682936895215294     
 delta_qm =   0.138525E-04 delta_en =   0.149215E-03 tol =   0.100000E-04
 Iteration #         48
  pAp =   6.700061355191903E-009  rzold =   5.186743268701551E-009  alpha = 
  0.774133697250746     
 delta_qm =   0.785559E-05 delta_en =   0.479860E-04 tol =   0.100000E-04
 Iteration #         49
  pAp =   3.500153412214711E-009  rzold =   2.068742632398128E-009  alpha = 
  0.591043416891015     
 delta_qm =   0.468146E-05 delta_en =   0.170420E-04 tol =   0.100000E-04
 Iteration #         50
  pAp =   1.112074306922792E-009  rzold =   6.923379397932655E-010  alpha = 
  0.622564459482052     
 delta_qm =   0.263302E-05 delta_en =   0.539094E-05 tol =   0.100000E-04
 Charges are converged, EXIT

%%%% DENSITY %%%%%%%%%%%%%%%%%%%%%%%%%%%%%%%%%%%%%%%%%%%%%%%%%%%%%%%%%%%%%%%%%%%
 density label              = velectrostatic                                                                  
 integral of density        =     0.4948285724E-11

%%%% CHARGES %%%%%%%%%%%%%%%%%%%%%%%%%%%%%%%%%%%%%%%%%%%%%%%%%%%%%%%%%%%%%%%%%%%
 total number of charges    =         99
 total charge               =     -1.0000000

%%%% DENSITY %%%%%%%%%%%%%%%%%%%%%%%%%%%%%%%%%%%%%%%%%%%%%%%%%%%%%%%%%%%%%%%%%%%
 density label              = vsoftcavity                                                                     
 integral of density        =      1451.619055    

%%%% ELECTRONS %%%%%%%%%%%%%%%%%%%%%%%%%%%%%%%%%%%%%%%%%%%%%%%%%%%%%%%%%%%%%%%%%
 number of electrons        =         89
 total electronic charge    =     89.0000000

%%%% BOUNDARY %%%%%%%%%%%%%%%%%%%%%%%%%%%%%%%%%%%%%%%%%%%%%%%%%%%%%%%%%%%%%%%%%%
 boundary label             = solvent              
 boundary mode              = full                 
 boundary is built as a function of a smooth density
 function type              =  2 
 using the modified SCCS function with parameters 
 rhomax                     =      0.0050000 
 rhomin                     =      0.0001000 
 volume of the QM region    =   1485.4790763 
 surface of the QM region   =    274.8915141 

%%%% DIELECTRIC %%%%%%%%%%%%%%%%%%%%%%%%%%%%%%%%%%%%%%%%%%%%%%%%%%%%%%%%%%%%%%%%%
 dielectric build on homogeneous background
 environment bulk permitt.  =    100.0000000 
 dielectric flags
 need gradient              =  F 
 need factor depend. sqrt   =  T 
 total dielectric charge    =      0.0883811

%%%% DENSITY %%%%%%%%%%%%%%%%%%%%%%%%%%%%%%%%%%%%%%%%%%%%%%%%%%%%%%%%%%%%%%%%%%%
 density label              = vreference                                                                      
 integral of density        =    -0.5893411645E-11

%%%% COMPUTE ELECTROSTATIC POTENTIAL %%%%%%%%%%%%%%%%%%%%%%%%%%%%%%%%%%%%%%%%%%%
 Warning: bad guess with residual norm =   0.356062E+04, reset to no guess
 Iteration #          1
  pAp =    1271.95438214370       rzold =    1271.10524209270       alpha = 
  0.999332413125094     
 delta_qm =   0.676234E-01 delta_en =   0.355590E+04 tol =   0.100000E-04
 Iteration #          2
  pAp =    295.305808383165       rzold =    13.8341114209899       alpha = 
  4.684672982469699E-002
 delta_qm =   0.611441E-01 delta_en =   0.290714E+04 tol =   0.100000E-04
 Iteration #          3
  pAp =    15.9661587826980       rzold =    1.85315820804328       alpha = 
  0.116067880400356     
 delta_qm =   0.430061E-01 delta_en =   0.143819E+04 tol =   0.100000E-04
 Iteration #          4
  pAp =   5.023906830767994E-002  rzold =   7.503267643670615E-002  alpha = 
   1.49351249862323     
 delta_qm =   0.142384E-01 delta_en =   0.157645E+03 tol =   0.100000E-04
 Iteration #          5
  pAp =    1.40395423281225       rzold =   0.269091644766956       alpha = 
  0.191666963550472     
 delta_qm =   0.140647E-01 delta_en =   0.153822E+03 tol =   0.100000E-04
 Iteration #          6
  pAp =   0.632017211193706       rzold =   0.199379067435376       alpha = 
  0.315464616950547     
 delta_qm =   0.151042E-01 delta_en =   0.177400E+03 tol =   0.100000E-04
 Iteration #          7
  pAp =   0.100504809247119       rzold =   4.654752907802698E-002  alpha = 
  0.463137330707995     
 delta_qm =   0.111081E-01 delta_en =   0.959483E+02 tol =   0.100000E-04
 Iteration #          8
  pAp =   2.967399283875009E-002  rzold =   1.706450838370543E-002  alpha = 
  0.575066135401285     
 delta_qm =   0.913535E-02 delta_en =   0.648943E+02 tol =   0.100000E-04
 Iteration #          9
  pAp =   6.474661185975818E-003  rzold =   7.535656866134466E-003  alpha = 
   1.16386891138903     
 delta_qm =   0.638657E-02 delta_en =   0.317170E+02 tol =   0.100000E-04
 Iteration #         10
  pAp =   1.281199985086071E-002  rzold =   8.782168793475736E-003  alpha = 
  0.685464322174945     
 delta_qm =   0.502766E-02 delta_en =   0.196557E+02 tol =   0.100000E-04
 Iteration #         11
  pAp =   1.155583082257968E-002  rzold =   3.867178527604423E-003  alpha = 
  0.334651708473275     
 delta_qm =   0.479327E-02 delta_en =   0.178657E+02 tol =   0.100000E-04
 Iteration #         12
  pAp =   2.672689863798203E-003  rzold =   1.638176121641049E-003  alpha = 
  0.612931617629967     
 delta_qm =   0.427346E-02 delta_en =   0.142009E+02 tol =   0.100000E-04
 Iteration #         13
  pAp =   2.076329463057143E-003  rzold =   1.876205359380102E-003  alpha = 
  0.903616402291772     
 delta_qm =   0.501355E-02 delta_en =   0.195455E+02 tol =   0.100000E-04
 Iteration #         14
  pAp =   4.212954203366742E-003  rzold =   2.618561180404704E-003  alpha = 
  0.621549880203328     
 delta_qm =   0.567170E-02 delta_en =   0.250140E+02 tol =   0.100000E-04
 Iteration #         15
  pAp =   3.814211409573009E-002  rzold =   3.539997806974044E-003  alpha = 
  9.281073928123816E-002
 delta_qm =   0.529379E-02 delta_en =   0.217916E+02 tol =   0.100000E-04
 Iteration #         16
  pAp =   1.847661190324696E-002  rzold =   3.580737049783567E-003  alpha = 
  0.193798358082864     
 delta_qm =   0.419808E-02 delta_en =   0.137043E+02 tol =   0.100000E-04
 Iteration #         17
  pAp =   1.783429338380767E-003  rzold =   8.971893532233356E-004  alpha = 
  0.503069751021323     
 delta_qm =   0.194400E-02 delta_en =   0.293864E+01 tol =   0.100000E-04
 Iteration #         18
  pAp =   7.075120534649077E-004  rzold =   3.427599479709525E-004  alpha = 
  0.484458103988971     
 delta_qm =   0.977471E-03 delta_en =   0.742958E+00 tol =   0.100000E-04
 Iteration #         19
  pAp =   9.639087734302618E-005  rzold =   6.528425718499392E-005  alpha = 
  0.677286678828193     
 delta_qm =   0.615197E-03 delta_en =   0.294296E+00 tol =   0.100000E-04
 Iteration #         20
  pAp =   3.647278282696240E-005  rzold =   2.107878079610080E-005  alpha = 
  0.577931793581661     
 delta_qm =   0.308625E-03 delta_en =   0.740657E-01 tol =   0.100000E-04
 Iteration #         21
  pAp =   1.513978177413386E-005  rzold =   7.763723310849783E-006  alpha = 
  0.512802854537442     
 delta_qm =   0.159366E-03 delta_en =   0.197491E-01 tol =   0.100000E-04
 Iteration #         22
  pAp =   2.745078712656623E-006  rzold =   1.670332507541680E-006  alpha = 
  0.608482554558580     
 delta_qm =   0.689320E-04 delta_en =   0.369486E-02 tol =   0.100000E-04
 Iteration #         23
  pAp =   1.141717742141074E-006  rzold =   5.258533092246533E-007  alpha = 
  0.460580833436569     
 delta_qm =   0.413784E-04 delta_en =   0.133139E-02 tol =   0.100000E-04
 Iteration #         24
  pAp =   2.508771595008688E-006  rzold =   3.142596650427890E-007  alpha = 
  0.125264358727603     
 delta_qm =   0.330879E-04 delta_en =   0.851323E-03 tol =   0.100000E-04
 Iteration #         25
  pAp =   1.969616366077051E-007  rzold =   8.955517456439987E-008  alpha = 
  0.454683338881723     
 delta_qm =   0.172410E-04 delta_en =   0.231144E-03 tol =   0.100000E-04
 Iteration #         26
  pAp =   4.735696786086100E-008  rzold =   2.275222380021306E-008  alpha = 
  0.480440890283794     
 delta_qm =   0.943192E-05 delta_en =   0.691762E-04 tol =   0.100000E-04
 Iteration #         27
  pAp =   2.012946274042949E-008  rzold =   8.609051712114779E-009  alpha = 
  0.427684127645579     
 delta_qm =   0.484265E-05 delta_en =   0.182357E-04 tol =   0.100000E-04
 Iteration #         28
  pAp =   3.885281752644212E-007  rzold =   2.137381592881701E-008  alpha = 
  5.501226755117720E-002
 delta_qm =   0.427720E-05 delta_en =   0.142258E-04 tol =   0.100000E-04
 Iteration #         29
  pAp =   2.962569679062316E-009  rzold =   1.600255767838546E-009  alpha = 
  0.540158018610737     
 delta_qm =   0.252087E-05 delta_en =   0.494146E-05 tol =   0.100000E-04
 Charges are converged, EXIT

%%%% DENSITY %%%%%%%%%%%%%%%%%%%%%%%%%%%%%%%%%%%%%%%%%%%%%%%%%%%%%%%%%%%%%%%%%%%
 density label              = velectrostatic                                                                  
 integral of density        =    -0.1096233028E-10

%%%% CHARGES %%%%%%%%%%%%%%%%%%%%%%%%%%%%%%%%%%%%%%%%%%%%%%%%%%%%%%%%%%%%%%%%%%%
 total number of charges    =         99
 total charge               =     -1.0000000

%%%% DENSITY %%%%%%%%%%%%%%%%%%%%%%%%%%%%%%%%%%%%%%%%%%%%%%%%%%%%%%%%%%%%%%%%%%%
 density label              = vsoftcavity                                                                     
 integral of density        =      72.37263325    

%%%% ELECTRONS %%%%%%%%%%%%%%%%%%%%%%%%%%%%%%%%%%%%%%%%%%%%%%%%%%%%%%%%%%%%%%%%%
 number of electrons        =         89
 total electronic charge    =     89.0000000

%%%% BOUNDARY %%%%%%%%%%%%%%%%%%%%%%%%%%%%%%%%%%%%%%%%%%%%%%%%%%%%%%%%%%%%%%%%%%
 boundary label             = solvent              
 boundary mode              = full                 
 boundary is built as a function of a smooth density
 function type              =  2 
 using the modified SCCS function with parameters 
 rhomax                     =      0.0050000 
 rhomin                     =      0.0001000 
 volume of the QM region    =   1477.2167870 
 surface of the QM region   =    281.1906132 

%%%% DIELECTRIC %%%%%%%%%%%%%%%%%%%%%%%%%%%%%%%%%%%%%%%%%%%%%%%%%%%%%%%%%%%%%%%%%
 dielectric build on homogeneous background
 environment bulk permitt.  =    100.0000000 
 dielectric flags
 need gradient              =  F 
 need factor depend. sqrt   =  T 
 total dielectric charge    =      0.0169281

%%%% DENSITY %%%%%%%%%%%%%%%%%%%%%%%%%%%%%%%%%%%%%%%%%%%%%%%%%%%%%%%%%%%%%%%%%%%
 density label              = vreference                                                                      
 integral of density        =    -0.6635830727E-13

%%%% COMPUTE ELECTROSTATIC POTENTIAL %%%%%%%%%%%%%%%%%%%%%%%%%%%%%%%%%%%%%%%%%%%
 Warning: bad guess with residual norm =   0.361023E+04, reset to no guess
 Iteration #          1
  pAp =    1270.75638370109       rzold =    1269.96956945774       alpha = 
  0.999380829989564     
 delta_qm =   0.680961E-01 delta_en =   0.360579E+04 tol =   0.100000E-04
 Iteration #          2
  pAp =    233.147038906392       rzold =    11.5062077405600       alpha = 
  4.935172153389299E-002
 delta_qm =   0.631835E-01 delta_en =   0.310430E+04 tol =   0.100000E-04
 Iteration #          3
  pAp =    21.3559196939712       rzold =    2.20942126440563       alpha = 
  0.103457088061131     
 delta_qm =   0.438713E-01 delta_en =   0.149664E+04 tol =   0.100000E-04
 Iteration #          4
  pAp =   8.203126601335144E-002  rzold =   7.826766009323650E-002  alpha = 
  0.954119860596783     
 delta_qm =   0.173915E-01 delta_en =   0.235197E+03 tol =   0.100000E-04
 Iteration #          5
  pAp =    1.85993760005708       rzold =   0.353088719609010       alpha = 
  0.189839013737974     
 delta_qm =   0.165116E-01 delta_en =   0.211999E+03 tol =   0.100000E-04
 Iteration #          6
  pAp =   0.432069577676878       rzold =   0.184799115372725       alpha = 
  0.427706843805898     
 delta_qm =   0.127250E-01 delta_en =   0.125913E+03 tol =   0.100000E-04
 Iteration #          7
  pAp =   0.114423504750488       rzold =   5.250821870641917E-002  alpha = 
  0.458893640960559     
 delta_qm =   0.100056E-01 delta_en =   0.778474E+02 tol =   0.100000E-04
 Iteration #          8
  pAp =   3.400417242909767E-002  rzold =   1.795070176175769E-002  alpha = 
  0.527897033788627     
 delta_qm =   0.901356E-02 delta_en =   0.631755E+02 tol =   0.100000E-04
 Iteration #          9
  pAp =   6.935385045719874E-003  rzold =   6.315852026292030E-003  alpha = 
  0.910670710372428     
 delta_qm =   0.667995E-02 delta_en =   0.346979E+02 tol =   0.100000E-04
 Iteration #         10
  pAp =   1.097257424849496E-002  rzold =   6.894100864919127E-003  alpha = 
  0.628302958703127     
 delta_qm =   0.355757E-02 delta_en =   0.984152E+01 tol =   0.100000E-04
 Iteration #         11
  pAp =   7.998809518103486E-003  rzold =   2.789682181397631E-003  alpha = 
  0.348762172056207     
 delta_qm =   0.275946E-02 delta_en =   0.592112E+01 tol =   0.100000E-04
 Iteration #         12
  pAp =   2.535968863016230E-003  rzold =   7.965164364989281E-004  alpha = 
  0.314087624700395     
 delta_qm =   0.222868E-02 delta_en =   0.386236E+01 tol =   0.100000E-04
 Iteration #         13
  pAp =   3.547093054658757E-004  rzold =   2.592195243432990E-004  alpha = 
  0.730794259831553     
 delta_qm =   0.148812E-02 delta_en =   0.172199E+01 tol =   0.100000E-04
 Iteration #         14
  pAp =   3.551926445097827E-004  rzold =   2.370246216402634E-004  alpha = 
  0.667312866141673     
 delta_qm =   0.166443E-02 delta_en =   0.215421E+01 tol =   0.100000E-04
 Iteration #         15
  pAp =   5.322053999944855E-003  rzold =   5.514288624781923E-004  alpha = 
  0.103612038225074     
 delta_qm =   0.207500E-02 delta_en =   0.334805E+01 tol =   0.100000E-04
 Iteration #         16
  pAp =   2.979894505342534E-003  rzold =   7.262119304832371E-004  alpha = 
  0.243703906021250     
 delta_qm =   0.237881E-02 delta_en =   0.440022E+01 tol =   0.100000E-04
 Iteration #         17
  pAp =   3.477018367081249E-004  rzold =   2.709054553496523E-004  alpha = 
  0.779131505068987     
 delta_qm =   0.169743E-02 delta_en =   0.224046E+01 tol =   0.100000E-04
 Iteration #         18
  pAp =   4.864635713965103E-004  rzold =   2.605764501320936E-004  alpha = 
  0.535654600783459     
 delta_qm =   0.828419E-03 delta_en =   0.533649E+00 tol =   0.100000E-04
 Iteration #         19
  pAp =   1.353094158809761E-004  rzold =   8.089190229451865E-005  alpha = 
  0.597829070267176     
 delta_qm =   0.599634E-03 delta_en =   0.279594E+00 tol =   0.100000E-04
 Iteration #         20
  pAp =   6.472299465283540E-005  rzold =   3.418436323319187E-005  alpha = 
  0.528164115652431     
 delta_qm =   0.397439E-03 delta_en =   0.122828E+00 tol =   0.100000E-04
 Iteration #         21
  pAp =   1.312900217259808E-005  rzold =   8.712890994749945E-006  alpha = 
  0.663636952771237     
 delta_qm =   0.178329E-03 delta_en =   0.247286E-01 tol =   0.100000E-04
 Iteration #         22
  pAp =   3.499391592666941E-006  rzold =   2.112443484850768E-006  alpha = 
  0.603660216043682     
 delta_qm =   0.735679E-04 delta_en =   0.420855E-02 tol =   0.100000E-04
 Iteration #         23
  pAp =   1.167364304283255E-006  rzold =   6.322093504832753E-007  alpha = 
  0.541569883680350     
 delta_qm =   0.430399E-04 delta_en =   0.144045E-02 tol =   0.100000E-04
 Iteration #         24
  pAp =   4.650217095558430E-007  rzold =   1.521927079071369E-007  alpha = 
  0.327280866204077     
 delta_qm =   0.331447E-04 delta_en =   0.854247E-03 tol =   0.100000E-04
 Iteration #         25
  pAp =   1.282527256272637E-006  rzold =   2.106300260468578E-007  alpha = 
  0.164230448138002     
 delta_qm =   0.217266E-04 delta_en =   0.367064E-03 tol =   0.100000E-04
 Iteration #         26
  pAp =   7.159442961382019E-008  rzold =   3.693362496005657E-008  alpha = 
  0.515872885073270     
 delta_qm =   0.116479E-04 delta_en =   0.105501E-03 tol =   0.100000E-04
 Iteration #         27
  pAp =   3.728228330484130E-008  rzold =   1.811937996530650E-008  alpha = 
  0.486005103741959     
 delta_qm =   0.781034E-05 delta_en =   0.474348E-04 tol =   0.100000E-04
 Iteration #         28
  pAp =   5.431900523460187E-007  rzold =   2.833700197992103E-008  alpha = 
  5.216774839217787E-002
 delta_qm =   0.842918E-05 delta_en =   0.552493E-04 tol =   0.100000E-04
 Iteration #         29
  pAp =   1.104515772151028E-008  rzold =   5.980024866505975E-009  alpha = 
  0.541415977687667     
 delta_qm =   0.528920E-05 delta_en =   0.217539E-04 tol =   0.100000E-04
 Iteration #         30
  pAp =   3.561094570813476E-009  rzold =   1.951750578758857E-009  alpha = 
  0.548076031104394     
 delta_qm =   0.301356E-05 delta_en =   0.706180E-05 tol =   0.100000E-04
 Charges are converged, EXIT

%%%% DENSITY %%%%%%%%%%%%%%%%%%%%%%%%%%%%%%%%%%%%%%%%%%%%%%%%%%%%%%%%%%%%%%%%%%%
 density label              = velectrostatic                                                                  
 integral of density        =     0.8140390130E-11

%%%% CHARGES %%%%%%%%%%%%%%%%%%%%%%%%%%%%%%%%%%%%%%%%%%%%%%%%%%%%%%%%%%%%%%%%%%%
 total number of charges    =         99
 total charge               =     -1.0000000

%%%% DENSITY %%%%%%%%%%%%%%%%%%%%%%%%%%%%%%%%%%%%%%%%%%%%%%%%%%%%%%%%%%%%%%%%%%%
 density label              = vsoftcavity                                                                     
 integral of density        =      67.30036727    

%%%% ELECTRONS %%%%%%%%%%%%%%%%%%%%%%%%%%%%%%%%%%%%%%%%%%%%%%%%%%%%%%%%%%%%%%%%%
 number of electrons        =         89
 total electronic charge    =     89.0000000

%%%% BOUNDARY %%%%%%%%%%%%%%%%%%%%%%%%%%%%%%%%%%%%%%%%%%%%%%%%%%%%%%%%%%%%%%%%%%
 boundary label             = solvent              
 boundary mode              = full                 
 boundary is built as a function of a smooth density
 function type              =  2 
 using the modified SCCS function with parameters 
 rhomax                     =      0.0050000 
 rhomin                     =      0.0001000 
 volume of the QM region    =   1468.0443326 
 surface of the QM region   =    270.9124591 

%%%% DIELECTRIC %%%%%%%%%%%%%%%%%%%%%%%%%%%%%%%%%%%%%%%%%%%%%%%%%%%%%%%%%%%%%%%%%
 dielectric build on homogeneous background
 environment bulk permitt.  =    100.0000000 
 dielectric flags
 need gradient              =  F 
 need factor depend. sqrt   =  T 
 total dielectric charge    =      0.0123235

%%%% DENSITY %%%%%%%%%%%%%%%%%%%%%%%%%%%%%%%%%%%%%%%%%%%%%%%%%%%%%%%%%%%%%%%%%%%
 density label              = vreference                                                                      
 integral of density        =     0.2430046465E-11

%%%% COMPUTE ELECTROSTATIC POTENTIAL %%%%%%%%%%%%%%%%%%%%%%%%%%%%%%%%%%%%%%%%%%%
 Warning: bad guess with residual norm =   0.290309E+04, reset to no guess
 Iteration #          1
  pAp =    1270.19889442557       rzold =    1269.26823555882       alpha = 
  0.999267312488745     
 delta_qm =   0.610572E-01 delta_en =   0.289888E+04 tol =   0.100000E-04
 Iteration #          2
  pAp =    313.740316941792       rzold =    14.8044052157960       alpha = 
  4.718681156474595E-002
 delta_qm =   0.475036E-01 delta_en =   0.175473E+04 tol =   0.100000E-04
 Iteration #          3
  pAp =    20.5404898455871       rzold =    2.20282070505648       alpha = 
  0.107242851636751     
 delta_qm =   0.354145E-01 delta_en =   0.975254E+03 tol =   0.100000E-04
 Iteration #          4
  pAp =   0.358519866918971       rzold =   9.999169170561482E-002  alpha = 
  0.278901396915373     
 delta_qm =   0.240359E-01 delta_en =   0.449240E+03 tol =   0.100000E-04
 Iteration #          5
  pAp =   0.356850449510511       rzold =   0.194342118840105       alpha = 
  0.544603822432289     
 delta_qm =   0.148149E-01 delta_en =   0.170669E+03 tol =   0.100000E-04
 Iteration #          6
  pAp =   0.338791527607609       rzold =   0.162211749936278       alpha = 
  0.478795178503263     
 delta_qm =   0.803721E-02 delta_en =   0.502304E+02 tol =   0.100000E-04
 Iteration #          7
  pAp =   9.914086914879065E-002  rzold =   4.271116552895800E-002  alpha = 
  0.430812901840280     
 delta_qm =   0.777000E-02 delta_en =   0.469460E+02 tol =   0.100000E-04
 Iteration #          8
  pAp =   2.322201079687995E-002  rzold =   1.378781507106730E-002  alpha = 
  0.593739069009467     
 delta_qm =   0.703144E-02 delta_en =   0.384454E+02 tol =   0.100000E-04
 Iteration #          9
  pAp =   6.549516003537634E-003  rzold =   5.912656650700305E-003  alpha = 
  0.902762379312710     
 delta_qm =   0.516681E-02 delta_en =   0.207587E+02 tol =   0.100000E-04
 Iteration #         10
  pAp =   8.729459863224279E-003  rzold =   6.175081585383446E-003  alpha = 
  0.707384154591054     
 delta_qm =   0.279239E-02 delta_en =   0.606328E+01 tol =   0.100000E-04
 Iteration #         11
  pAp =   6.251126293893511E-003  rzold =   2.912395924804546E-003  alpha = 
  0.465899389626723     
 delta_qm =   0.264770E-02 delta_en =   0.545123E+01 tol =   0.100000E-04
 Iteration #         12
  pAp =   1.477044760551808E-003  rzold =   7.920861679678926E-004  alpha = 
  0.536264160113860     
 delta_qm =   0.237589E-02 delta_en =   0.438943E+01 tol =   0.100000E-04
 Iteration #         13
  pAp =   1.255558662912993E-003  rzold =   8.542661391024521E-004  alpha = 
  0.680387276465831     
 delta_qm =   0.204054E-02 delta_en =   0.323778E+01 tol =   0.100000E-04
 Iteration #         14
  pAp =   1.364085518056568E-003  rzold =   1.145253469222738E-003  alpha = 
  0.839576004629385     
 delta_qm =   0.255007E-02 delta_en =   0.505664E+01 tol =   0.100000E-04
 Iteration #         15
  pAp =   3.072949416578136E-002  rzold =   2.297980619613291E-003  alpha = 
  7.478094521230984E-002
 delta_qm =   0.247764E-02 delta_en =   0.477346E+01 tol =   0.100000E-04
 Iteration #         16
  pAp =   6.633037810943146E-003  rzold =   1.636959093095431E-003  alpha = 
  0.246788747441600     
 delta_qm =   0.224940E-02 delta_en =   0.393452E+01 tol =   0.100000E-04
 Iteration #         17
  pAp =   9.243190109349592E-004  rzold =   4.058126935479733E-004  alpha = 
  0.439039648375823     
 delta_qm =   0.141638E-02 delta_en =   0.155997E+01 tol =   0.100000E-04
 Iteration #         18
  pAp =   6.224426922603879E-004  rzold =   2.501263197260010E-004  alpha = 
  0.401846343183294     
 delta_qm =   0.652693E-03 delta_en =   0.331264E+00 tol =   0.100000E-04
 Iteration #         19
  pAp =   1.123603190981981E-004  rzold =   6.359359661765422E-005  alpha = 
  0.565979138614551     
 delta_qm =   0.415104E-03 delta_en =   0.133989E+00 tol =   0.100000E-04
 Iteration #         20
  pAp =   3.826830563069561E-005  rzold =   2.167542086977249E-005  alpha = 
  0.566406599731614     
 delta_qm =   0.298019E-03 delta_en =   0.690628E-01 tol =   0.100000E-04
 Iteration #         21
  pAp =   9.576595744973631E-006  rzold =   6.146065386549967E-006  alpha = 
  0.641779767071800     
 delta_qm =   0.118801E-03 delta_en =   0.109747E-01 tol =   0.100000E-04
 Iteration #         22
  pAp =   2.933219633422952E-006  rzold =   1.326332614086412E-006  alpha = 
  0.452176372670271     
 delta_qm =   0.565488E-04 delta_en =   0.248658E-02 tol =   0.100000E-04
 Iteration #         23
  pAp =   1.607843903947781E-006  rzold =   5.030593308999392E-007  alpha = 
  0.312878215145615     
 delta_qm =   0.377585E-04 delta_en =   0.110863E-02 tol =   0.100000E-04
 Iteration #         24
  pAp =   3.731103021994724E-006  rzold =   6.291304570476082E-007  alpha = 
  0.168617819807951     
 delta_qm =   0.303734E-04 delta_en =   0.717371E-03 tol =   0.100000E-04
 Iteration #         25
  pAp =   2.207878914616904E-007  rzold =   1.395793928851125E-007  alpha = 
  0.632187716278505     
 delta_qm =   0.250313E-04 delta_en =   0.487217E-03 tol =   0.100000E-04
 Iteration #         26
  pAp =   8.498152208393224E-008  rzold =   5.467970168598835E-008  alpha = 
  0.643430481652044     
 delta_qm =   0.150808E-04 delta_en =   0.176850E-03 tol =   0.100000E-04
 Iteration #         27
  pAp =   4.200704565277851E-008  rzold =   2.468128525264951E-008  alpha = 
  0.587551085040826     
 delta_qm =   0.726182E-05 delta_en =   0.410060E-04 tol =   0.100000E-04
 Iteration #         28
  pAp =   9.561610559862969E-007  rzold =   4.690470647541817E-008  alpha = 
  4.905523623008798E-002
 delta_qm =   0.622684E-05 delta_en =   0.301503E-04 tol =   0.100000E-04
 Iteration #         29
  pAp =   1.087034403065994E-008  rzold =   5.659237632404753E-009  alpha = 
  0.520612559864049     
 delta_qm =   0.388689E-05 delta_en =   0.117479E-04 tol =   0.100000E-04
 Iteration #         30
  pAp =   2.648919393138597E-009  rzold =   1.470367109728092E-009  alpha = 
  0.555081862263054     
 delta_qm =   0.210770E-05 delta_en =   0.345440E-05 tol =   0.100000E-04
 Charges are converged, EXIT

%%%% DENSITY %%%%%%%%%%%%%%%%%%%%%%%%%%%%%%%%%%%%%%%%%%%%%%%%%%%%%%%%%%%%%%%%%%%
 density label              = velectrostatic                                                                  
 integral of density        =     0.4647636506E-12

%%%% CHARGES %%%%%%%%%%%%%%%%%%%%%%%%%%%%%%%%%%%%%%%%%%%%%%%%%%%%%%%%%%%%%%%%%%%
 total number of charges    =         99
 total charge               =     -1.0000000

%%%% DENSITY %%%%%%%%%%%%%%%%%%%%%%%%%%%%%%%%%%%%%%%%%%%%%%%%%%%%%%%%%%%%%%%%%%%
 density label              = vsoftcavity                                                                     
 integral of density        =      58.05514083    

%%%% ELECTRONS %%%%%%%%%%%%%%%%%%%%%%%%%%%%%%%%%%%%%%%%%%%%%%%%%%%%%%%%%%%%%%%%%
 number of electrons        =         89
 total electronic charge    =     89.0000000

%%%% BOUNDARY %%%%%%%%%%%%%%%%%%%%%%%%%%%%%%%%%%%%%%%%%%%%%%%%%%%%%%%%%%%%%%%%%%
 boundary label             = solvent              
 boundary mode              = full                 
 boundary is built as a function of a smooth density
 function type              =  2 
 using the modified SCCS function with parameters 
 rhomax                     =      0.0050000 
 rhomin                     =      0.0001000 
 volume of the QM region    =   1468.9937237 
 surface of the QM region   =    270.8073741 

%%%% DIELECTRIC %%%%%%%%%%%%%%%%%%%%%%%%%%%%%%%%%%%%%%%%%%%%%%%%%%%%%%%%%%%%%%%%%
 dielectric build on homogeneous background
 environment bulk permitt.  =    100.0000000 
 dielectric flags
 need gradient              =  F 
 need factor depend. sqrt   =  T 
 total dielectric charge    =      0.0071600

%%%% DENSITY %%%%%%%%%%%%%%%%%%%%%%%%%%%%%%%%%%%%%%%%%%%%%%%%%%%%%%%%%%%%%%%%%%%
 density label              = vreference                                                                      
 integral of density        =    -0.3301640983E-11

%%%% COMPUTE ELECTROSTATIC POTENTIAL %%%%%%%%%%%%%%%%%%%%%%%%%%%%%%%%%%%%%%%%%%%
 Warning: bad guess with residual norm =   0.321074E+04, reset to no guess
 Iteration #          1
  pAp =    1270.81254151883       rzold =    1269.70832470734       alpha = 
  0.999131093866782     
 delta_qm =   0.642023E-01 delta_en =   0.320521E+04 tol =   0.100000E-04
 Iteration #          2
  pAp =    422.314637587577       rzold =    19.0263555812173       alpha = 
  4.505256007677870E-002
 delta_qm =   0.478834E-01 delta_en =   0.178290E+04 tol =   0.100000E-04
 Iteration #          3
  pAp =    19.0274992422910       rzold =    2.15523555787775       alpha = 
  0.113269512216691     
 delta_qm =   0.360297E-01 delta_en =   0.100944E+04 tol =   0.100000E-04
 Iteration #          4
  pAp =   0.391109970769945       rzold =   0.102587363464532       alpha = 
  0.262298000898768     
 delta_qm =   0.246048E-01 delta_en =   0.470757E+03 tol =   0.100000E-04
 Iteration #          5
  pAp =   0.314263322774194       rzold =   0.184962710105154       alpha = 
  0.588559646325811     
 delta_qm =   0.142953E-01 delta_en =   0.158906E+03 tol =   0.100000E-04
 Iteration #          6
  pAp =   0.327728473271802       rzold =   0.156943353961286       alpha = 
  0.478882266146966     
 delta_qm =   0.887993E-02 delta_en =   0.613163E+02 tol =   0.100000E-04
 Iteration #          7
  pAp =   9.708707260292294E-002  rzold =   4.229105640117679E-002  alpha = 
  0.435599254023687     
 delta_qm =   0.856522E-02 delta_en =   0.570470E+02 tol =   0.100000E-04
 Iteration #          8
  pAp =   2.308628210288004E-002  rzold =   1.434522051228297E-002  alpha = 
  0.621374219042978     
 delta_qm =   0.759739E-02 delta_en =   0.448834E+02 tol =   0.100000E-04
 Iteration #          9
  pAp =   7.215279144641140E-003  rzold =   7.024483448653236E-003  alpha = 
  0.973556713168941     
 delta_qm =   0.569775E-02 delta_en =   0.252443E+02 tol =   0.100000E-04
 Iteration #         10
  pAp =   1.226710690494205E-002  rzold =   8.399325157599077E-003  alpha = 
  0.684703021069723     
 delta_qm =   0.359683E-02 delta_en =   0.100600E+02 tol =   0.100000E-04
 Iteration #         11
  pAp =   1.195327674676304E-002  rzold =   4.859645420204789E-003  alpha = 
  0.406553409843940     
 delta_qm =   0.365097E-02 delta_en =   0.103651E+02 tol =   0.100000E-04
 Iteration #         12
  pAp =   4.505178349402817E-003  rzold =   1.956580794501247E-003  alpha = 
  0.434295968496031     
 delta_qm =   0.347742E-02 delta_en =   0.940308E+01 tol =   0.100000E-04
 Iteration #         13
  pAp =   1.273584956431229E-003  rzold =   1.360880849577537E-003  alpha = 
   1.06854343929354     
 delta_qm =   0.285895E-02 delta_en =   0.635578E+01 tol =   0.100000E-04
 Iteration #         14
  pAp =   2.758668494266248E-003  rzold =   2.156637511421243E-003  alpha = 
  0.781767550506233     
 delta_qm =   0.307427E-02 delta_en =   0.734919E+01 tol =   0.100000E-04
 Iteration #         15
  pAp =   2.058158002109944E-002  rzold =   2.618038388296616E-003  alpha = 
  0.127202983717125     
 delta_qm =   0.294904E-02 delta_en =   0.676267E+01 tol =   0.100000E-04
 Iteration #         16
  pAp =   3.312557778676130E-002  rzold =   3.776797690541899E-003  alpha = 
  0.114014545341796     
 delta_qm =   0.263378E-02 delta_en =   0.539403E+01 tol =   0.100000E-04
 Iteration #         17
  pAp =   1.442603922819329E-003  rzold =   6.043792579085697E-004  alpha = 
  0.418950238765060     
 delta_qm =   0.166063E-02 delta_en =   0.214437E+01 tol =   0.100000E-04
 Iteration #         18
  pAp =   5.348752248323259E-004  rzold =   2.630452662227102E-004  alpha = 
  0.491788091895956     
 delta_qm =   0.660055E-03 delta_en =   0.338779E+00 tol =   0.100000E-04
 Iteration #         19
  pAp =   1.220371551386943E-004  rzold =   6.982804071009940E-005  alpha = 
  0.572186729777012     
 delta_qm =   0.438649E-03 delta_en =   0.149620E+00 tol =   0.100000E-04
 Iteration #         20
  pAp =   4.296988930437347E-005  rzold =   2.451853102055991E-005  alpha = 
  0.570597956324370     
 delta_qm =   0.316208E-03 delta_en =   0.777501E-01 tol =   0.100000E-04
 Iteration #         21
  pAp =   1.033816527855665E-005  rzold =   6.895267923071912E-006  alpha = 
  0.666972111325597     
 delta_qm =   0.126489E-03 delta_en =   0.124412E-01 tol =   0.100000E-04
 Iteration #         22
  pAp =   2.331016023237122E-006  rzold =   1.396231929970854E-006  alpha = 
  0.598979979567829     
 delta_qm =   0.595298E-04 delta_en =   0.275566E-02 tol =   0.100000E-04
 Iteration #         23
  pAp =   2.100182608409087E-006  rzold =   6.207165572054621E-007  alpha = 
  0.295553612681167     
 delta_qm =   0.457959E-04 delta_en =   0.163083E-02 tol =   0.100000E-04
 Iteration #         24
  pAp =   4.348907163583125E-006  rzold =   9.154289875516937E-007  alpha = 
  0.210496327725115     
 delta_qm =   0.423408E-04 delta_en =   0.139404E-02 tol =   0.100000E-04
 Iteration #         25
  pAp =   3.064516417712418E-007  rzold =   1.968063278295490E-007  alpha = 
  0.642210061894398     
 delta_qm =   0.297788E-04 delta_en =   0.689557E-03 tol =   0.100000E-04
 Iteration #         26
  pAp =   1.276158750409173E-007  rzold =   7.506162079303265E-008  alpha = 
  0.588184038772337     
 delta_qm =   0.159841E-04 delta_en =   0.198670E-03 tol =   0.100000E-04
 Iteration #         27
  pAp =   7.450250193291438E-008  rzold =   3.615810456110677E-008  alpha = 
  0.485327386638173     
 delta_qm =   0.744517E-05 delta_en =   0.431028E-04 tol =   0.100000E-04
 Iteration #         28
  pAp =   7.869244800719591E-008  rzold =   9.581362601284494E-009  alpha = 
  0.121757078905568     
 delta_qm =   0.691388E-05 delta_en =   0.371707E-04 tol =   0.100000E-04
 Iteration #         29
  pAp =   9.237792762418200E-008  rzold =   1.586266685538315E-008  alpha = 
  0.171714902719151     
 delta_qm =   0.450844E-05 delta_en =   0.158055E-04 tol =   0.100000E-04
 Iteration #         30
  pAp =   3.189021680657800E-009  rzold =   1.725579210792329E-009  alpha = 
  0.541099868106382     
 delta_qm =   0.212386E-05 delta_en =   0.350757E-05 tol =   0.100000E-04
 Charges are converged, EXIT

%%%% DENSITY %%%%%%%%%%%%%%%%%%%%%%%%%%%%%%%%%%%%%%%%%%%%%%%%%%%%%%%%%%%%%%%%%%%
 density label              = velectrostatic                                                                  
 integral of density        =     0.4071723288E-12

%%%% CHARGES %%%%%%%%%%%%%%%%%%%%%%%%%%%%%%%%%%%%%%%%%%%%%%%%%%%%%%%%%%%%%%%%%%%
 total number of charges    =         99
 total charge               =     -1.0000000

%%%% DENSITY %%%%%%%%%%%%%%%%%%%%%%%%%%%%%%%%%%%%%%%%%%%%%%%%%%%%%%%%%%%%%%%%%%%
 density label              = vsoftcavity                                                                     
 integral of density        =      60.40305092    

%%%% ELECTRONS %%%%%%%%%%%%%%%%%%%%%%%%%%%%%%%%%%%%%%%%%%%%%%%%%%%%%%%%%%%%%%%%%
 number of electrons        =         89
 total electronic charge    =     89.0000000

%%%% BOUNDARY %%%%%%%%%%%%%%%%%%%%%%%%%%%%%%%%%%%%%%%%%%%%%%%%%%%%%%%%%%%%%%%%%%
 boundary label             = solvent              
 boundary mode              = full                 
 boundary is built as a function of a smooth density
 function type              =  2 
 using the modified SCCS function with parameters 
 rhomax                     =      0.0050000 
 rhomin                     =      0.0001000 
 volume of the QM region    =   1469.9417653 
 surface of the QM region   =    270.4880680 

%%%% DIELECTRIC %%%%%%%%%%%%%%%%%%%%%%%%%%%%%%%%%%%%%%%%%%%%%%%%%%%%%%%%%%%%%%%%%
 dielectric build on homogeneous background
[...]
  0.675594397379302     
 delta_qm =   0.105733E-03 delta_en =   0.869323E-02 tol =   0.100000E-04
 Iteration #         22
  pAp =   3.319113033260180E-006  rzold =   1.332415400973247E-006  alpha = 
  0.401437187471886     
 delta_qm =   0.714659E-04 delta_en =   0.397150E-02 tol =   0.100000E-04
 Iteration #         23
  pAp =   1.324165445454576E-005  rzold =   2.161267837063100E-006  alpha = 
  0.163217356598605     
 delta_qm =   0.574077E-04 delta_en =   0.256269E-02 tol =   0.100000E-04
 Iteration #         24
  pAp =   7.492056519675931E-007  rzold =   4.807678844600799E-007  alpha = 
  0.641703493823717     
 delta_qm =   0.455905E-04 delta_en =   0.161624E-02 tol =   0.100000E-04
 Iteration #         25
  pAp =   3.813475605703378E-007  rzold =   2.283842756372760E-007  alpha = 
  0.598887469728947     
 delta_qm =   0.287981E-04 delta_en =   0.644888E-03 tol =   0.100000E-04
 Iteration #         26
  pAp =   1.413517097293254E-007  rzold =   7.197415066541772E-008  alpha = 
  0.509184860963062     
 delta_qm =   0.144445E-04 delta_en =   0.162242E-03 tol =   0.100000E-04
 Iteration #         27
  pAp =   4.764491886102712E-008  rzold =   2.477060294660364E-008  alpha = 
  0.519900202136049     
 delta_qm =   0.583263E-05 delta_en =   0.264536E-04 tol =   0.100000E-04
 Iteration #         28
  pAp =   2.074561234154018E-007  rzold =   1.319103138480968E-008  alpha = 
  6.358468078764053E-002
 delta_qm =   0.524443E-05 delta_en =   0.213871E-04 tol =   0.100000E-04
 Iteration #         29
  pAp =   2.059801265184137E-008  rzold =   6.815593520816503E-009  alpha = 
  0.330885976041345     
 delta_qm =   0.355371E-05 delta_en =   0.982018E-05 tol =   0.100000E-04
 Charges are converged, EXIT

%%%% DENSITY %%%%%%%%%%%%%%%%%%%%%%%%%%%%%%%%%%%%%%%%%%%%%%%%%%%%%%%%%%%%%%%%%%%
 density label              = velectrostatic                                                                  
 integral of density        =     0.2821300800E-11

%%%% CHARGES %%%%%%%%%%%%%%%%%%%%%%%%%%%%%%%%%%%%%%%%%%%%%%%%%%%%%%%%%%%%%%%%%%%
 total number of charges    =         99
 total charge               =     -1.0000000

%%%% DENSITY %%%%%%%%%%%%%%%%%%%%%%%%%%%%%%%%%%%%%%%%%%%%%%%%%%%%%%%%%%%%%%%%%%%
 density label              = vsoftcavity                                                                     
 integral of density        =      60.21097886    

%%%% ELECTRONS %%%%%%%%%%%%%%%%%%%%%%%%%%%%%%%%%%%%%%%%%%%%%%%%%%%%%%%%%%%%%%%%%
 number of electrons        =         89
 total electronic charge    =     89.0000000

%%%% BOUNDARY %%%%%%%%%%%%%%%%%%%%%%%%%%%%%%%%%%%%%%%%%%%%%%%%%%%%%%%%%%%%%%%%%%
 boundary label             = solvent              
 boundary mode              = full                 
 boundary is built as a function of a smooth density
 function type              =  2 
 using the modified SCCS function with parameters 
 rhomax                     =      0.0050000 
 rhomin                     =      0.0001000 
 volume of the QM region    =   1471.0735507 
 surface of the QM region   =    271.7041617 

%%%% DIELECTRIC %%%%%%%%%%%%%%%%%%%%%%%%%%%%%%%%%%%%%%%%%%%%%%%%%%%%%%%%%%%%%%%%%
 dielectric build on homogeneous background
 environment bulk permitt.  =    100.0000000 
 dielectric flags
 need gradient              =  F 
 need factor depend. sqrt   =  T 
 total dielectric charge    =      0.0052261

%%%% DENSITY %%%%%%%%%%%%%%%%%%%%%%%%%%%%%%%%%%%%%%%%%%%%%%%%%%%%%%%%%%%%%%%%%%%
 density label              = vreference                                                                      
 integral of density        =    -0.2988164243E-11

%%%% COMPUTE ELECTROSTATIC POTENTIAL %%%%%%%%%%%%%%%%%%%%%%%%%%%%%%%%%%%%%%%%%%%
 Warning: bad guess with residual norm =   0.339537E+04, reset to no guess
 Iteration #          1
  pAp =    1271.23318899436       rzold =    1269.88814379471       alpha = 
  0.998941936686920     
 delta_qm =   0.660102E-01 delta_en =   0.338827E+04 tol =   0.100000E-04
 Iteration #          2
  pAp =    552.537289187122       rzold =    24.4141142473782       alpha = 
  4.418545992306803E-002
 delta_qm =   0.445066E-01 delta_en =   0.154030E+04 tol =   0.100000E-04
 Iteration #          3
  pAp =    18.3810580246681       rzold =    2.14258591883848       alpha = 
  0.116564885218416     
 delta_qm =   0.351401E-01 delta_en =   0.960199E+03 tol =   0.100000E-04
 Iteration #          4
  pAp =   0.696410611119678       rzold =   0.132491215798011       alpha = 
  0.190248703397833     
 delta_qm =   0.253924E-01 delta_en =   0.501376E+03 tol =   0.100000E-04
 Iteration #          5
  pAp =   0.187074079199077       rzold =   0.137437487592779       alpha = 
  0.734668791000827     
 delta_qm =   0.150569E-01 delta_en =   0.176289E+03 tol =   0.100000E-04
 Iteration #          6
  pAp =   0.305943752579130       rzold =   0.156655797604215       alpha = 
  0.512041171893833     
 delta_qm =   0.810013E-02 delta_en =   0.510199E+02 tol =   0.100000E-04
 Iteration #          7
  pAp =   0.102687606892699       rzold =   4.297519072878471E-002  alpha = 
  0.418504160620769     
 delta_qm =   0.794971E-02 delta_en =   0.491426E+02 tol =   0.100000E-04
 Iteration #          8
  pAp =   2.032025057448874E-002  rzold =   1.309229155865677E-002  alpha = 
  0.644297741834622     
 delta_qm =   0.695938E-02 delta_en =   0.376614E+02 tol =   0.100000E-04
 Iteration #          9
  pAp =   8.492844560775301E-003  rzold =   7.149582075992923E-003  alpha = 
  0.841835974369964     
 delta_qm =   0.530676E-02 delta_en =   0.218985E+02 tol =   0.100000E-04
 Iteration #         10
  pAp =   1.521352629374853E-002  rzold =   8.712889519633229E-003  alpha = 
  0.572706771027404     
 delta_qm =   0.345348E-02 delta_en =   0.927405E+01 tol =   0.100000E-04
 Iteration #         11
  pAp =   1.579691687316419E-002  rzold =   6.567159525244694E-003  alpha = 
  0.415724130092815     
 delta_qm =   0.326271E-02 delta_en =   0.827774E+01 tol =   0.100000E-04
 Iteration #         12
  pAp =   4.128022529509098E-003  rzold =   2.163096693993580E-003  alpha = 
  0.524003122204571     
 delta_qm =   0.335101E-02 delta_en =   0.873190E+01 tol =   0.100000E-04
 Iteration #         13
  pAp =   1.045632722790473E-003  rzold =   1.188130585546758E-003  alpha = 
   1.13627907739536     
 delta_qm =   0.260667E-02 delta_en =   0.528360E+01 tol =   0.100000E-04
 Iteration #         14
  pAp =   2.663079666295749E-003  rzold =   1.994251723546967E-003  alpha = 
  0.748851695571279     
 delta_qm =   0.250240E-02 delta_en =   0.486934E+01 tol =   0.100000E-04
 Iteration #         15
  pAp =   5.023258235553744E-002  rzold =   3.670625918999377E-003  alpha = 
  7.307261038302446E-002
 delta_qm =   0.233474E-02 delta_en =   0.423870E+01 tol =   0.100000E-04
 Iteration #         16
  pAp =   1.078177518985087E-002  rzold =   2.254988589680846E-003  alpha = 
  0.209148173651730     
 delta_qm =   0.206510E-02 delta_en =   0.331619E+01 tol =   0.100000E-04
 Iteration #         17
  pAp =   1.277406438441841E-003  rzold =   5.078925753636544E-004  alpha = 
  0.397596692860867     
 delta_qm =   0.140688E-02 delta_en =   0.153911E+01 tol =   0.100000E-04
 Iteration #         18
  pAp =   3.587008362487469E-004  rzold =   1.981590242029573E-004  alpha = 
  0.552435356090279     
 delta_qm =   0.614010E-03 delta_en =   0.293162E+00 tol =   0.100000E-04
 Iteration #         19
  pAp =   1.069302425886759E-004  rzold =   6.400340970376716E-005  alpha = 
  0.598552927163613     
 delta_qm =   0.389258E-03 delta_en =   0.117823E+00 tol =   0.100000E-04
 Iteration #         20
  pAp =   3.432983768901769E-005  rzold =   2.000662509965524E-005  alpha = 
  0.582776571240693     
 delta_qm =   0.275504E-03 delta_en =   0.590216E-01 tol =   0.100000E-04
 Iteration #         21
  pAp =   7.850753858619459E-006  rzold =   5.312152975384839E-006  alpha = 
  0.676642405436332     
 delta_qm =   0.105992E-03 delta_en =   0.873572E-02 tol =   0.100000E-04
 Iteration #         22
  pAp =   2.756670981830643E-006  rzold =   1.289908778777790E-006  alpha = 
  0.467922645567659     
 delta_qm =   0.667657E-04 delta_en =   0.346627E-02 tol =   0.100000E-04
 Iteration #         23
  pAp =   1.337091054605963E-005  rzold =   1.958626668763560E-006  alpha = 
  0.146484165159624     
 delta_qm =   0.577568E-04 delta_en =   0.259395E-02 tol =   0.100000E-04
 Iteration #         24
  pAp =   8.160987256162744E-007  rzold =   5.015992206570280E-007  alpha = 
  0.614630564798697     
 delta_qm =   0.456804E-04 delta_en =   0.162262E-02 tol =   0.100000E-04
 Iteration #         25
  pAp =   3.833979773382173E-007  rzold =   2.292972460899735E-007  alpha = 
  0.598065873174123     
 delta_qm =   0.288129E-04 delta_en =   0.645552E-03 tol =   0.100000E-04
 Iteration #         26
  pAp =   1.411728942381206E-007  rzold =   7.193510546141209E-008  alpha = 
  0.509553238598884     
 delta_qm =   0.144376E-04 delta_en =   0.162086E-03 tol =   0.100000E-04
 Iteration #         27
  pAp =   5.856490663848435E-008  rzold =   2.521416096672993E-008  alpha = 
  0.430533614991902     
 delta_qm =   0.712801E-05 delta_en =   0.395087E-04 tol =   0.100000E-04
 Iteration #         28
  pAp =   9.849057417543485E-007  rzold =   5.230823409268737E-008  alpha = 
  5.310988846456933E-002
 delta_qm =   0.533664E-05 delta_en =   0.221459E-04 tol =   0.100000E-04
 Iteration #         29
  pAp =   1.028634927670434E-008  rzold =   4.926487306588957E-009  alpha = 
  0.478934476563619     
 delta_qm =   0.355247E-05 delta_en =   0.981336E-05 tol =   0.100000E-04
 Charges are converged, EXIT

%%%% DENSITY %%%%%%%%%%%%%%%%%%%%%%%%%%%%%%%%%%%%%%%%%%%%%%%%%%%%%%%%%%%%%%%%%%%
 density label              = velectrostatic                                                                  
 integral of density        =    -0.1506244031E-11

%%%% CHARGES %%%%%%%%%%%%%%%%%%%%%%%%%%%%%%%%%%%%%%%%%%%%%%%%%%%%%%%%%%%%%%%%%%%
 total number of charges    =         99
 total charge               =     -1.0000000

%%%% DENSITY %%%%%%%%%%%%%%%%%%%%%%%%%%%%%%%%%%%%%%%%%%%%%%%%%%%%%%%%%%%%%%%%%%%
 density label              = vsoftcavity                                                                     
 integral of density        =      60.22208593    

%%%% ELECTRONS %%%%%%%%%%%%%%%%%%%%%%%%%%%%%%%%%%%%%%%%%%%%%%%%%%%%%%%%%%%%%%%%%
 number of electrons        =         89
 total electronic charge    =     89.0000000

%%%% BOUNDARY %%%%%%%%%%%%%%%%%%%%%%%%%%%%%%%%%%%%%%%%%%%%%%%%%%%%%%%%%%%%%%%%%%
 boundary label             = solvent              
 boundary mode              = full                 
 boundary is built as a function of a smooth density
 function type              =  2 
 using the modified SCCS function with parameters 
 rhomax                     =      0.0050000 
 rhomin                     =      0.0001000 
 volume of the QM region    =   1471.0719605 
 surface of the QM region   =    271.7298443 

%%%% DIELECTRIC %%%%%%%%%%%%%%%%%%%%%%%%%%%%%%%%%%%%%%%%%%%%%%%%%%%%%%%%%%%%%%%%%
 dielectric build on homogeneous background
 environment bulk permitt.  =    100.0000000 
 dielectric flags
 need gradient              =  F 
 need factor depend. sqrt   =  T 
 total dielectric charge    =      0.0053137

%%%% DENSITY %%%%%%%%%%%%%%%%%%%%%%%%%%%%%%%%%%%%%%%%%%%%%%%%%%%%%%%%%%%%%%%%%%%
 density label              = vreference                                                                      
 integral of density        =    -0.5641288283E-11

%%%% COMPUTE ELECTROSTATIC POTENTIAL %%%%%%%%%%%%%%%%%%%%%%%%%%%%%%%%%%%%%%%%%%%
 Warning: bad guess with residual norm =   0.338875E+04, reset to no guess
 Iteration #          1
  pAp =    1271.23285285588       rzold =    1269.89076216976       alpha = 
  0.998944260539597     
 delta_qm =   0.659460E-01 delta_en =   0.338168E+04 tol =   0.100000E-04
 Iteration #          2
  pAp =    550.263992032851       rzold =    24.3276085363596       alpha = 
  4.421079497948909E-002
 delta_qm =   0.445292E-01 delta_en =   0.154186E+04 tol =   0.100000E-04
 Iteration #          3
  pAp =    18.4356362186307       rzold =    2.14691562938610       alpha = 
  0.116454653581007     
 delta_qm =   0.351497E-01 delta_en =   0.960726E+03 tol =   0.100000E-04
 Iteration #          4
  pAp =   0.697769270496113       rzold =   0.132650577801645       alpha = 
  0.190106649017849     
 delta_qm =   0.253999E-01 delta_en =   0.501674E+03 tol =   0.100000E-04
 Iteration #          5
  pAp =   0.187163129982738       rzold =   0.137370395061929       alpha = 
  0.733960770342953     
 delta_qm =   0.150839E-01 delta_en =   0.176922E+03 tol =   0.100000E-04
 Iteration #          6
  pAp =   0.305702552870965       rzold =   0.156721840704866       alpha = 
  0.512661210163387     
 delta_qm =   0.809704E-02 delta_en =   0.509810E+02 tol =   0.100000E-04
 Iteration #          7
  pAp =   0.102954272612353       rzold =   4.305451633903182E-002  alpha = 
  0.418190670931572     
 delta_qm =   0.794585E-02 delta_en =   0.490950E+02 tol =   0.100000E-04
 Iteration #          8
  pAp =   2.034619946617631E-002  rzold =   1.309903176697694E-002  alpha = 
  0.643807301149921     
 delta_qm =   0.695812E-02 delta_en =   0.376479E+02 tol =   0.100000E-04
 Iteration #          9
  pAp =   8.510875721093688E-003  rzold =   7.148726696941166E-003  alpha = 
  0.839951954558975     
 delta_qm =   0.530900E-02 delta_en =   0.219170E+02 tol =   0.100000E-04
 Iteration #         10
  pAp =   1.523545168250703E-002  rzold =   8.710517920609976E-003  alpha = 
  0.571726923633723     
 delta_qm =   0.345539E-02 delta_en =   0.928430E+01 tol =   0.100000E-04
 Iteration #         11
  pAp =   1.576854040038560E-002  rzold =   6.568025251286816E-003  alpha = 
  0.416527153719707     
 delta_qm =   0.325681E-02 delta_en =   0.824787E+01 tol =   0.100000E-04
 Iteration #         12
  pAp =   4.120598087447918E-003  rzold =   2.160627318070404E-003  alpha = 
  0.524347988378693     
 delta_qm =   0.334779E-02 delta_en =   0.871509E+01 tol =   0.100000E-04
 Iteration #         13
  pAp =   1.045754296005888E-003  rzold =   1.184360542982251E-003  alpha = 
   1.13254188627840     
 delta_qm =   0.260669E-02 delta_en =   0.528367E+01 tol =   0.100000E-04
 Iteration #         14
  pAp =   2.648736437071039E-003  rzold =   1.991415939469336E-003  alpha = 
  0.751836200687236     
 delta_qm =   0.249249E-02 delta_en =   0.483084E+01 tol =   0.100000E-04
 Iteration #         15
  pAp =   4.358603909575512E-002  rzold =   3.405363755005465E-003  alpha = 
  7.812969073707633E-002
 delta_qm =   0.232768E-02 delta_en =   0.421312E+01 tol =   0.100000E-04
 Iteration #         16
  pAp =   1.253870699363948E-002  rzold =   2.424900790956821E-003  alpha = 
  0.193393209697531     
 delta_qm =   0.207094E-02 delta_en =   0.333497E+01 tol =   0.100000E-04
 Iteration #         17
  pAp =   1.277182867615163E-003  rzold =   5.114455214425454E-004  alpha = 
  0.400448153832152     
 delta_qm =   0.141111E-02 delta_en =   0.154838E+01 tol =   0.100000E-04
 Iteration #         18
  pAp =   3.574491000270409E-004  rzold =   1.984891030738498E-004  alpha = 
  0.555293335635295     
 delta_qm =   0.616544E-03 delta_en =   0.295586E+00 tol =   0.100000E-04
 Iteration #         19
  pAp =   1.073239049629988E-004  rzold =   6.433803807558002E-005  alpha = 
  0.599475374081490     
 delta_qm =   0.390328E-03 delta_en =   0.118472E+00 tol =   0.100000E-04
 Iteration #         20
  pAp =   3.448194372005069E-005  rzold =   2.010143139467316E-005  alpha = 
  0.582955286913960     
 delta_qm =   0.275944E-03 delta_en =   0.592103E-01 tol =   0.100000E-04
 Iteration #         21
  pAp =   7.878547337221744E-006  rzold =   5.338866364886378E-006  alpha = 
  0.677646035032780     
 delta_qm =   0.107147E-03 delta_en =   0.892718E-02 tol =   0.100000E-04
 Iteration #         22
  pAp =   1.907282920034433E-006  rzold =   1.225863727635557E-006  alpha = 
  0.642727785562839     
 delta_qm =   0.613210E-04 delta_en =   0.292398E-02 tol =   0.100000E-04
 Iteration #         23
  pAp =   1.492121471985149E-006  rzold =   5.894858567832917E-007  alpha = 
  0.395065594759539     
 delta_qm =   0.462224E-04 delta_en =   0.166135E-02 tol =   0.100000E-04
 Iteration #         24
  pAp =   5.754708534244086E-006  rzold =   1.013817331955930E-006  alpha = 
  0.176171794961133     
 delta_qm =   0.467571E-04 delta_en =   0.170001E-02 tol =   0.100000E-04
 Iteration #         25
  pAp =   4.457003853505727E-007  rzold =   2.469425122478051E-007  alpha = 
  0.554054966888953     
 delta_qm =   0.290718E-04 delta_en =   0.657202E-03 tol =   0.100000E-04
 Iteration #         26
  pAp =   1.459299972582753E-007  rzold =   7.403045138710966E-008  alpha = 
  0.507301122305144     
 delta_qm =   0.146388E-04 delta_en =   0.166635E-03 tol =   0.100000E-04
 Iteration #         27
  pAp =   5.676158436540790E-008  rzold =   2.538561002132676E-008  alpha = 
  0.447232231184820     
 delta_qm =   0.702832E-05 delta_en =   0.384113E-04 tol =   0.100000E-04
 Iteration #         28
  pAp =   9.506046099935070E-007  rzold =   4.960553662464543E-008  alpha = 
  5.218314334177725E-002
 delta_qm =   0.536676E-05 delta_en =   0.223965E-04 tol =   0.100000E-04
 Iteration #         29
  pAp =   1.051433640238728E-008  rzold =   5.009749500483416E-009  alpha = 
  0.476468443538287     
 delta_qm =   0.356788E-05 delta_en =   0.989866E-05 tol =   0.100000E-04
 Charges are converged, EXIT

%%%% DENSITY %%%%%%%%%%%%%%%%%%%%%%%%%%%%%%%%%%%%%%%%%%%%%%%%%%%%%%%%%%%%%%%%%%%
 density label              = velectrostatic                                                                  
 integral of density        =    -0.3169657437E-11

%%%% CHARGES %%%%%%%%%%%%%%%%%%%%%%%%%%%%%%%%%%%%%%%%%%%%%%%%%%%%%%%%%%%%%%%%%%%
 total number of charges    =         99
 total charge               =     -1.0000000

%%%% DENSITY %%%%%%%%%%%%%%%%%%%%%%%%%%%%%%%%%%%%%%%%%%%%%%%%%%%%%%%%%%%%%%%%%%%
 density label              = vsoftcavity                                                                     
 integral of density        =      60.23114726    

%%%% ELECTRONS %%%%%%%%%%%%%%%%%%%%%%%%%%%%%%%%%%%%%%%%%%%%%%%%%%%%%%%%%%%%%%%%%
 number of electrons        =         89
 total electronic charge    =     89.0000000

%%%% BOUNDARY %%%%%%%%%%%%%%%%%%%%%%%%%%%%%%%%%%%%%%%%%%%%%%%%%%%%%%%%%%%%%%%%%%
 boundary label             = solvent              
 boundary mode              = full                 
 boundary is built as a function of a smooth density
 function type              =  2 
 using the modified SCCS function with parameters 
 rhomax                     =      0.0050000 
 rhomin                     =      0.0001000 
 volume of the QM region    =   1471.0719605 
 surface of the QM region   =    271.7298443 

%%%% DIELECTRIC %%%%%%%%%%%%%%%%%%%%%%%%%%%%%%%%%%%%%%%%%%%%%%%%%%%%%%%%%%%%%%%%%
 dielectric build on homogeneous background
 environment bulk permitt.  =    100.0000000 
 dielectric flags
 need gradient              =  F 
 need factor depend. sqrt   =  T 
 total dielectric charge    =      0.0053450

%%%% DENSITY %%%%%%%%%%%%%%%%%%%%%%%%%%%%%%%%%%%%%%%%%%%%%%%%%%%%%%%%%%%%%%%%%%%
 density label              = vreference                                                                      
 integral of density        =    -0.5641288283E-11

%%%% DENSITY %%%%%%%%%%%%%%%%%%%%%%%%%%%%%%%%%%%%%%%%%%%%%%%%%%%%%%%%%%%%%%%%%%%
 density label              = velectrostatic                                                                  
 integral of density        =    -0.3169657437E-11

%%%% CHARGES %%%%%%%%%%%%%%%%%%%%%%%%%%%%%%%%%%%%%%%%%%%%%%%%%%%%%%%%%%%%%%%%%%%
 total number of charges    =         99
 total charge               =     -1.0000000

%%%% DENSITY %%%%%%%%%%%%%%%%%%%%%%%%%%%%%%%%%%%%%%%%%%%%%%%%%%%%%%%%%%%%%%%%%%%
 density label              = vsoftcavity                                                                     
 integral of density        =      60.23114726    
