
     Program PWSCF v.6.1 (svn rev. 13369) starts on 14Nov2017 at 16:46:53 

     This program is part of the open-source Quantum ESPRESSO suite
     for quantum simulation of materials; please cite
         "P. Giannozzi et al., J. Phys.:Condens. Matter 21 395502 (2009);
          URL http://www.quantum-espresso.org", 
     in publications or presentations arising from this work. More details at
     http://www.quantum-espresso.org/quote

     Parallel version (MPI), running on     1 processors
     Reading input from slab.in

     Current dimensions of program PWSCF are:
     Max number of different atomic species (ntypx) = 10
     Max number of k-points (npk) =  40000
     Max angular momentum in pseudopotentials (lmaxx) =  3
               file C.pbe-rrkjus.UPF: wavefunction(s)  2S 2P renormalized
               file O.pbe-rrkjus.UPF: wavefunction(s)  2S renormalized

     gamma-point specific algorithms are used

     Subspace diagonalization in iterative solution of the eigenvalue problem:
     a serial algorithm will be used

 
     G-vector sticks info
     --------------------
     sticks:   dense  smooth     PW     G-vecs:    dense   smooth      PW
     Sum        2357    1099    269               366833   116965   14571
 


     bravais-lattice index     =            8
     lattice parameter (alat)  =      10.6881  a.u.
     unit-cell volume          =    4181.1215 (a.u.)^3
     number of atoms/cell      =           10
     number of atomic types    =            3
     number of electrons       =        89.00
     number of Kohn-Sham states=           80
     kinetic-energy cutoff     =      35.0000  Ry
     charge density cutoff     =     300.0000  Ry
     convergence threshold     =      5.0E-03
     mixing beta               =       0.7000
     number of iterations used =            8  plain     mixing
     Exchange-correlation      = PBE ( 1  4  3  4 0 0)
 

     Environ Module
     ==============

     Plese cite
         O. Andreussi, I. Dabo and N. Marzari, J. Chem. Phys. 136, 064102 (2012)         
     in publications or presentations arising from this work.

     compensation onset threshold      =               0.1000E+03 

     Electrostatic Setup
     -------------------
     electrostatic problem to solve    = poisson                  
     numerical solver adopted          = direct                   
     type of auxiliary density adopted = none                     
     type of core tool for poisson     = fft                      
     type of core tool for s(r) deriv  = analytic                 



     celldm(1)=  10.688100  celldm(2)=   0.866025  celldm(3)=   3.954220
     celldm(4)=   0.000000  celldm(5)=   0.000000  celldm(6)=   0.000000

     crystal axes: (cart. coord. in units of alat)
               a(1) = (   1.000000   0.000000   0.000000 )  
               a(2) = (   0.000000   0.866025   0.000000 )  
               a(3) = (   0.000000   0.000000   3.954220 )  

     reciprocal axes: (cart. coord. in units 2 pi/alat)
               b(1) = (  1.000000  0.000000  0.000000 )  
               b(2) = (  0.000000  1.154701  0.000000 )  
               b(3) = (  0.000000  0.000000  0.252894 )  


     PseudoPot. # 1 for C  read from file:
     /home/andreo/PWSCF/espresso-6.1-Environ-1.0/Environ/tests/../..//pseudo/C.pbe-rrkjus.UPF
     MD5 check sum: 00fb224312de0c5b6853bd333518df6f
     Pseudo is Ultrasoft, Zval =  4.0
     Generated by new atomic code, or converted to UPF format
     Using radial grid of  627 points,  4 beta functions with: 
                l(1) =   0
                l(2) =   0
                l(3) =   1
                l(4) =   1
     Q(r) pseudized with 0 coefficients 


     PseudoPot. # 2 for O  read from file:
     /home/andreo/PWSCF/espresso-6.1-Environ-1.0/Environ/tests/../..//pseudo/O.pbe-rrkjus.UPF
     MD5 check sum: 390ba29e75625707450f3bd3f0eb6be9
     Pseudo is Ultrasoft, Zval =  6.0
     Generated by new atomic code, or converted to UPF format
     Using radial grid of 1269 points,  4 beta functions with: 
                l(1) =   0
                l(2) =   0
                l(3) =   1
                l(4) =   1
     Q(r) pseudized with 0 coefficients 


     PseudoPot. # 3 for Pt read from file:
     /home/andreo/PWSCF/espresso-6.1-Environ-1.0/Environ/tests/../..//pseudo/Pt.pbe-n-rrkjus_psl.0.1.UPF
     MD5 check sum: df5be8f5ed4f66d4aed38ca70ec8d507
     Pseudo is Ultrasoft + core correction, Zval = 10.0
     Generated using "atomic" code by A. Dal Corso  v.5.0.2 svn rev. 9415
     Using radial grid of 1277 points,  6 beta functions with: 
                l(1) =   0
                l(2) =   0
                l(3) =   1
                l(4) =   1
                l(5) =   2
                l(6) =   2
     Q(r) pseudized with 0 coefficients 


     atomic species   valence    mass     pseudopotential
        C              4.00     1.00000     C ( 1.00)
        O              6.00     1.00000     O ( 1.00)
        Pt            10.00     1.00000     Pt( 1.00)

     No symmetry found



   Cartesian axes

     site n.     atom                  positions (alat units)
         1           C   tau(   1) = (   0.4991611   0.4347567   0.7762281  )
         2           O   tau(   2) = (   0.4991542   0.4322212   0.9800832  )
         3           Pt  tau(   3) = (   0.7542339   0.0091745   0.4105048  )
         4           Pt  tau(   4) = (   0.2441023   0.0091745   0.4105046  )
         5           Pt  tau(   5) = (   0.0000034   0.4416918   0.4083168  )
         6           Pt  tau(   6) = (   0.4991682   0.4417635   0.4468119  )
         7           Pt  tau(   7) = (   0.0000038   0.7300598   0.0000000  )
         8           Pt  tau(   8) = (   0.4991683   0.7202168   0.0139279  )
         9           Pt  tau(   9) = (   0.2524172   0.2949237   0.0078392  )
        10           Pt  tau(  10) = (   0.7459196   0.2949237   0.0078394  )

     number of k points=     1  Marzari-Vanderbilt smearing, width (Ry)=  0.0300
                       cart. coord. in units 2pi/alat
        k(    1) = (   0.0000000   0.0000000   0.0000000), wk =   2.0000000

     Dense  grid:   183417 G-vectors     FFT dimensions: (  60,  54, 240)

     Smooth grid:    58483 G-vectors     FFT dimensions: (  45,  36, 160)

     Estimated max dynamical RAM per process >     231.32MB

     Initial potential from superposition of free atoms
     Check: negative starting charge=   -0.003083

     starting charge   89.99859, renormalised to   89.00000

     negative rho (up, down):  3.049E-03 0.000E+00
     Starting wfc are   80 randomized atomic wfcs

     total cpu time spent up to now is        6.2 secs

     per-process dynamical memory:   193.5 Mb

     Self-consistent Calculation

     iteration #  1     ecut=    35.00 Ry     beta=0.70
     Davidson diagonalization with overlap
     ethr =  1.00E-02,  avg # of iterations =  5.0

     negative rho (up, down):  2.886E-03 0.000E+00

     add environment contribution to local potential

     total cpu time spent up to now is       10.2 secs

     total energy              =    -622.75590451 Ry
     Harris-Foulkes estimate   =    -624.21130265 Ry
     estimated scf accuracy    <       1.86638633 Ry
     electrostatic embedding   =      -0.03381190 Ry
     correction to one-el term =       0.00000000 Ry

     iteration #  2     ecut=    35.00 Ry     beta=0.70
     Davidson diagonalization with overlap
     ethr =  2.10E-03,  avg # of iterations =  5.0

     negative rho (up, down):  2.255E-02 0.000E+00

     add environment contribution to local potential

     total cpu time spent up to now is       14.3 secs

     total energy              =    -616.93483417 Ry
     Harris-Foulkes estimate   =    -615.08302988 Ry
     estimated scf accuracy    <      85.04743307 Ry
     electrostatic embedding   =      -0.24477429 Ry
     correction to one-el term =     -13.94756909 Ry

     iteration #  3     ecut=    35.00 Ry     beta=0.70
     Davidson diagonalization with overlap
     ethr =  2.10E-03,  avg # of iterations =  5.0

     negative rho (up, down):  1.099E-02 0.000E+00

     add environment contribution to local potential

     total cpu time spent up to now is       18.3 secs

     total energy              =    -623.87144968 Ry
     Harris-Foulkes estimate   =    -611.16666678 Ry
     estimated scf accuracy    <      32.08082978 Ry
     electrostatic embedding   =      -0.26150257 Ry
     correction to one-el term =     -13.84031353 Ry

     iteration #  4     ecut=    35.00 Ry     beta=0.70
     Davidson diagonalization with overlap
     ethr =  2.10E-03,  avg # of iterations =  3.0

     negative rho (up, down):  6.192E-03 0.000E+00

     add environment contribution to local potential

     total cpu time spent up to now is       21.7 secs

     total energy              =    -624.06263566 Ry
     Harris-Foulkes estimate   =    -610.35682645 Ry
     estimated scf accuracy    <       6.53597473 Ry
     electrostatic embedding   =      -0.31843818 Ry
     correction to one-el term =     -13.83369787 Ry

     iteration #  5     ecut=    35.00 Ry     beta=0.70
     Davidson diagonalization with overlap
     ethr =  2.10E-03,  avg # of iterations =  1.0

     negative rho (up, down):  8.129E-03 0.000E+00

     add environment contribution to local potential

     total cpu time spent up to now is       25.1 secs

     total energy              =    -624.05325711 Ry
     Harris-Foulkes estimate   =    -610.13985164 Ry
     estimated scf accuracy    <       4.06099286 Ry
     electrostatic embedding   =      -0.31533360 Ry
     correction to one-el term =     -13.84652268 Ry

     iteration #  6     ecut=    35.00 Ry     beta=0.70
     Davidson diagonalization with overlap
     ethr =  2.10E-03,  avg # of iterations =  1.0

     negative rho (up, down):  6.554E-03 0.000E+00

     add environment contribution to local potential

     total cpu time spent up to now is       28.6 secs

     total energy              =    -624.05533871 Ry
     Harris-Foulkes estimate   =    -610.02445936 Ry
     estimated scf accuracy    <       1.76047063 Ry
     electrostatic embedding   =      -0.31857641 Ry
     correction to one-el term =     -13.82721226 Ry

     iteration #  7     ecut=    35.00 Ry     beta=0.70
     Davidson diagonalization with overlap
     ethr =  1.98E-03,  avg # of iterations =  1.0

     negative rho (up, down):  5.309E-03 0.000E+00

     add environment contribution to local potential

     total cpu time spent up to now is       32.0 secs

     total energy              =    -624.08292888 Ry
     Harris-Foulkes estimate   =    -609.94729450 Ry
     estimated scf accuracy    <       0.31703171 Ry
     electrostatic embedding   =      -0.32516088 Ry
     correction to one-el term =     -13.83335373 Ry

     iteration #  8     ecut=    35.00 Ry     beta=0.70
     Davidson diagonalization with overlap
     ethr =  3.56E-04,  avg # of iterations =  3.0

     negative rho (up, down):  4.606E-03 0.000E+00

     add environment contribution to local potential

     total cpu time spent up to now is       35.4 secs

     total energy              =    -624.08596034 Ry
     Harris-Foulkes estimate   =    -609.93926024 Ry
     estimated scf accuracy    <       0.18109828 Ry
     electrostatic embedding   =      -0.31668987 Ry
     correction to one-el term =     -13.84415428 Ry

     iteration #  9     ecut=    35.00 Ry     beta=0.70
     Davidson diagonalization with overlap
     ethr =  2.03E-04,  avg # of iterations =  1.0

     negative rho (up, down):  3.986E-03 0.000E+00

     add environment contribution to local potential

     total cpu time spent up to now is       38.8 secs

     total energy              =    -624.07616427 Ry
     Harris-Foulkes estimate   =    -609.93328639 Ry
     estimated scf accuracy    <       0.24109457 Ry
     electrostatic embedding   =      -0.31010258 Ry
     correction to one-el term =     -13.84652832 Ry

     iteration # 10     ecut=    35.00 Ry     beta=0.70
     Davidson diagonalization with overlap
     ethr =  2.03E-04,  avg # of iterations =  1.0

     negative rho (up, down):  3.197E-03 0.000E+00

     add environment contribution to local potential

     total cpu time spent up to now is       42.2 secs

     total energy              =    -624.06973861 Ry
     Harris-Foulkes estimate   =    -609.92480809 Ry
     estimated scf accuracy    <       0.11551743 Ry
     electrostatic embedding   =      -0.30624292 Ry
     correction to one-el term =     -13.85187359 Ry

     iteration # 11     ecut=    35.00 Ry     beta=0.70
     Davidson diagonalization with overlap
     ethr =  1.30E-04,  avg # of iterations =  1.0

     negative rho (up, down):  3.212E-03 0.000E+00

     add environment contribution to local potential

     total cpu time spent up to now is       45.6 secs

     total energy              =    -624.07917292 Ry
     Harris-Foulkes estimate   =    -609.92083750 Ry
     estimated scf accuracy    <       0.04966787 Ry
     electrostatic embedding   =      -0.29485380 Ry
     correction to one-el term =     -13.86930656 Ry

     iteration # 12     ecut=    35.00 Ry     beta=0.70
     Davidson diagonalization with overlap
     ethr =  5.58E-05,  avg # of iterations = 11.0

     negative rho (up, down):  3.179E-03 0.000E+00

     add environment contribution to local potential

     total cpu time spent up to now is       49.3 secs

     total energy              =    -624.07630735 Ry
     Harris-Foulkes estimate   =    -609.91884894 Ry
     estimated scf accuracy    <       0.02000719 Ry
     electrostatic embedding   =      -0.28054735 Ry
     correction to one-el term =     -13.88048651 Ry

     iteration # 13     ecut=    35.00 Ry     beta=0.70
     Davidson diagonalization with overlap
     ethr =  2.25E-05,  avg # of iterations =  3.0

     negative rho (up, down):  3.202E-03 0.000E+00

     add environment contribution to local potential

     total cpu time spent up to now is       52.8 secs

     total energy              =    -624.07117048 Ry
     Harris-Foulkes estimate   =    -609.91923386 Ry
     estimated scf accuracy    <       0.01805728 Ry
     electrostatic embedding   =      -0.27530391 Ry
     correction to one-el term =     -13.87979342 Ry

     iteration # 14     ecut=    35.00 Ry     beta=0.70
     Davidson diagonalization with overlap
     ethr =  2.03E-05,  avg # of iterations =  1.0

     negative rho (up, down):  3.486E-03 0.000E+00

     total cpu time spent up to now is       56.1 secs

     End of self-consistent calculation

          k = 0.0000 0.0000 0.0000 (  7286 PWs)   bands (ev):

   -28.4183 -14.4922 -12.4517 -11.8756 -11.1983 -11.1688 -10.7727 -10.0683
    -9.9239  -9.1473  -8.9683  -8.8583  -8.6026  -8.5279  -8.4820  -8.3363
    -7.7382  -7.7079  -7.6252  -7.4108  -7.3099  -7.2768  -7.2193  -7.1743
    -7.1427  -6.9854  -6.9631  -6.8979  -6.8069  -6.5400  -6.4269  -5.7204
    -5.5722  -5.3952  -5.0744  -5.0414  -4.9636  -4.7885  -4.6534  -4.5159
    -4.3329  -4.3124  -4.1054  -4.0850  -4.0304  -3.8581  -3.7671  -2.7656
    -2.4441  -2.2756  -1.8405  -1.2628  -1.2521  -1.0032  -0.4221   0.1291
     0.3914   1.7500   1.9103   2.2391   3.2661   3.3155   3.5311   3.5341
     4.2254   4.4308   4.6063   4.8878   4.8951   4.9119   5.3373   6.1410
     6.3677   6.6610   6.8115   7.2109   7.3039   7.7419   7.8351   8.0343

     the Fermi energy is    -3.9483 ev

!    total energy              =    -624.07285213 Ry
     Harris-Foulkes estimate   =    -609.91777439 Ry
     estimated scf accuracy    <       0.00047070 Ry

     The total energy is the sum of the following terms:

     one-electron contribution =   -3918.13191955 Ry
     hartree contribution      =    1997.51265424 Ry
     xc contribution           =    -262.49922321 Ry
     ewald contribution        =    1573.20467954 Ry
     smearing contrib. (-TS)   =      -0.00359927 Ry
     electrostatic embedding   =      -0.27565046 Ry
     correction to one-el term =     -13.87979342 Ry

     convergence has been achieved in  14 iterations

     negative rho (up, down):  3.486E-03 0.000E+00

     Forces acting on atoms (cartesian axes, Ry/au):

     atom    1 type  1   force =     0.00011365   -0.00481993   -0.01820398
     atom    2 type  2   force =    -0.00022945    0.00124962    0.02090043
     atom    3 type  3   force =    -0.00099801    0.01041028    0.04432199
     atom    4 type  3   force =     0.00225008    0.01113261    0.04336613
     atom    5 type  3   force =    -0.00056135    0.01250342    0.00723829
     atom    6 type  3   force =    -0.00042853    0.01036437    0.08017231
     atom    7 type  3   force =     0.00007468   -0.01150038   -0.05582822
     atom    8 type  3   force =    -0.00118807   -0.01796766   -0.03066336
     atom    9 type  3   force =     0.01896211   -0.00606180   -0.04578795
     atom   10 type  3   force =    -0.01799509   -0.00531053   -0.04551564

     Total force =     0.145089     Total SCF correction =     0.100155
     SCF correction compared to forces is large: reduce conv_thr to get better values

     Writing output data file pwscf.save
 
     init_run     :      5.58s CPU      5.90s WALL (       1 calls)
     electrons    :     39.54s CPU     50.55s WALL (       1 calls)
     forces       :      3.73s CPU      4.12s WALL (       1 calls)

     Called by init_run:
     wfcinit      :      0.40s CPU      0.40s WALL (       1 calls)
     potinit      :      2.05s CPU      2.06s WALL (       1 calls)

     Called by electrons:
     c_bands      :     14.80s CPU     15.10s WALL (      14 calls)
     sum_band     :     11.28s CPU     16.33s WALL (      14 calls)
     v_of_rho     :      5.01s CPU      5.09s WALL (      15 calls)
     newd         :      6.64s CPU     11.81s WALL (      15 calls)
     mix_rho      :      0.63s CPU      0.63s WALL (      14 calls)

     Called by c_bands:
     init_us_2    :      0.11s CPU      0.13s WALL (      29 calls)
     regterg      :     13.82s CPU     14.11s WALL (      14 calls)

     Called by sum_band:
     sum_band:bec :      0.00s CPU      0.00s WALL (      14 calls)
     addusdens    :      7.80s CPU     12.82s WALL (      14 calls)

     Called by *egterg:
     h_psi        :     11.26s CPU     11.26s WALL (      57 calls)
     s_psi        :      0.53s CPU      0.54s WALL (      57 calls)
     g_psi        :      0.09s CPU      0.10s WALL (      42 calls)
     rdiaghg      :      0.37s CPU      0.38s WALL (      56 calls)

     Called by h_psi:
     h_psi:pot    :     11.20s CPU     11.19s WALL (      57 calls)
     h_psi:calbec :      0.55s CPU      0.57s WALL (      57 calls)
     vloc_psi     :     10.09s CPU     10.09s WALL (      57 calls)
     add_vuspsi   :      0.56s CPU      0.54s WALL (      57 calls)

     General routines
     calbec       :      0.89s CPU      0.90s WALL (      75 calls)
     fft          :      4.21s CPU      4.24s WALL (     300 calls)
     ffts         :      0.12s CPU      0.12s WALL (      29 calls)
     fftw         :     10.44s CPU     10.46s WALL (    3226 calls)
     interpolate  :      0.63s CPU      0.62s WALL (      29 calls)
     davcio       :      0.00s CPU      0.00s WALL (       1 calls)
 
     Parallel routines
     fft_scatter  :      1.54s CPU      1.51s WALL (    3555 calls)
 
     Environ routines
     calc_eelect  :      0.02s CPU      0.02s WALL (      28 calls)
     calc_velect  :      1.00s CPU      0.98s WALL (      26 calls)
     calc_felect  :      0.06s CPU      0.06s WALL (       1 calls)
 
     PWSCF        :  0m49.23s CPU     1m 3.39s WALL

 
   This run was terminated on:  16:47:56  14Nov2017            

=------------------------------------------------------------------------------=
   JOB DONE.
=------------------------------------------------------------------------------=

%%%% IONS %%%%%%%%%%%%%%%%%%%%%%%%%%%%%%%%%%%%%%%%%%%%%%%%%%%%%%%%%%%%%%%%%%%%%%
 number of ions             =         10
 ionic center of charge     =      0.3882415     0.3750182     0.2893651
 total ionic charge         =    -90.0000000
 ionic dipole               =      0.0000000     0.0000000     0.0000000
 ionic quadrupole (pc)      =   -730.5101255  -614.6110457  -876.7220256
 ionic quadrupole (gauss)   =   -741.7601255  -625.8610457  -887.9720256
 ion   1 type =  1 coordinates =      5.3350841     4.6467234     8.2964034
 ion   2 type =  2 coordinates =      5.3350096     4.6196233    10.4752278
 ion   3 type =  3 coordinates =      8.0613271     0.0980580     4.3875164
 ion   4 type =  3 coordinates =      2.6089894     0.0980583     4.3875141
 ion   5 type =  3 coordinates =      0.0000366     4.7208463     4.3641304
 ion   6 type =  3 coordinates =      5.3351596     4.7216127     4.7755699
 ion   7 type =  3 coordinates =      0.0000411     7.8029520     0.0000000
 ion   8 type =  3 coordinates =      5.3351612     7.6977491     0.1488629
 ion   9 type =  3 coordinates =      2.6978606     3.1521739     0.0837858
 ion  10 type =  3 coordinates =      7.9724637     3.1521745     0.0837887

%%%% SYSTEM %%%%%%%%%%%%%%%%%%%%%%%%%%%%%%%%%%%%%%%%%%%%%%%%%%%%%%%%%%%%%%%%%%%%
 system is built from all present ionic types
 system defined dimension   =  0 
 system defined axis        =  3 
 system center              =      0.3882415     0.3750182     0.2893651 
 system width               =      1.5145225 

%%%% ELECTRONS %%%%%%%%%%%%%%%%%%%%%%%%%%%%%%%%%%%%%%%%%%%%%%%%%%%%%%%%%%%%%%%%%
 number of electrons        =         89
 total electronic charge    =     89.0000000
 number of spin components  =  1

%%%% ELECTRONS %%%%%%%%%%%%%%%%%%%%%%%%%%%%%%%%%%%%%%%%%%%%%%%%%%%%%%%%%%%%%%%%%
 number of electrons        =         89
 total electronic charge    =     89.0000000
 number of spin components  =  1

%%%% ELECTRONS %%%%%%%%%%%%%%%%%%%%%%%%%%%%%%%%%%%%%%%%%%%%%%%%%%%%%%%%%%%%%%%%%
 number of electrons        =         89
 total electronic charge    =     89.0000000
 number of spin components  =  1

%%%% ELECTRONS %%%%%%%%%%%%%%%%%%%%%%%%%%%%%%%%%%%%%%%%%%%%%%%%%%%%%%%%%%%%%%%%%
 number of electrons        =         89
 total electronic charge    =     89.0000000
 number of spin components  =  1

%%%% ELECTRONS %%%%%%%%%%%%%%%%%%%%%%%%%%%%%%%%%%%%%%%%%%%%%%%%%%%%%%%%%%%%%%%%%
 number of electrons        =         89
 total electronic charge    =     89.0000000
 number of spin components  =  1

%%%% ELECTRONS %%%%%%%%%%%%%%%%%%%%%%%%%%%%%%%%%%%%%%%%%%%%%%%%%%%%%%%%%%%%%%%%%
 number of electrons        =         89
 total electronic charge    =     89.0000000
 number of spin components  =  1

%%%% ELECTRONS %%%%%%%%%%%%%%%%%%%%%%%%%%%%%%%%%%%%%%%%%%%%%%%%%%%%%%%%%%%%%%%%%
 number of electrons        =         89
 total electronic charge    =     89.0000000
 number of spin components  =  1

%%%% ELECTRONS %%%%%%%%%%%%%%%%%%%%%%%%%%%%%%%%%%%%%%%%%%%%%%%%%%%%%%%%%%%%%%%%%
 number of electrons        =         89
 total electronic charge    =     89.0000000
 number of spin components  =  1

%%%% ELECTRONS %%%%%%%%%%%%%%%%%%%%%%%%%%%%%%%%%%%%%%%%%%%%%%%%%%%%%%%%%%%%%%%%%
 number of electrons        =         89
 total electronic charge    =     89.0000000
 number of spin components  =  1

%%%% ELECTRONS %%%%%%%%%%%%%%%%%%%%%%%%%%%%%%%%%%%%%%%%%%%%%%%%%%%%%%%%%%%%%%%%%
 number of electrons        =         89
 total electronic charge    =     89.0000000
 number of spin components  =  1

%%%% ELECTRONS %%%%%%%%%%%%%%%%%%%%%%%%%%%%%%%%%%%%%%%%%%%%%%%%%%%%%%%%%%%%%%%%%
 number of electrons        =         89
 total electronic charge    =     89.0000000
 number of spin components  =  1

%%%% ELECTRONS %%%%%%%%%%%%%%%%%%%%%%%%%%%%%%%%%%%%%%%%%%%%%%%%%%%%%%%%%%%%%%%%%
 number of electrons        =         89
 total electronic charge    =     89.0000000
 number of spin components  =  1

%%%% ELECTRONS %%%%%%%%%%%%%%%%%%%%%%%%%%%%%%%%%%%%%%%%%%%%%%%%%%%%%%%%%%%%%%%%%
 number of electrons        =         89
 total electronic charge    =     89.0000000
 number of spin components  =  1

%%%% ELECTRONS %%%%%%%%%%%%%%%%%%%%%%%%%%%%%%%%%%%%%%%%%%%%%%%%%%%%%%%%%%%%%%%%%
 number of electrons        =         89
 total electronic charge    =     89.0000000
 number of spin components  =  1
