
     Program PWSCF v.6.1 (svn rev. 13369) starts on 14Nov2017 at 14:47:30 

     This program is part of the open-source Quantum ESPRESSO suite
     for quantum simulation of materials; please cite
         "P. Giannozzi et al., J. Phys.:Condens. Matter 21 395502 (2009);
          URL http://www.quantum-espresso.org", 
     in publications or presentations arising from this work. More details at
     http://www.quantum-espresso.org/quote

     Parallel version (MPI), running on     1 processors
     Reading input from isolated.in

     Current dimensions of program PWSCF are:
     Max number of different atomic species (ntypx) = 10
     Max number of k-points (npk) =  40000
     Max angular momentum in pseudopotentials (lmaxx) =  3
               file C.pbe-rrkjus.UPF: wavefunction(s)  2S 2P renormalized
               file H.pbe-rrkjus.UPF: wavefunction(s)  1S renormalized
               file N.pbe-rrkjus.UPF: wavefunction(s)  2S renormalized
               file O.pbe-rrkjus.UPF: wavefunction(s)  2S renormalized

     gamma-point specific algorithms are used

     Subspace diagonalization in iterative solution of the eigenvalue problem:
     a serial algorithm will be used

 
     G-vector sticks info
     --------------------
     sticks:   dense  smooth     PW     G-vecs:    dense   smooth      PW
     Sum        9549    3809    949               701475   177509   22119
 


     bravais-lattice index     =            1
     lattice parameter (alat)  =      20.0000  a.u.
     unit-cell volume          =    8000.0000 (a.u.)^3
     number of atoms/cell      =           10
     number of atomic types    =            4
     number of electrons       =        24.00
     number of Kohn-Sham states=           12
     kinetic-energy cutoff     =      30.0000  Ry
     charge density cutoff     =     300.0000  Ry
     convergence threshold     =      5.0E-03
     mixing beta               =       0.7000
     number of iterations used =            8  plain     mixing
     Exchange-correlation      =  SLA  PW   PBE  PBE ( 1  4  3  4 0 0)
 

     Environ Module
     ==============

     Plese cite
         O. Andreussi, I. Dabo and N. Marzari, J. Chem. Phys. 136, 064102 (2012)         
     in publications or presentations arising from this work.

     compensation onset threshold      =               0.1000E+03 
     static permittivity               =                   100.00 
     epsilon calculation mode          =                     full 

     Electrostatic Setup
     -------------------
     electrostatic problem to solve    = generalized              
     numerical solver adopted          = cg                       
     type of auxiliary density adopted = none                     
     type of core tool for poisson     = fft                      
     type of core tool for s(r) deriv  = analytic                 



     celldm(1)=  20.000000  celldm(2)=   0.000000  celldm(3)=   0.000000
     celldm(4)=   0.000000  celldm(5)=   0.000000  celldm(6)=   0.000000

     crystal axes: (cart. coord. in units of alat)
               a(1) = (   1.000000   0.000000   0.000000 )  
               a(2) = (   0.000000   1.000000   0.000000 )  
               a(3) = (   0.000000   0.000000   1.000000 )  

     reciprocal axes: (cart. coord. in units 2 pi/alat)
               b(1) = (  1.000000  0.000000  0.000000 )  
               b(2) = (  0.000000  1.000000  0.000000 )  
               b(3) = (  0.000000  0.000000  1.000000 )  


     PseudoPot. # 1 for C  read from file:
     /home/andreo/PWSCF/espresso-6.1-Environ-1.0/Environ/tests/../..//pseudo/C.pbe-rrkjus.UPF
     MD5 check sum: 00fb224312de0c5b6853bd333518df6f
     Pseudo is Ultrasoft, Zval =  4.0
     Generated by new atomic code, or converted to UPF format
     Using radial grid of  627 points,  4 beta functions with: 
                l(1) =   0
                l(2) =   0
                l(3) =   1
                l(4) =   1
     Q(r) pseudized with 0 coefficients 


     PseudoPot. # 2 for H  read from file:
     /home/andreo/PWSCF/espresso-6.1-Environ-1.0/Environ/tests/../..//pseudo/H.pbe-rrkjus.UPF
     MD5 check sum: 7cc9d459525c9a0585f487a71c3c9563
     Pseudo is Ultrasoft, Zval =  1.0
     Generated by new atomic code, or converted to UPF format
     Using radial grid of 1061 points,  2 beta functions with: 
                l(1) =   0
                l(2) =   0
     Q(r) pseudized with 0 coefficients 


     PseudoPot. # 3 for N  read from file:
     /home/andreo/PWSCF/espresso-6.1-Environ-1.0/Environ/tests/../..//pseudo/N.pbe-rrkjus.UPF
     MD5 check sum: 0c3fbe5807a93f9ba59d5a7019aa238b
     Pseudo is Ultrasoft, Zval =  5.0
     Generated by new atomic code, or converted to UPF format
     Using radial grid of 1257 points,  4 beta functions with: 
                l(1) =   0
                l(2) =   0
                l(3) =   1
                l(4) =   1
     Q(r) pseudized with 0 coefficients 


     PseudoPot. # 4 for O  read from file:
     /home/andreo/PWSCF/espresso-6.1-Environ-1.0/Environ/tests/../..//pseudo/O.pbe-rrkjus.UPF
     MD5 check sum: 390ba29e75625707450f3bd3f0eb6be9
     Pseudo is Ultrasoft, Zval =  6.0
     Generated by new atomic code, or converted to UPF format
     Using radial grid of 1269 points,  4 beta functions with: 
                l(1) =   0
                l(2) =   0
                l(3) =   1
                l(4) =   1
     Q(r) pseudized with 0 coefficients 


     atomic species   valence    mass     pseudopotential
        C              4.00    12.00000     C ( 1.00)
        H              1.00     1.00000     H ( 1.00)
        N              5.00    14.00000     N ( 1.00)
        O              6.00    16.00000     O ( 1.00)

     No symmetry found



   Cartesian axes

     site n.     atom                  positions (alat units)
         1           C   tau(   1) = (   0.0000000   0.0000000   0.0000000  )
         2           C   tau(   2) = (   0.0000000   0.0000000   0.1455089  )
         3           N   tau(   3) = (   0.1170969   0.0000000  -0.0545024  )
         4           H   tau(   4) = (   0.0476617  -0.0825466   0.1792090  )
         5           H   tau(   5) = (  -0.0953183  -0.0000030   0.1792090  )
         6           H   tau(   6) = (   0.0476566   0.0825496   0.1792090  )
         7           O   tau(   7) = (  -0.0984002  -0.0000019  -0.0641310  )
         8           H   tau(   8) = (   0.1263131  -0.0000015  -0.1475548  )
         9           H   tau(   9) = (   0.1944645   0.0000134  -0.0025716  )
        10           H   tau(  10) = (  -0.0770366  -0.0000045  -0.1522861  )

     number of k points=     1
                       cart. coord. in units 2pi/alat
        k(    1) = (   0.0000000   0.0000000   0.0000000), wk =   2.0000000

     Dense  grid:   350738 G-vectors     FFT dimensions: ( 120, 120, 120)

     Smooth grid:    88755 G-vectors     FFT dimensions: (  72,  72,  72)

     Estimated max dynamical RAM per process >     298.98MB

     Initial potential from superposition of free atoms
     Check: negative starting charge=   -0.000452

     starting charge   24.42266, renormalised to   24.00000

     negative rho (up, down):  4.438E-04 0.000E+00
     Starting wfc are   22 randomized atomic wfcs

     total cpu time spent up to now is        4.2 secs

     per-process dynamical memory:   611.0 Mb

     Self-consistent Calculation

     iteration #  1     ecut=    30.00 Ry     beta=0.70
     Davidson diagonalization with overlap
     ethr =  1.00E-02,  avg # of iterations =  2.0

     negative rho (up, down):  1.277E-04 0.000E+00

     add environment contribution to local potential
     polarization accuracy = 8.8E-06, # of iterations =  14

     total cpu time spent up to now is        8.7 secs

     total energy              =     -80.23908089 Ry
     Harris-Foulkes estimate   =     -83.01879009 Ry
     estimated scf accuracy    <       3.73442311 Ry
     electrostatic embedding   =      -0.00004909 Ry
     correction to one-el term =       0.00000000 Ry

     iteration #  2     ecut=    30.00 Ry     beta=0.70
     Davidson diagonalization with overlap
     ethr =  1.00E-02,  avg # of iterations =  3.0

     negative rho (up, down):  5.242E-04 0.000E+00

     add environment contribution to local potential
     polarization accuracy = 3.1E-06, # of iterations =  18

     total cpu time spent up to now is       13.7 secs

     total energy              =     -81.15991665 Ry
     Harris-Foulkes estimate   =     -76.62521332 Ry
     estimated scf accuracy    <       1.02734499 Ry
     electrostatic embedding   =      -0.00766898 Ry
     correction to one-el term =      -5.07877127 Ry

     iteration #  3     ecut=    30.00 Ry     beta=0.70
     Davidson diagonalization with overlap
     ethr =  4.28E-03,  avg # of iterations =  2.0

     negative rho (up, down):  1.271E-04 0.000E+00

     add environment contribution to local potential
     polarization accuracy = 7.7E-06, # of iterations =  23

     total cpu time spent up to now is       19.1 secs

     total energy              =     -81.32540931 Ry
     Harris-Foulkes estimate   =     -76.95263710 Ry
     estimated scf accuracy    <       0.03630259 Ry
     electrostatic embedding   =      -0.08372323 Ry
     correction to one-el term =      -4.30912027 Ry

     iteration #  4     ecut=    30.00 Ry     beta=0.70
     Davidson diagonalization with overlap
     ethr =  1.51E-04,  avg # of iterations =  3.0

     negative rho (up, down):  1.991E-04 0.000E+00

     add environment contribution to local potential
     polarization accuracy = 6.6E-06, # of iterations =  23

     total cpu time spent up to now is       24.4 secs

     total energy              =     -81.36638169 Ry
     Harris-Foulkes estimate   =     -77.41153088 Ry
     estimated scf accuracy    <       0.02367709 Ry
     electrostatic embedding   =      -0.11713472 Ry
     correction to one-el term =      -3.84866761 Ry

     iteration #  5     ecut=    30.00 Ry     beta=0.70
     Davidson diagonalization with overlap
     ethr =  9.87E-05,  avg # of iterations =  3.0

     negative rho (up, down):  2.765E-04 0.000E+00

     total cpu time spent up to now is       26.8 secs

     End of self-consistent calculation

          k = 0.0000 0.0000 0.0000 ( 11060 PWs)   bands (ev):

   -28.8455 -23.1106 -18.6505 -15.9523 -14.6174 -13.3763 -11.6460 -10.9231
    -9.6301  -9.6114  -9.2962  -7.3984

     highest occupied level (ev):    -7.3984

!    total energy              =     -81.37067612 Ry
     Harris-Foulkes estimate   =     -77.40896641 Ry
     estimated scf accuracy    <       0.00134365 Ry

     The total energy is the sum of the following terms:

     one-electron contribution =    -241.99615095 Ry
     hartree contribution      =     123.25876998 Ry
     xc contribution           =     -22.97862588 Ry
     ewald contribution        =      64.30784006 Ry
     electrostatic embedding   =      -0.11766858 Ry
     correction to one-el term =      -3.84484075 Ry

     convergence has been achieved in   5 iterations
 WARNING: Unphysical forces due to core electrons are non-negligible 
 atom type   4 is subject to a spurious force of     0.000010 
 WARNING: Unphysical forces due to core electrons are non-negligible 
 atom type   8 is subject to a spurious force of     0.000522 
 WARNING: Unphysical forces due to core electrons are non-negligible 
 atom type   9 is subject to a spurious force of     0.000372 
 WARNING: Unphysical forces due to core electrons are non-negligible 
 atom type  10 is subject to a spurious force of     0.018426 

     Forces acting on atoms (cartesian axes, Ry/au):

     atom    1 type  1   force =     0.21119272    0.00025724    0.09816328
     atom    2 type  1   force =    -0.03176342   -0.00047205   -0.07707118
     atom    3 type  3   force =    -0.12613801    0.00037615    0.03339779
     atom    4 type  2   force =     0.01519469   -0.02339686    0.00578475
     atom    5 type  2   force =    -0.02634039   -0.00024984    0.00877644
     atom    6 type  2   force =     0.01540188    0.02341417    0.00584597
     atom    7 type  4   force =    -0.08798405   -0.00016850   -0.00536926
     atom    8 type  2   force =     0.01006683    0.00010211   -0.04272462
     atom    9 type  2   force =     0.03903458    0.00006308    0.03411690
     atom   10 type  2   force =    -0.01866482    0.00007450   -0.06092007

     Total force =     0.311545     Total SCF correction =     0.045640
     SCF correction compared to forces is large: reduce conv_thr to get better values

     Writing output data file pwscf.save
 
     init_run     :      3.94s CPU      4.08s WALL (       1 calls)
     electrons    :     21.70s CPU     28.94s WALL (       1 calls)
     forces       :      2.62s CPU      2.71s WALL (       1 calls)

     Called by init_run:
     wfcinit      :      0.14s CPU      0.14s WALL (       1 calls)
     potinit      :      0.93s CPU      0.95s WALL (       1 calls)

     Called by electrons:
     c_bands      :      1.14s CPU      1.13s WALL (       5 calls)
     sum_band     :      3.22s CPU      3.43s WALL (       5 calls)
     v_of_rho     :      3.58s CPU      3.68s WALL (       6 calls)
     newd         :      1.66s CPU      1.87s WALL (       6 calls)
     mix_rho      :      0.36s CPU      0.36s WALL (       5 calls)

     Called by c_bands:
     init_us_2    :      0.04s CPU      0.04s WALL (      11 calls)
     regterg      :      1.06s CPU      1.06s WALL (       5 calls)

     Called by sum_band:
     sum_band:bec :      0.00s CPU      0.00s WALL (       5 calls)
     addusdens    :      2.45s CPU      2.66s WALL (       5 calls)

     Called by *egterg:
     h_psi        :      1.04s CPU      1.04s WALL (      19 calls)
     s_psi        :      0.04s CPU      0.03s WALL (      19 calls)
     g_psi        :      0.02s CPU      0.01s WALL (      13 calls)
     rdiaghg      :      0.00s CPU      0.00s WALL (      18 calls)

     Called by h_psi:
     h_psi:pot    :      1.02s CPU      1.03s WALL (      19 calls)
     h_psi:calbec :      0.04s CPU      0.03s WALL (      19 calls)
     vloc_psi     :      0.96s CPU      0.97s WALL (      19 calls)
     add_vuspsi   :      0.02s CPU      0.03s WALL (      19 calls)

     General routines
     calbec       :      0.06s CPU      0.06s WALL (      28 calls)
     fft          :      8.85s CPU      9.02s WALL (     319 calls)
     ffts         :      0.07s CPU      0.06s WALL (      11 calls)
     fftw         :      0.87s CPU      0.85s WALL (     238 calls)
     interpolate  :      0.43s CPU      0.44s WALL (      11 calls)
     davcio       :      0.00s CPU      0.00s WALL (       1 calls)
 
     Parallel routines
     fft_scatter  :      1.88s CPU      2.00s WALL (     568 calls)
 
     Environ routines
     calc_eelect  :      0.02s CPU      0.01s WALL (      10 calls)
     calc_velect  :      8.52s CPU      9.02s WALL (       8 calls)
     dielectric   :      0.30s CPU      0.29s WALL (       7 calls)
     calc_felect  :      0.33s CPU      0.34s WALL (       1 calls)
 
     PWSCF        :    28.48s CPU        38.39s WALL

 
   This run was terminated on:  14:48: 8  14Nov2017            

=------------------------------------------------------------------------------=
   JOB DONE.
=------------------------------------------------------------------------------=

%%%% IONS %%%%%%%%%%%%%%%%%%%%%%%%%%%%%%%%%%%%%%%%%%%%%%%%%%%%%%%%%%%%%%%%%%%%%%
 number of ions             =         10
 ionic center of charge     =      0.0095530    -0.0000002     0.0063981
 total ionic charge         =    -25.0000000
 ionic dipole               =      0.0000000     0.0000000     0.0000000
 ionic quadrupole (pc)      =    -79.0828058    -5.4513517  -105.8059629
 ionic quadrupole (gauss)   =    -82.2078058    -8.5763517  -108.9309629
 ion   1 type =  1 coordinates =      0.0000000     0.0000000     0.0000000
 ion   2 type =  1 coordinates =      0.0000000     0.0000000     2.9101782
 ion   3 type =  3 coordinates =      2.3419379     0.0000000    -1.0900479
 ion   4 type =  2 coordinates =      0.9532347    -1.6509323     3.5841800
 ion   5 type =  2 coordinates =     -1.9063663    -0.0000596     3.5841809
 ion   6 type =  2 coordinates =      0.9531315     1.6509919     3.5841800
 ion   7 type =  4 coordinates =     -1.9680045    -0.0000375    -1.2826193
 ion   8 type =  2 coordinates =      2.5262613    -0.0000303    -2.9510950
 ion   9 type =  2 coordinates =      3.8892907     0.0002681    -0.0514326
 ion  10 type =  2 coordinates =     -1.5407317    -0.0000890    -3.0457220

%%%% SYSTEM %%%%%%%%%%%%%%%%%%%%%%%%%%%%%%%%%%%%%%%%%%%%%%%%%%%%%%%%%%%%%%%%%%%%
 system is built from all present ionic types
 system defined dimension   =  0 
 system defined axis        =  3 
 system center              =      0.0095530    -0.0000002     0.0063981 
 system width               =      0.5223840 

%%%% ELECTRONS %%%%%%%%%%%%%%%%%%%%%%%%%%%%%%%%%%%%%%%%%%%%%%%%%%%%%%%%%%%%%%%%%
 number of electrons        =         24
 total electronic charge    =     24.0000000
 number of spin components  =  1

%%%% BOUNDARY %%%%%%%%%%%%%%%%%%%%%%%%%%%%%%%%%%%%%%%%%%%%%%%%%%%%%%%%%%%%%%%%%%
 boundary mode              = full                 
 boundary is built as a function of a smooth density
 function type              =  2 
 using the modified SCCS function with parameters 
 rhomax                     =      0.0050000 
 rhomin                     =      0.0001000 
 volume of the QM region    =    989.6664417 
 surface of the QM region   =    490.3840558 

%%%% DIELECTRIC %%%%%%%%%%%%%%%%%%%%%%%%%%%%%%%%%%%%%%%%%%%%%%%%%%%%%%%%%%%%%%%%%
 dielectric build on homogeneous background
 environment bulk permitt.  =    100.0000000 
 dielectric flags
 need gradient              =  F 
 need factor depend. sqrt   =  T 
 need gradient of logarithm =  T 

%%%% COMPUTE ELECTROSTATIC POTENTIAL %%%%%%%%%%%%%%%%%%%%%%%%%%%%%%%%%%%%%%%%%%%
 Iteration #          1
  pAp =    96.0323298545946       rzold =    90.0445845970092       alpha = 
  0.937648651587943     
 delta_qm =   0.219009E-01 delta_en =   0.828833E+03 tol =   0.100000E-04
 Iteration #          2
  pAp =    222.837853664062       rzold =    31.2131896103558       alpha = 
  0.140071307891033     
 delta_qm =   0.630497E-02 delta_en =   0.686925E+02 tol =   0.100000E-04
 Iteration #          3
  pAp =    3.65093993368627       rzold =   0.873229703444836       alpha = 
  0.239179422095602     
 delta_qm =   0.255566E-02 delta_en =   0.112863E+02 tol =   0.100000E-04
 Iteration #          4
  pAp =   0.358726718199561       rzold =   9.366962436775343E-002  alpha = 
  0.261116943945181     
 delta_qm =   0.134558E-02 delta_en =   0.312868E+01 tol =   0.100000E-04
 Iteration #          5
  pAp =   8.275998246674578E-002  rzold =   2.066897248096485E-002  alpha = 
  0.249745974623302     
 delta_qm =   0.791139E-03 delta_en =   0.108156E+01 tol =   0.100000E-04
 Iteration #          6
  pAp =   1.093397804509426E-002  rzold =   3.807807924209104E-003  alpha = 
  0.348254579303600     
 delta_qm =   0.419832E-03 delta_en =   0.304575E+00 tol =   0.100000E-04
 Iteration #          7
  pAp =   9.195060627260278E-004  rzold =   4.608779571486333E-004  alpha = 
  0.501223402249556     
 delta_qm =   0.229581E-03 delta_en =   0.910787E-01 tol =   0.100000E-04
 Iteration #          8
  pAp =   2.243994979757143E-004  rzold =   1.145447987404375E-004  alpha = 
  0.510450334219705     
 delta_qm =   0.115228E-03 delta_en =   0.229435E-01 tol =   0.100000E-04
 Iteration #          9
  pAp =   8.750586045372834E-005  rzold =   4.193195744141196E-005  alpha = 
  0.479190276216813     
 delta_qm =   0.470190E-04 delta_en =   0.382023E-02 tol =   0.100000E-04
 Iteration #         10
  pAp =   8.684907432972839E-005  rzold =   1.993950889899772E-005  alpha = 
  0.229588041702045     
 delta_qm =   0.315283E-04 delta_en =   0.171769E-02 tol =   0.100000E-04
 Iteration #         11
  pAp =   1.225054919773174E-005  rzold =   5.217005644037546E-006  alpha = 
  0.425858919451832     
 delta_qm =   0.152938E-04 delta_en =   0.404179E-03 tol =   0.100000E-04
 Iteration #         12
  pAp =   1.174705431849110E-006  rzold =   6.175762607975182E-007  alpha = 
  0.525728615918110     
 delta_qm =   0.830490E-05 delta_en =   0.119182E-03 tol =   0.100000E-04
 Iteration #         13
  pAp =   3.226317438558910E-007  rzold =   1.586602891737148E-007  alpha = 
  0.491768997301714     
 delta_qm =   0.434764E-05 delta_en =   0.326626E-04 tol =   0.100000E-04
 Iteration #         14
  pAp =   1.961948572542115E-007  rzold =   7.575396596614836E-008  alpha = 
  0.386115961581976     
 delta_qm =   0.225671E-05 delta_en =   0.880026E-05 tol =   0.100000E-04
 Charges are converged, EXIT

%%%% ELECTRONS %%%%%%%%%%%%%%%%%%%%%%%%%%%%%%%%%%%%%%%%%%%%%%%%%%%%%%%%%%%%%%%%%
 number of electrons        =         24
 total electronic charge    =     24.0000000
 number of spin components  =  1

%%%% BOUNDARY %%%%%%%%%%%%%%%%%%%%%%%%%%%%%%%%%%%%%%%%%%%%%%%%%%%%%%%%%%%%%%%%%%
 boundary mode              = full                 
 boundary is built as a function of a smooth density
 function type              =  2 
 using the modified SCCS function with parameters 
 rhomax                     =      0.0050000 
 rhomin                     =      0.0001000 
 volume of the QM region    =    833.6599437 
 surface of the QM region   =    447.1783819 

%%%% DIELECTRIC %%%%%%%%%%%%%%%%%%%%%%%%%%%%%%%%%%%%%%%%%%%%%%%%%%%%%%%%%%%%%%%%%
 dielectric build on homogeneous background
 environment bulk permitt.  =    100.0000000 
 dielectric flags
 need gradient              =  F 
 need factor depend. sqrt   =  T 
 need gradient of logarithm =  T 

%%%% COMPUTE ELECTROSTATIC POTENTIAL %%%%%%%%%%%%%%%%%%%%%%%%%%%%%%%%%%%%%%%%%%%
 Warning: bad guess with residual norm =   0.148095E+04, reset to no guess
 Iteration #          1
  pAp =    98.0529725596928       rzold =    93.6391713414303       alpha = 
  0.954985544007087     
 delta_qm =   0.274948E-01 delta_en =   0.130631E+04 tol =   0.100000E-04
 Iteration #          2
  pAp =    261.072701284660       rzold =    30.2423509280500       alpha = 
  0.115838809570042     
 delta_qm =   0.737978E-02 delta_en =   0.941087E+02 tol =   0.100000E-04
 Iteration #          3
  pAp =    3.33448077394415       rzold =   0.644495461560880       alpha = 
  0.193282104547434     
 delta_qm =   0.328941E-02 delta_en =   0.186973E+02 tol =   0.100000E-04
 Iteration #          4
  pAp =   0.315557498371889       rzold =   6.611166219056064E-002  alpha = 
  0.209507498733708     
 delta_qm =   0.209765E-02 delta_en =   0.760347E+01 tol =   0.100000E-04
 Iteration #          5
  pAp =   6.013541520688458E-002  rzold =   1.521599606062446E-002  alpha = 
  0.253028868401036     
 delta_qm =   0.153267E-02 delta_en =   0.405919E+01 tol =   0.100000E-04
 Iteration #          6
  pAp =   1.112348050276161E-002  rzold =   4.223957546158329E-003  alpha = 
  0.379733442703446     
 delta_qm =   0.928432E-03 delta_en =   0.148951E+01 tol =   0.100000E-04
 Iteration #          7
  pAp =   2.533245697657061E-003  rzold =   1.424567357283295E-003  alpha = 
  0.562348673324835     
 delta_qm =   0.493570E-03 delta_en =   0.420960E+00 tol =   0.100000E-04
 Iteration #          8
  pAp =   1.497698936838289E-003  rzold =   6.745809543388694E-004  alpha = 
  0.450411586565549     
 delta_qm =   0.275366E-03 delta_en =   0.131028E+00 tol =   0.100000E-04
 Iteration #          9
  pAp =   5.820624422497831E-004  rzold =   2.375914185636431E-004  alpha = 
  0.408188883730939     
 delta_qm =   0.162282E-03 delta_en =   0.455077E-01 tol =   0.100000E-04
 Iteration #         10
  pAp =   5.012658344360029E-004  rzold =   1.011416904104410E-004  alpha = 
  0.201772559512739     
 delta_qm =   0.132787E-03 delta_en =   0.304687E-01 tol =   0.100000E-04
 Iteration #         11
  pAp =   8.087423314510148E-005  rzold =   3.088849600904720E-005  alpha = 
  0.381932474755318     
 delta_qm =   0.756551E-04 delta_en =   0.989054E-02 tol =   0.100000E-04
 Iteration #         12
  pAp =   2.061245944509686E-005  rzold =   8.062832507826960E-006  alpha = 
  0.391163050159203     
 delta_qm =   0.454900E-04 delta_en =   0.357582E-02 tol =   0.100000E-04
 Iteration #         13
  pAp =   9.458516693949816E-006  rzold =   4.089294982846513E-006  alpha = 
  0.432339986825022     
 delta_qm =   0.220205E-04 delta_en =   0.837913E-03 tol =   0.100000E-04
 Iteration #         14
  pAp =   3.710468102908033E-006  rzold =   1.511988129677992E-006  alpha = 
  0.407492555586987     
 delta_qm =   0.144248E-04 delta_en =   0.359554E-03 tol =   0.100000E-04
 Iteration #         15
  pAp =   1.469244625420945E-006  rzold =   4.424239005394037E-007  alpha = 
  0.301123375157930     
 delta_qm =   0.105337E-04 delta_en =   0.191738E-03 tol =   0.100000E-04
 Iteration #         16
  pAp =   4.654332620528921E-007  rzold =   1.583251245358366E-007  alpha = 
  0.340167189249668     
 delta_qm =   0.648602E-05 delta_en =   0.726942E-04 tol =   0.100000E-04
 Iteration #         17
  pAp =   8.371592015327879E-008  rzold =   3.821952459463314E-008  alpha = 
  0.456538308659279     
 delta_qm =   0.309955E-05 delta_en =   0.166012E-04 tol =   0.100000E-04
 Iteration #         18
  pAp =   3.507937581071275E-008  rzold =   1.486609405575082E-008  alpha = 
  0.423784452037226     
 delta_qm =   0.133896E-05 delta_en =   0.309799E-05 tol =   0.100000E-04
 Charges are converged, EXIT

%%%% ELECTRONS %%%%%%%%%%%%%%%%%%%%%%%%%%%%%%%%%%%%%%%%%%%%%%%%%%%%%%%%%%%%%%%%%
 number of electrons        =         24
 total electronic charge    =     24.0000000
 number of spin components  =  1

%%%% BOUNDARY %%%%%%%%%%%%%%%%%%%%%%%%%%%%%%%%%%%%%%%%%%%%%%%%%%%%%%%%%%%%%%%%%%
 boundary mode              = full                 
 boundary is built as a function of a smooth density
 function type              =  2 
 using the modified SCCS function with parameters 
 rhomax                     =      0.0050000 
 rhomin                     =      0.0001000 
 volume of the QM region    =    710.3601118 
 surface of the QM region   =    411.2950987 

%%%% DIELECTRIC %%%%%%%%%%%%%%%%%%%%%%%%%%%%%%%%%%%%%%%%%%%%%%%%%%%%%%%%%%%%%%%%%
 dielectric build on homogeneous background
 environment bulk permitt.  =    100.0000000 
 dielectric flags
 need gradient              =  F 
 need factor depend. sqrt   =  T 
 need gradient of logarithm =  T 

%%%% COMPUTE ELECTROSTATIC POTENTIAL %%%%%%%%%%%%%%%%%%%%%%%%%%%%%%%%%%%%%%%%%%%
 Warning: bad guess with residual norm =   0.119112E+05, reset to no guess
 Iteration #          1
  pAp =    97.5329758983660       rzold =    93.4140769466765       alpha = 
  0.957769165620645     
 delta_qm =   0.637375E-01 delta_en =   0.701994E+04 tol =   0.100000E-04
 Iteration #          2
  pAp =    464.367389491700       rzold =    40.3406240723249       alpha = 
  8.687221580413323E-002
 delta_qm =   0.120751E-01 delta_en =   0.251955E+03 tol =   0.100000E-04
 Iteration #          3
  pAp =    3.11268874592612       rzold =   0.448481398538000       alpha = 
  0.144081671874508     
 delta_qm =   0.776671E-02 delta_en =   0.104236E+03 tol =   0.100000E-04
 Iteration #          4
  pAp =   0.235894867328566       rzold =   4.183847203674605E-002  alpha = 
  0.177360671347170     
 delta_qm =   0.610393E-02 delta_en =   0.643818E+02 tol =   0.100000E-04
 Iteration #          5
  pAp =   4.131603626216954E-002  rzold =   1.390610517230893E-002  alpha = 
  0.336578879059651     
 delta_qm =   0.571285E-02 delta_en =   0.563961E+02 tol =   0.100000E-04
 Iteration #          6
  pAp =   2.490300734627578E-002  rzold =   1.106891565981305E-002  alpha = 
  0.444481082380936     
 delta_qm =   0.406676E-02 delta_en =   0.285786E+02 tol =   0.100000E-04
 Iteration #          7
  pAp =   2.178472045056858E-002  rzold =   8.491200835115778E-003  alpha = 
  0.389777819475951     
 delta_qm =   0.295916E-02 delta_en =   0.151314E+02 tol =   0.100000E-04
 Iteration #          8
  pAp =   1.964143450615488E-002  rzold =   5.724207811459656E-003  alpha = 
  0.291435323100556     
 delta_qm =   0.180753E-02 delta_en =   0.564567E+01 tol =   0.100000E-04
 Iteration #          9
  pAp =   1.896527723550161E-002  rzold =   4.813649114076773E-003  alpha = 
  0.253813801628271     
 delta_qm =   0.101183E-02 delta_en =   0.176913E+01 tol =   0.100000E-04
 Iteration #         10
  pAp =   4.889147425888794E-003  rzold =   1.532055452573519E-003  alpha = 
  0.313358407738136     
 delta_qm =   0.774531E-03 delta_en =   0.103662E+01 tol =   0.100000E-04
 Iteration #         11
  pAp =   1.061464698719679E-003  rzold =   3.440872941645305E-004  alpha = 
  0.324162729650419     
 delta_qm =   0.653423E-03 delta_en =   0.737790E+00 tol =   0.100000E-04
 Iteration #         12
  pAp =   4.315629197659939E-004  rzold =   1.940944210287435E-004  alpha = 
  0.449747677891296     
 delta_qm =   0.414832E-03 delta_en =   0.297363E+00 tol =   0.100000E-04
 Iteration #         13
  pAp =   2.592728205773778E-004  rzold =   1.319869197133363E-004  alpha = 
  0.509065776425825     
 delta_qm =   0.152511E-03 delta_en =   0.401924E-01 tol =   0.100000E-04
 Iteration #         14
  pAp =   1.697042075026128E-004  rzold =   6.040444695735524E-005  alpha = 
  0.355939595407057     
 delta_qm =   0.132173E-03 delta_en =   0.301878E-01 tol =   0.100000E-04
 Iteration #         15
  pAp =   3.540421230041988E-005  rzold =   1.110035888081342E-005  alpha = 
  0.313532152237201     
 delta_qm =   0.107462E-03 delta_en =   0.199549E-01 tol =   0.100000E-04
 Iteration #         16
  pAp =   2.186536163887877E-005  rzold =   5.931975484129381E-006  alpha = 
  0.271295557882827     
 delta_qm =   0.780193E-04 delta_en =   0.105184E-01 tol =   0.100000E-04
 Iteration #         17
  pAp =   5.502440426401628E-006  rzold =   1.976381228084501E-006  alpha = 
  0.359182667131023     
 delta_qm =   0.473930E-04 delta_en =   0.388125E-02 tol =   0.100000E-04
 Iteration #         18
  pAp =   1.921690876294195E-006  rzold =   8.458732966856477E-007  alpha = 
  0.440171365290986     
 delta_qm =   0.219986E-04 delta_en =   0.836243E-03 tol =   0.100000E-04
 Iteration #         19
  pAp =   6.454717813292087E-007  rzold =   2.767752977520078E-007  alpha = 
  0.428795349011307     
 delta_qm =   0.118967E-04 delta_en =   0.244565E-03 tol =   0.100000E-04
 Iteration #         20
  pAp =   2.387140604257155E-007  rzold =   1.159725247365708E-007  alpha = 
  0.485821926575037     
 delta_qm =   0.678134E-05 delta_en =   0.794649E-04 tol =   0.100000E-04
 Iteration #         21
  pAp =   9.078903262918856E-008  rzold =   3.619231074590679E-008  alpha = 
  0.398641881048868     
 delta_qm =   0.500108E-05 delta_en =   0.432186E-04 tol =   0.100000E-04
 Iteration #         22
  pAp =   3.523931074155931E-008  rzold =   1.176665934373843E-008  alpha = 
  0.333907193305613     
 delta_qm =   0.376956E-05 delta_en =   0.245541E-04 tol =   0.100000E-04
 Iteration #         23
  pAp =   1.183922868433279E-008  rzold =   5.418625208375851E-009  alpha = 
  0.457683971891385     
 delta_qm =   0.211495E-05 delta_en =   0.772938E-05 tol =   0.100000E-04
 Charges are converged, EXIT

%%%% ELECTRONS %%%%%%%%%%%%%%%%%%%%%%%%%%%%%%%%%%%%%%%%%%%%%%%%%%%%%%%%%%%%%%%%%
 number of electrons        =         24
 total electronic charge    =     24.0000000
 number of spin components  =  1

%%%% BOUNDARY %%%%%%%%%%%%%%%%%%%%%%%%%%%%%%%%%%%%%%%%%%%%%%%%%%%%%%%%%%%%%%%%%%
 boundary mode              = full                 
 boundary is built as a function of a smooth density
 function type              =  2 
 using the modified SCCS function with parameters 
 rhomax                     =      0.0050000 
 rhomin                     =      0.0001000 
 volume of the QM region    =    713.0396103 
 surface of the QM region   =    412.3494040 

%%%% DIELECTRIC %%%%%%%%%%%%%%%%%%%%%%%%%%%%%%%%%%%%%%%%%%%%%%%%%%%%%%%%%%%%%%%%%
 dielectric build on homogeneous background
 environment bulk permitt.  =    100.0000000 
 dielectric flags
 need gradient              =  F 
 need factor depend. sqrt   =  T 
 need gradient of logarithm =  T 

%%%% COMPUTE ELECTROSTATIC POTENTIAL %%%%%%%%%%%%%%%%%%%%%%%%%%%%%%%%%%%%%%%%%%%
 Warning: bad guess with residual norm =   0.398384E+04, reset to no guess
 Iteration #          1
  pAp =    97.4808619027755       rzold =    93.4341194568371       alpha = 
  0.958486800722233     
 delta_qm =   0.588907E-01 delta_en =   0.599289E+04 tol =   0.100000E-04
 Iteration #          2
  pAp =    443.346842206983       rzold =    39.0010913276671       alpha = 
  8.796970591584563E-002
 delta_qm =   0.117529E-01 delta_en =   0.238691E+03 tol =   0.100000E-04
 Iteration #          3
  pAp =    3.28238872835999       rzold =   0.482426105060592       alpha = 
  0.146974092645520     
 delta_qm =   0.710476E-02 delta_en =   0.872254E+02 tol =   0.100000E-04
 Iteration #          4
  pAp =   0.240733154992955       rzold =   4.297142838712673E-002  alpha = 
  0.178502327144693     
 delta_qm =   0.556833E-02 delta_en =   0.535790E+02 tol =   0.100000E-04
 Iteration #          5
  pAp =   4.492369584634263E-002  rzold =   1.435937767534672E-002  alpha = 
  0.319639277330646     
 delta_qm =   0.520429E-02 delta_en =   0.468022E+02 tol =   0.100000E-04
 Iteration #          6
  pAp =   2.506535094164648E-002  rzold =   1.109551123089745E-002  alpha = 
  0.442663310668517     
 delta_qm =   0.370738E-02 delta_en =   0.237508E+02 tol =   0.100000E-04
 Iteration #          7
  pAp =   2.000868055834712E-002  rzold =   8.140225660392960E-003  alpha = 
  0.406834705399755     
 delta_qm =   0.263970E-02 delta_en =   0.120407E+02 tol =   0.100000E-04
 Iteration #          8
  pAp =   1.733763676284780E-002  rzold =   5.225636323836047E-003  alpha = 
  0.301404187624571     
 delta_qm =   0.160766E-02 delta_en =   0.446616E+01 tol =   0.100000E-04
 Iteration #          9
  pAp =   1.841933574455947E-002  rzold =   4.389989103232585E-003  alpha = 
  0.238335907663188     
 delta_qm =   0.955932E-03 delta_en =   0.157906E+01 tol =   0.100000E-04
 Iteration #         10
  pAp =   4.704033147715195E-003  rzold =   1.452802313976239E-003  alpha = 
  0.308841853013277     
 delta_qm =   0.683875E-03 delta_en =   0.808161E+00 tol =   0.100000E-04
 Iteration #         11
  pAp =   9.006642018695504E-004  rzold =   3.053740633573317E-004  alpha = 
  0.339054292069622     
 delta_qm =   0.568762E-03 delta_en =   0.558991E+00 tol =   0.100000E-04
 Iteration #         12
  pAp =   4.104030731602640E-004  rzold =   1.733202934241785E-004  alpha = 
  0.422317240681325     
 delta_qm =   0.371963E-03 delta_en =   0.239080E+00 tol =   0.100000E-04
 Iteration #         13
  pAp =   2.222094153713829E-004  rzold =   1.140096663386968E-004  alpha = 
  0.513073067350230     
 delta_qm =   0.143431E-03 delta_en =   0.355492E-01 tol =   0.100000E-04
 Iteration #         14
  pAp =   1.566045564316499E-004  rzold =   5.583169400373396E-005  alpha = 
  0.356513854231960     
 delta_qm =   0.118214E-03 delta_en =   0.241482E-01 tol =   0.100000E-04
 Iteration #         15
  pAp =   2.686893487266014E-005  rzold =   9.771131388023860E-006  alpha = 
  0.363659052148221     
 delta_qm =   0.918922E-04 delta_en =   0.145915E-01 tol =   0.100000E-04
 Iteration #         16
  pAp =   1.465437637970305E-005  rzold =   4.316043444142525E-006  alpha = 
  0.294522491596465     
 delta_qm =   0.657907E-04 delta_en =   0.747951E-02 tol =   0.100000E-04
 Iteration #         17
  pAp =   6.468959939803935E-006  rzold =   1.891883449986968E-006  alpha = 
  0.292455582905389     
 delta_qm =   0.428700E-04 delta_en =   0.317578E-02 tol =   0.100000E-04
 Iteration #         18
  pAp =   2.108917975716697E-006  rzold =   8.768306701256511E-007  alpha = 
  0.415772770786720     
 delta_qm =   0.201336E-04 delta_en =   0.700465E-03 tol =   0.100000E-04
 Iteration #         19
  pAp =   5.916125895935989E-007  rzold =   2.661821738518327E-007  alpha = 
  0.449926486579137     
 delta_qm =   0.111315E-04 delta_en =   0.214118E-03 tol =   0.100000E-04
 Iteration #         20
  pAp =   2.114854137871597E-007  rzold =   1.047161670277813E-007  alpha = 
  0.495146048857858     
 delta_qm =   0.642972E-05 delta_en =   0.714378E-04 tol =   0.100000E-04
 Iteration #         21
  pAp =   7.778567242371600E-008  rzold =   3.328528260894979E-008  alpha = 
  0.427910199549827     
 delta_qm =   0.452167E-05 delta_en =   0.353299E-04 tol =   0.100000E-04
 Iteration #         22
  pAp =   2.172980540813848E-008  rzold =   8.923553196295411E-009  alpha = 
  0.410659599968312     
 delta_qm =   0.319804E-05 delta_en =   0.176731E-04 tol =   0.100000E-04
 Iteration #         23
  pAp =   1.498071817148151E-008  rzold =   5.554477973181535E-009  alpha = 
  0.370775146398220     
 delta_qm =   0.194959E-05 delta_en =   0.656793E-05 tol =   0.100000E-04
 Charges are converged, EXIT

%%%% ELECTRONS %%%%%%%%%%%%%%%%%%%%%%%%%%%%%%%%%%%%%%%%%%%%%%%%%%%%%%%%%%%%%%%%%
 number of electrons        =         24
 total electronic charge    =     24.0000000
 number of spin components  =  1

%%%% BOUNDARY %%%%%%%%%%%%%%%%%%%%%%%%%%%%%%%%%%%%%%%%%%%%%%%%%%%%%%%%%%%%%%%%%%
 boundary mode              = full                 
 boundary is built as a function of a smooth density
 function type              =  2 
 using the modified SCCS function with parameters 
 rhomax                     =      0.0050000 
 rhomin                     =      0.0001000 
 volume of the QM region    =    713.0396103 
 surface of the QM region   =    412.3494040 

%%%% DIELECTRIC %%%%%%%%%%%%%%%%%%%%%%%%%%%%%%%%%%%%%%%%%%%%%%%%%%%%%%%%%%%%%%%%%
 dielectric build on homogeneous background
 environment bulk permitt.  =    100.0000000 
 dielectric flags
 need gradient              =  F 
 need factor depend. sqrt   =  T 
 need gradient of logarithm =  T 
