
     Program PWSCF v.6.1 (svn rev. 13369) starts on 13Nov2017 at 12:31:34 

     This program is part of the open-source Quantum ESPRESSO suite
     for quantum simulation of materials; please cite
         "P. Giannozzi et al., J. Phys.:Condens. Matter 21 395502 (2009);
          URL http://www.quantum-espresso.org", 
     in publications or presentations arising from this work. More details at
     http://www.quantum-espresso.org/quote

     Serial version
     Reading input from isolated.in

     Current dimensions of program PWSCF are:
     Max number of different atomic species (ntypx) = 10
     Max number of k-points (npk) =  40000
     Max angular momentum in pseudopotentials (lmaxx) =  3
               file C.pbe-rrkjus.UPF: wavefunction(s)  2S 2P renormalized
               file H.pbe-rrkjus.UPF: wavefunction(s)  1S renormalized
               file N.pbe-rrkjus.UPF: wavefunction(s)  2S renormalized
               file O.pbe-rrkjus.UPF: wavefunction(s)  2S renormalized

     gamma-point specific algorithms are used

     G-vector sticks info
     --------------------
     sticks:   dense  smooth     PW     G-vecs:    dense   smooth      PW
     Sum        9549    3809    949               701475   177509   22119



     bravais-lattice index     =            1
     lattice parameter (alat)  =      20.0000  a.u.
     unit-cell volume          =    8000.0000 (a.u.)^3
     number of atoms/cell      =           10
     number of atomic types    =            4
     number of electrons       =        24.00
     number of Kohn-Sham states=           12
     kinetic-energy cutoff     =      30.0000  Ry
     charge density cutoff     =     300.0000  Ry
     convergence threshold     =      5.0E-03
     mixing beta               =       0.7000
     number of iterations used =            8  plain     mixing
     Exchange-correlation      =  SLA  PW   PBE  PBE ( 1  4  3  4 0 0)


     Environ Module
     ==============

     Plese cite
         O. Andreussi, I. Dabo and N. Marzari, J. Chem. Phys. 136, 064102 (2012)         
     in publications or presentations arising from this work.

     compensation onset threshold      =               0.1000E+03 
     static permittivity               =                   100.00 
     epsilon calculation mode          =                     full 

     Electrostatic Setup
     -------------------
     electrostatic problem to solve    = generalized              
     numerical solver adopted          = cg                       
     type of auxiliary density adopted = none                     
     type of core tool for poisson     = fft                      
     type of core tool for s(r) deriv  = analytic                 



     celldm(1)=  20.000000  celldm(2)=   0.000000  celldm(3)=   0.000000
     celldm(4)=   0.000000  celldm(5)=   0.000000  celldm(6)=   0.000000

     crystal axes: (cart. coord. in units of alat)
               a(1) = (   1.000000   0.000000   0.000000 )  
               a(2) = (   0.000000   1.000000   0.000000 )  
               a(3) = (   0.000000   0.000000   1.000000 )  

     reciprocal axes: (cart. coord. in units 2 pi/alat)
               b(1) = (  1.000000  0.000000  0.000000 )  
               b(2) = (  0.000000  1.000000  0.000000 )  
               b(3) = (  0.000000  0.000000  1.000000 )  


     PseudoPot. # 1 for C  read from file:
     /Users/oliviero/PWSCF/espresso-6.1-Environ-1.0/Environ/tests/../..//pseudo/C.pbe-rrkjus.UPF
     MD5 check sum: 00fb224312de0c5b6853bd333518df6f
     Pseudo is Ultrasoft, Zval =  4.0
     Generated by new atomic code, or converted to UPF format
     Using radial grid of  627 points,  4 beta functions with: 
                l(1) =   0
                l(2) =   0
                l(3) =   1
                l(4) =   1
     Q(r) pseudized with 0 coefficients 


     PseudoPot. # 2 for H  read from file:
     /Users/oliviero/PWSCF/espresso-6.1-Environ-1.0/Environ/tests/../..//pseudo/H.pbe-rrkjus.UPF
     MD5 check sum: 7cc9d459525c9a0585f487a71c3c9563
     Pseudo is Ultrasoft, Zval =  1.0
     Generated by new atomic code, or converted to UPF format
     Using radial grid of 1061 points,  2 beta functions with: 
                l(1) =   0
                l(2) =   0
     Q(r) pseudized with 0 coefficients 


     PseudoPot. # 3 for N  read from file:
     /Users/oliviero/PWSCF/espresso-6.1-Environ-1.0/Environ/tests/../..//pseudo/N.pbe-rrkjus.UPF
     MD5 check sum: 0c3fbe5807a93f9ba59d5a7019aa238b
     Pseudo is Ultrasoft, Zval =  5.0
     Generated by new atomic code, or converted to UPF format
     Using radial grid of 1257 points,  4 beta functions with: 
                l(1) =   0
                l(2) =   0
                l(3) =   1
                l(4) =   1
     Q(r) pseudized with 0 coefficients 


     PseudoPot. # 4 for O  read from file:
     /Users/oliviero/PWSCF/espresso-6.1-Environ-1.0/Environ/tests/../..//pseudo/O.pbe-rrkjus.UPF
     MD5 check sum: 390ba29e75625707450f3bd3f0eb6be9
     Pseudo is Ultrasoft, Zval =  6.0
     Generated by new atomic code, or converted to UPF format
     Using radial grid of 1269 points,  4 beta functions with: 
                l(1) =   0
                l(2) =   0
                l(3) =   1
                l(4) =   1
     Q(r) pseudized with 0 coefficients 


     atomic species   valence    mass     pseudopotential
        C              4.00    12.00000     C ( 1.00)
        H              1.00     1.00000     H ( 1.00)
        N              5.00    14.00000     N ( 1.00)
        O              6.00    16.00000     O ( 1.00)

     No symmetry found



   Cartesian axes

     site n.     atom                  positions (alat units)
         1           C   tau(   1) = (   0.0000000   0.0000000   0.0000000  )
         2           C   tau(   2) = (   0.0000000   0.0000000   0.1455089  )
         3           N   tau(   3) = (   0.1170969   0.0000000  -0.0545024  )
         4           H   tau(   4) = (   0.0476617  -0.0825466   0.1792090  )
         5           H   tau(   5) = (  -0.0953183  -0.0000030   0.1792090  )
         6           H   tau(   6) = (   0.0476566   0.0825496   0.1792090  )
         7           O   tau(   7) = (  -0.0984002  -0.0000019  -0.0641310  )
         8           H   tau(   8) = (   0.1263131  -0.0000015  -0.1475548  )
         9           H   tau(   9) = (   0.1944645   0.0000134  -0.0025716  )
        10           H   tau(  10) = (  -0.0770366  -0.0000045  -0.1522861  )

     number of k points=     1
                       cart. coord. in units 2pi/alat
        k(    1) = (   0.0000000   0.0000000   0.0000000), wk =   2.0000000

     Dense  grid:   350738 G-vectors     FFT dimensions: ( 120, 120, 120)

     Smooth grid:    88755 G-vectors     FFT dimensions: (  72,  72,  72)

     Estimated max dynamical RAM per process >     298.98MB

     Initial potential from superposition of free atoms
     Check: negative starting charge=   -0.000452

     starting charge   24.42266, renormalised to   24.00000

     negative rho (up, down):  4.438E-04 0.000E+00
     Starting wfc are   22 randomized atomic wfcs

     total cpu time spent up to now is       11.3 secs

     Self-consistent Calculation

     iteration #  1     ecut=    30.00 Ry     beta=0.70
     Davidson diagonalization with overlap
     ethr =  1.00E-02,  avg # of iterations =  2.0

     negative rho (up, down):  1.277E-04 0.000E+00

     add environment contribution to local potential
     polarization accuracy = 3.2E-05, # of iterations =  12

     total cpu time spent up to now is       19.1 secs

     total energy              =     -80.23908089 Ry
     Harris-Foulkes estimate   =     -83.01879009 Ry
     estimated scf accuracy    <       3.73442311 Ry
     electrostatic embedding   =      -0.00004909 Ry
     correction to one-el term =       0.00000000 Ry

     iteration #  2     ecut=    30.00 Ry     beta=0.70
     Davidson diagonalization with overlap
     ethr =  1.00E-02,  avg # of iterations =  4.0

     negative rho (up, down):  6.918E-04 0.000E+00

     add environment contribution to local potential
     polarization accuracy = 4.8E-05, # of iterations =  14

     total cpu time spent up to now is       27.5 secs

     total energy              =     -81.00525761 Ry
     Harris-Foulkes estimate   =     -76.57354464 Ry
     estimated scf accuracy    <       1.54046342 Ry
     electrostatic embedding   =      -0.17833601 Ry
     correction to one-el term =      -5.07817031 Ry

     iteration #  3     ecut=    30.00 Ry     beta=0.70
     Davidson diagonalization with overlap
     ethr =  6.42E-03,  avg # of iterations =  3.0

     negative rho (up, down):  3.235E-04 0.000E+00

     add environment contribution to local potential
     polarization accuracy = 6.3E-05, # of iterations =  15

     total cpu time spent up to now is       35.9 secs

     total energy              =     -81.34657359 Ry
     Harris-Foulkes estimate   =     -76.99197500 Ry
     estimated scf accuracy    <       0.24185313 Ry
     electrostatic embedding   =      -0.15220621 Ry
     correction to one-el term =      -4.33140026 Ry

     iteration #  4     ecut=    30.00 Ry     beta=0.70
     Davidson diagonalization with overlap
     ethr =  1.01E-03,  avg # of iterations =  4.0

     negative rho (up, down):  8.725E-05 0.000E+00

     add environment contribution to local potential
     polarization accuracy = 3.5E-05, # of iterations =  17

     total cpu time spent up to now is       44.5 secs

     total energy              =     -81.39623699 Ry
     Harris-Foulkes estimate   =     -77.19332499 Ry
     estimated scf accuracy    <       0.02099194 Ry
     electrostatic embedding   =      -0.13922395 Ry
     correction to one-el term =      -4.07434400 Ry

     iteration #  5     ecut=    30.00 Ry     beta=0.70
     Davidson diagonalization with overlap
     ethr =  8.75E-05,  avg # of iterations =  4.0

     negative rho (up, down):  2.754E-04 0.000E+00

     total cpu time spent up to now is       48.9 secs

     End of self-consistent calculation

          k = 0.0000 0.0000 0.0000 ( 11060 PWs)   bands (ev):

   -28.9328 -23.1933 -18.6721 -16.0066 -14.7130 -13.4382 -11.6997 -10.9569
    -9.5955  -9.5821  -9.3469  -7.4352

     highest occupied level (ev):    -7.4352

!    total energy              =     -81.40044959 Ry
     Harris-Foulkes estimate   =     -77.42646174 Ry
     estimated scf accuracy    <       0.00246622 Ry

     The total energy is the sum of the following terms:

     one-electron contribution =    -241.91815915 Ry
     hartree contribution      =     123.12983969 Ry
     xc contribution           =     -22.94414298 Ry
     ewald contribution        =      64.30784006 Ry
     electrostatic embedding   =      -0.13856167 Ry
     correction to one-el term =      -3.83726554 Ry

     convergence has been achieved in   5 iterations
 WARNING: Unphysical forces due to core electrons are non-negligible 
 atom type   4 is subject to a spurious force of     0.000011 
 WARNING: Unphysical forces due to core electrons are non-negligible 
 atom type   6 is subject to a spurious force of     0.000011 
 WARNING: Unphysical forces due to core electrons are non-negligible 
 atom type   8 is subject to a spurious force of     0.000399 
 WARNING: Unphysical forces due to core electrons are non-negligible 
 atom type   9 is subject to a spurious force of     0.000394 
 WARNING: Unphysical forces due to core electrons are non-negligible 
 atom type  10 is subject to a spurious force of     0.002746 

     Forces acting on atoms (cartesian axes, Ry/au):

     atom    1 type  1   force =     0.21825849   -0.00001460    0.10001408
     atom    2 type  1   force =    -0.03331855   -0.00003570   -0.08031467
     atom    3 type  3   force =    -0.13829180   -0.00004101    0.04430335
     atom    4 type  2   force =     0.01789818   -0.02877866    0.00857345
     atom    5 type  2   force =    -0.03315845    0.00002225    0.01190111
     atom    6 type  2   force =     0.01790347    0.02883823    0.00857762
     atom    7 type  4   force =    -0.08462305   -0.00008975   -0.01099471
     atom    8 type  2   force =     0.00538192    0.00003262   -0.04740956
     atom    9 type  2   force =     0.03874927    0.00003635    0.03881748
     atom   10 type  2   force =    -0.00879948    0.00003028   -0.07346816

     Total force =     0.328662     Total SCF correction =     0.120757
     SCF correction compared to forces is large: reduce conv_thr to get better values

     Writing output data file pwscf.save

     init_run     :     10.56s CPU     11.14s WALL (       1 calls)
     electrons    :     34.51s CPU     37.76s WALL (       1 calls)
     forces       :      5.84s CPU      6.35s WALL (       1 calls)

     Called by init_run:
     wfcinit      :      0.21s CPU      0.20s WALL (       1 calls)
     potinit      :      1.74s CPU      1.84s WALL (       1 calls)

     Called by electrons:
     c_bands      :      1.90s CPU      1.75s WALL (       5 calls)
     sum_band     :      6.29s CPU      6.21s WALL (       5 calls)
     v_of_rho     :      6.91s CPU      7.36s WALL (       6 calls)
     newd         :      3.41s CPU      4.88s WALL (       6 calls)
     mix_rho      :      0.56s CPU      0.63s WALL (       5 calls)

     Called by c_bands:
     init_us_2    :      0.07s CPU      0.09s WALL (      11 calls)
     regterg      :      1.82s CPU      1.65s WALL (       5 calls)

     Called by sum_band:
     sum_band:bec :      0.00s CPU      0.00s WALL (       5 calls)
     addusdens    :      5.05s CPU      4.93s WALL (       5 calls)

     Called by *egterg:
     h_psi        :      1.64s CPU      1.56s WALL (      23 calls)
     s_psi        :      0.11s CPU      0.03s WALL (      23 calls)
     g_psi        :      0.01s CPU      0.01s WALL (      17 calls)
     rdiaghg      :      0.01s CPU      0.01s WALL (      22 calls)

     Called by h_psi:
     h_psi:pot    :      1.62s CPU      1.55s WALL (      23 calls)
     h_psi:calbec :      0.05s CPU      0.05s WALL (      23 calls)
     vloc_psi     :      1.45s CPU      1.46s WALL (      23 calls)
     add_vuspsi   :      0.12s CPU      0.04s WALL (      23 calls)

     General routines
     calbec       :      0.08s CPU      0.08s WALL (      32 calls)
     fft          :     14.39s CPU     14.44s WALL (     279 calls)
     ffts         :      0.10s CPU      0.10s WALL (      11 calls)
     fftw         :      1.31s CPU      1.32s WALL (     244 calls)
     interpolate  :      0.80s CPU      0.87s WALL (      11 calls)
     davcio       :      0.00s CPU      0.00s WALL (       1 calls)


     Environ routines
     calc_eelect  :      0.02s CPU      0.02s WALL (      10 calls)
     calc_velect  :     10.92s CPU     12.18s WALL (       8 calls)
     dielectric   :      0.46s CPU      0.56s WALL (       7 calls)
     calc_felect  :      0.56s CPU      0.62s WALL (       1 calls)

     PWSCF        :    51.20s CPU        55.77s WALL


   This run was terminated on:  12:32:30  13Nov2017            

=------------------------------------------------------------------------------=
   JOB DONE.
=------------------------------------------------------------------------------=

%%%% IONS %%%%%%%%%%%%%%%%%%%%%%%%%%%%%%%%%%%%%%%%%%%%%%%%%%%%%%%%%%%%%%%%%%%%%%
 number of ions             =         10
 ionic center of charge     =      0.0095530    -0.0000002     0.0063981
 total ionic charge         =    -25.0000000
 ionic dipole               =      0.0000000     0.0000000     0.0000000
 ionic quadrupole (pc)      =    -79.0828058    -5.4513517  -105.8059629
 ionic quadrupole (gauss)   =    -82.2078058    -8.5763517  -108.9309629
 ion   1 type =  1 coordinates =      0.0000000     0.0000000     0.0000000
 ion   2 type =  1 coordinates =      0.0000000     0.0000000     2.9101782
 ion   3 type =  3 coordinates =      2.3419379     0.0000000    -1.0900479
 ion   4 type =  2 coordinates =      0.9532347    -1.6509323     3.5841800
 ion   5 type =  2 coordinates =     -1.9063663    -0.0000596     3.5841809
 ion   6 type =  2 coordinates =      0.9531315     1.6509919     3.5841800
 ion   7 type =  4 coordinates =     -1.9680045    -0.0000375    -1.2826193
 ion   8 type =  2 coordinates =      2.5262613    -0.0000303    -2.9510950
 ion   9 type =  2 coordinates =      3.8892907     0.0002681    -0.0514326
 ion  10 type =  2 coordinates =     -1.5407317    -0.0000890    -3.0457220

%%%% SYSTEM %%%%%%%%%%%%%%%%%%%%%%%%%%%%%%%%%%%%%%%%%%%%%%%%%%%%%%%%%%%%%%%%%%%%
 system is built from all present ionic types
 system defined dimension   =  0 
 system defined axis        =  3 
 system center              =      0.0095530    -0.0000002     0.0063981 
 system width               =      0.5223840 

%%%% ELECTRONS %%%%%%%%%%%%%%%%%%%%%%%%%%%%%%%%%%%%%%%%%%%%%%%%%%%%%%%%%%%%%%%%%
 number of electrons        =         24
 total electronic charge    =     24.0000000
 number of spin components  =  1

%%%% BOUNDARY %%%%%%%%%%%%%%%%%%%%%%%%%%%%%%%%%%%%%%%%%%%%%%%%%%%%%%%%%%%%%%%%%%
 boundary mode              = full                 
 boundary is built as a function of a smooth density
 function type              =  2 
 using the modified SCCS function with parameters 
 rhomax                     =      0.0050000 
 rhomin                     =      0.0001000 
 volume of the QM region    =    989.6664417 
 surface of the QM region   =    490.3840558 

%%%% DIELECTRIC %%%%%%%%%%%%%%%%%%%%%%%%%%%%%%%%%%%%%%%%%%%%%%%%%%%%%%%%%%%%%%%%%
 dielectric build on homogeneous background
 environment bulk permitt.  =    100.0000000 
 dielectric flags
 need gradient              =  F 
 need factor depend. sqrt   =  T 
 need gradient of logarithm =  T 

%%%% COMPUTE ELECTROSTATIC POTENTIAL %%%%%%%%%%%%%%%%%%%%%%%%%%%%%%%%%%%%%%%%%%%
 Iteration #          1
  pAp =    92.154479468957675       rzold =    89.133565211996483       alpha =   0.96721901882177319     
 delta_qm =   0.149133E-01 delta_en =   0.384317E+03 tol =   0.100000E-03
 Iteration #          2
  pAp =    137.57713379020063       rzold =    18.309700520322131       alpha =   0.13308680022541869     
 delta_qm =   0.295188E-02 delta_en =   0.150571E+02 tol =   0.100000E-03
 Iteration #          3
  pAp =   0.94957091064535271       rzold =   0.20575980341573039       alpha =   0.21668713848436105     
 delta_qm =   0.144406E-02 delta_en =   0.360339E+01 tol =   0.100000E-03
 Iteration #          4
  pAp =   0.10987916489456674       rzold =    2.4172307263823072E-002  alpha =   0.21998990697660767     
 delta_qm =   0.100944E-02 delta_en =   0.176077E+01 tol =   0.100000E-03
 Iteration #          5
  pAp =    1.1663543347080004E-002  rzold =    4.1173842133575191E-003  alpha =   0.35301315310739734     
 delta_qm =   0.565510E-03 delta_en =   0.552617E+00 tol =   0.100000E-03
 Iteration #          6
  pAp =    3.1285316762444189E-003  rzold =    1.2619836509495323E-003  alpha =   0.40337889513219005     
 delta_qm =   0.241247E-03 delta_en =   0.100570E+00 tol =   0.100000E-03
 Iteration #          7
  pAp =    4.1855524030266550E-004  rzold =    1.7649809857533919E-004  alpha =   0.42168412094831248     
 delta_qm =   0.146977E-03 delta_en =   0.373286E-01 tol =   0.100000E-03
 Iteration #          8
  pAp =    2.9833320180073722E-004  rzold =    8.9974178380033417E-005  alpha =   0.30158955770577955     
 delta_qm =   0.800488E-04 delta_en =   0.110727E-01 tol =   0.100000E-03
 Iteration #          9
  pAp =    1.1333078192212410E-004  rzold =    4.3077805535752991E-005  alpha =   0.38010684127595762     
 delta_qm =   0.347444E-04 delta_en =   0.208599E-02 tol =   0.100000E-03
 Iteration #         10
  pAp =    2.3054685516528423E-005  rzold =    9.5942538798796199E-006  alpha =   0.41615201703798055     
 delta_qm =   0.157750E-04 delta_en =   0.430016E-03 tol =   0.100000E-03
 Iteration #         11
  pAp =    1.5992383267745837E-006  rzold =    8.2434557878287332E-007  alpha =   0.51546136994193403     
 delta_qm =   0.856984E-05 delta_en =   0.126908E-03 tol =   0.100000E-03
 Iteration #         12
  pAp =    2.5006495852111875E-007  rzold =    1.5537246992937673E-007  alpha =   0.62132843741181376     
 delta_qm =   0.429201E-05 delta_en =   0.318322E-04 tol =   0.100000E-03
 Charges are converged, EXIT

%%%% ELECTRONS %%%%%%%%%%%%%%%%%%%%%%%%%%%%%%%%%%%%%%%%%%%%%%%%%%%%%%%%%%%%%%%%%
 number of electrons        =         24
 total electronic charge    =     24.0000000
 number of spin components  =  1

%%%% BOUNDARY %%%%%%%%%%%%%%%%%%%%%%%%%%%%%%%%%%%%%%%%%%%%%%%%%%%%%%%%%%%%%%%%%%
 boundary mode              = full                 
 boundary is built as a function of a smooth density
 function type              =  2 
 using the modified SCCS function with parameters 
 rhomax                     =      0.0050000 
 rhomin                     =      0.0001000 
 volume of the QM region    =    837.5094883 
 surface of the QM region   =    448.9147115 

%%%% DIELECTRIC %%%%%%%%%%%%%%%%%%%%%%%%%%%%%%%%%%%%%%%%%%%%%%%%%%%%%%%%%%%%%%%%%
 dielectric build on homogeneous background
 environment bulk permitt.  =    100.0000000 
 dielectric flags
 need gradient              =  F 
 need factor depend. sqrt   =  T 
 need gradient of logarithm =  T 

%%%% COMPUTE ELECTROSTATIC POTENTIAL %%%%%%%%%%%%%%%%%%%%%%%%%%%%%%%%%%%%%%%%%%%
 Warning: bad guess with residual norm =   0.140637E+04, reset to no guess
 Iteration #          1
  pAp =    95.601053098409096       rzold =    92.743185351873421       alpha =   0.97010631521397717     
 delta_qm =   0.210045E-01 delta_en =   0.762374E+03 tol =   0.100000E-03
 Iteration #          2
  pAp =    176.23681964317882       rzold =    20.457312497046274       alpha =   0.11607853874386496     
 delta_qm =   0.411321E-02 delta_en =   0.292352E+02 tol =   0.100000E-03
 Iteration #          3
  pAp =    1.2367330523693847       rzold =   0.21733766148283837       alpha =   0.17573530606823665     
 delta_qm =   0.215515E-02 delta_en =   0.802599E+01 tol =   0.100000E-03
 Iteration #          4
  pAp =   0.12427943658190854       rzold =    2.3921575620384643E-002  alpha =   0.19248216984487784     
 delta_qm =   0.156701E-02 delta_en =   0.424312E+01 tol =   0.100000E-03
 Iteration #          5
  pAp =    1.2500819640921486E-002  rzold =    4.6939401778331516E-003  alpha =   0.37549059283021080     
 delta_qm =   0.922445E-03 delta_en =   0.147036E+01 tol =   0.100000E-03
 Iteration #          6
  pAp =    5.3034507760700506E-003  rzold =    1.9237525406306810E-003  alpha =   0.36273600375644766     
 delta_qm =   0.464965E-03 delta_en =   0.373580E+00 tol =   0.100000E-03
 Iteration #          7
  pAp =    8.3862594116192049E-004  rzold =    4.0540894021681451E-004  alpha =   0.48342046235192576     
 delta_qm =   0.288642E-03 delta_en =   0.143967E+00 tol =   0.100000E-03
 Iteration #          8
  pAp =    4.9404989027229142E-004  rzold =    2.3095795169678410E-004  alpha =   0.46747900615764448     
 delta_qm =   0.119253E-03 delta_en =   0.245743E-01 tol =   0.100000E-03
 Iteration #          9
  pAp =    6.4181790733528821E-004  rzold =    1.4335152119326173E-004  alpha =   0.22335232400795935     
 delta_qm =   0.799230E-04 delta_en =   0.110379E-01 tol =   0.100000E-03
 Iteration #         10
  pAp =    1.5237372777045528E-004  rzold =    4.6807018753866618E-005  alpha =   0.30718562470545746     
 delta_qm =   0.337530E-04 delta_en =   0.196865E-02 tol =   0.100000E-03
 Iteration #         11
  pAp =    7.4775682642732006E-006  rzold =    3.2408464696403674E-006  alpha =   0.43340914520629509     
 delta_qm =   0.194347E-04 delta_en =   0.652681E-03 tol =   0.100000E-03
 Iteration #         12
  pAp =    1.8177022493765644E-006  rzold =    7.2420298238775761E-007  alpha =   0.39841672784205706     
 delta_qm =   0.125272E-04 delta_en =   0.271178E-03 tol =   0.100000E-03
 Iteration #         13
  pAp =    5.5973952808296713E-007  rzold =    2.6767346744677901E-007  alpha =   0.47821076414511005     
 delta_qm =   0.764844E-05 delta_en =   0.101086E-03 tol =   0.100000E-03
 Iteration #         14
  pAp =    3.2359157167960178E-007  rzold =    1.3039030369119374E-007  alpha =   0.40294715654799962     
 delta_qm =   0.525941E-05 delta_en =   0.477990E-04 tol =   0.100000E-03
 Charges are converged, EXIT

%%%% ELECTRONS %%%%%%%%%%%%%%%%%%%%%%%%%%%%%%%%%%%%%%%%%%%%%%%%%%%%%%%%%%%%%%%%%
 number of electrons        =         24
 total electronic charge    =     24.0000000
 number of spin components  =  1

%%%% BOUNDARY %%%%%%%%%%%%%%%%%%%%%%%%%%%%%%%%%%%%%%%%%%%%%%%%%%%%%%%%%%%%%%%%%%
 boundary mode              = full                 
 boundary is built as a function of a smooth density
 function type              =  2 
 using the modified SCCS function with parameters 
 rhomax                     =      0.0050000 
 rhomin                     =      0.0001000 
 volume of the QM region    =    756.8636438 
 surface of the QM region   =    424.0594219 

%%%% DIELECTRIC %%%%%%%%%%%%%%%%%%%%%%%%%%%%%%%%%%%%%%%%%%%%%%%%%%%%%%%%%%%%%%%%%
 dielectric build on homogeneous background
 environment bulk permitt.  =    100.0000000 
 dielectric flags
 need gradient              =  F 
 need factor depend. sqrt   =  T 
 need gradient of logarithm =  T 

%%%% COMPUTE ELECTROSTATIC POTENTIAL %%%%%%%%%%%%%%%%%%%%%%%%%%%%%%%%%%%%%%%%%%%
 Warning: bad guess with residual norm =   0.160686E+04, reset to no guess
 Iteration #          1
  pAp =    96.090804731724461       rzold =    93.399961365650157       alpha =   0.97199686927810769     
 delta_qm =   0.234780E-01 delta_en =   0.952503E+03 tol =   0.100000E-03
 Iteration #          2
  pAp =    221.85547441183476       rzold =    22.453316805828877       alpha =   0.10120695405581173     
 delta_qm =   0.431286E-02 delta_en =   0.321421E+02 tol =   0.100000E-03
 Iteration #          3
  pAp =    1.3164162361293683       rzold =   0.23819594370018082       alpha =   0.18094272705154676     
 delta_qm =   0.202407E-02 delta_en =   0.707940E+01 tol =   0.100000E-03
 Iteration #          4
  pAp =   0.10390310476932429       rzold =    1.9422057161749738E-002  alpha =   0.18692470455881685     
 delta_qm =   0.155410E-02 delta_en =   0.417350E+01 tol =   0.100000E-03
 Iteration #          5
  pAp =    1.9935794975667751E-002  rzold =    5.5237711172636348E-003  alpha =   0.27707804599744162     
 delta_qm =   0.105734E-02 delta_en =   0.193187E+01 tol =   0.100000E-03
 Iteration #          6
  pAp =    7.2471812527868705E-003  rzold =    2.4747773246203537E-003  alpha =   0.34148136196658380     
 delta_qm =   0.572475E-03 delta_en =   0.566313E+00 tol =   0.100000E-03
 Iteration #          7
  pAp =    1.6400575711334991E-003  rzold =    6.9685772758467149E-004  alpha =   0.42489833274758132     
 delta_qm =   0.385751E-03 delta_en =   0.257133E+00 tol =   0.100000E-03
 Iteration #          8
  pAp =    7.5213219964965594E-004  rzold =    3.7207710381021103E-004  alpha =   0.49469641637936124     
 delta_qm =   0.193958E-03 delta_en =   0.650066E-01 tol =   0.100000E-03
 Iteration #          9
  pAp =    9.9855604905420173E-004  rzold =    2.6741288511770333E-004  alpha =   0.26779957456668324     
 delta_qm =   0.142107E-03 delta_en =   0.348959E-01 tol =   0.100000E-03
 Iteration #         10
  pAp =    6.9995438174251339E-004  rzold =    1.6144881984442078E-004  alpha =   0.23065620282638885     
 delta_qm =   0.576899E-04 delta_en =   0.575100E-02 tol =   0.100000E-03
 Iteration #         11
  pAp =    4.9000918444753334E-005  rzold =    1.6345355725577945E-005  alpha =   0.33357243587192575     
 delta_qm =   0.356675E-04 delta_en =   0.219831E-02 tol =   0.100000E-03
 Iteration #         12
  pAp =    1.5406731183678123E-005  rzold =    4.2924854990202526E-006  alpha =   0.27861104655137409     
 delta_qm =   0.236188E-04 delta_en =   0.963960E-03 tol =   0.100000E-03
 Iteration #         13
  pAp =    2.0939321928298126E-006  rzold =    9.3072994341732374E-007  alpha =   0.44448905585596016     
 delta_qm =   0.138907E-04 delta_en =   0.333420E-03 tol =   0.100000E-03
 Iteration #         14
  pAp =    1.0065148137111634E-006  rzold =    4.3626223584206099E-007  alpha =   0.43343846498741534     
 delta_qm =   0.992665E-05 delta_en =   0.170274E-03 tol =   0.100000E-03
 Iteration #         15
  pAp =    3.4159077672409409E-007  rzold =    1.5986522844168680E-007  alpha =   0.46800218078139555     
 delta_qm =   0.601765E-05 delta_en =   0.625745E-04 tol =   0.100000E-03
 Charges are converged, EXIT

%%%% ELECTRONS %%%%%%%%%%%%%%%%%%%%%%%%%%%%%%%%%%%%%%%%%%%%%%%%%%%%%%%%%%%%%%%%%
 number of electrons        =         24
 total electronic charge    =     24.0000000
 number of spin components  =  1

%%%% BOUNDARY %%%%%%%%%%%%%%%%%%%%%%%%%%%%%%%%%%%%%%%%%%%%%%%%%%%%%%%%%%%%%%%%%%
 boundary mode              = full                 
 boundary is built as a function of a smooth density
 function type              =  2 
 using the modified SCCS function with parameters 
 rhomax                     =      0.0050000 
 rhomin                     =      0.0001000 
 volume of the QM region    =    716.8974004 
 surface of the QM region   =    412.3214286 

%%%% DIELECTRIC %%%%%%%%%%%%%%%%%%%%%%%%%%%%%%%%%%%%%%%%%%%%%%%%%%%%%%%%%%%%%%%%%
 dielectric build on homogeneous background
 environment bulk permitt.  =    100.0000000 
 dielectric flags
 need gradient              =  F 
 need factor depend. sqrt   =  T 
 need gradient of logarithm =  T 

%%%% COMPUTE ELECTROSTATIC POTENTIAL %%%%%%%%%%%%%%%%%%%%%%%%%%%%%%%%%%%%%%%%%%%
 Warning: bad guess with residual norm =   0.252831E+04, reset to no guess
 Iteration #          1
  pAp =    96.004091467016181       rzold =    93.285244546845576       alpha =   0.97167988490256474     
 delta_qm =   0.289231E-01 delta_en =   0.144555E+04 tol =   0.100000E-03
 Iteration #          2
  pAp =    263.81034053763881       rzold =    24.670303313738792       alpha =    9.3515300664338386E-002
 delta_qm =   0.515710E-02 delta_en =   0.459574E+02 tol =   0.100000E-03
 Iteration #          3
  pAp =    1.8407342224982517       rzold =   0.30441196323801556       alpha =   0.16537529400896694     
 delta_qm =   0.234128E-02 delta_en =   0.947219E+01 tol =   0.100000E-03
 Iteration #          4
  pAp =   0.14001512975548283       rzold =    2.4185523213997539E-002  alpha =   0.17273506981877051     
 delta_qm =   0.185543E-02 delta_en =   0.594887E+01 tol =   0.100000E-03
 Iteration #          5
  pAp =    2.6276030217817072E-002  rzold =    6.5384016623401525E-003  alpha =   0.24883521628417971     
 delta_qm =   0.131246E-02 delta_en =   0.297656E+01 tol =   0.100000E-03
 Iteration #          6
  pAp =    8.5937497699030644E-003  rzold =    2.8383116463113699E-003  alpha =   0.33027627314116986     
 delta_qm =   0.763038E-03 delta_en =   0.100609E+01 tol =   0.100000E-03
 Iteration #          7
  pAp =    2.4316013756243886E-003  rzold =    9.2904318267918846E-004  alpha =   0.38207051204707759     
 delta_qm =   0.561649E-03 delta_en =   0.545097E+00 tol =   0.100000E-03
 Iteration #          8
  pAp =    1.2012406654578166E-003  rzold =    4.9322380588146951E-004  alpha =   0.41059532870000881     
 delta_qm =   0.310548E-03 delta_en =   0.166648E+00 tol =   0.100000E-03
 Iteration #          9
  pAp =    2.2129100481321257E-003  rzold =    5.2908835107640995E-004  alpha =   0.23909166643398053     
 delta_qm =   0.256395E-03 delta_en =   0.113596E+00 tol =   0.100000E-03
 Iteration #         10
  pAp =    9.0862609941606137E-004  rzold =    2.8681348999743875E-004  alpha =   0.31565623107432489     
 delta_qm =   0.999817E-04 delta_en =   0.172737E-01 tol =   0.100000E-03
 Iteration #         11
  pAp =    1.2861012568992502E-004  rzold =    4.2106107206067564E-005  alpha =   0.32739340685805773     
 delta_qm =   0.636365E-04 delta_en =   0.699771E-02 tol =   0.100000E-03
 Iteration #         12
  pAp =    4.1571877408395226E-005  rzold =    1.1029598895186404E-005  alpha =   0.26531394737922115     
 delta_qm =   0.451261E-04 delta_en =   0.351883E-02 tol =   0.100000E-03
 Iteration #         13
  pAp =    6.3636298177886152E-006  rzold =    2.5711837833762455E-006  alpha =   0.40404358157177367     
 delta_qm =   0.287948E-04 delta_en =   0.143276E-02 tol =   0.100000E-03
 Iteration #         14
  pAp =    3.2454887116484329E-006  rzold =    1.3694681743789894E-006  alpha =   0.42196054155536278     
 delta_qm =   0.210088E-04 delta_en =   0.762688E-03 tol =   0.100000E-03
 Iteration #         15
  pAp =    1.2850326227978844E-006  rzold =    5.7598152972232269E-007  alpha =   0.44822327426073105     
 delta_qm =   0.128390E-04 delta_en =   0.284842E-03 tol =   0.100000E-03
 Iteration #         16
  pAp =    5.9419197337709215E-007  rzold =    2.5388002333309515E-007  alpha =   0.42726935857138421     
 delta_qm =   0.788889E-05 delta_en =   0.107541E-03 tol =   0.100000E-03
 Iteration #         17
  pAp =    1.8449452630550751E-007  rzold =    7.8031002102843577E-008  alpha =   0.42294480852852384     
 delta_qm =   0.450944E-05 delta_en =   0.351389E-04 tol =   0.100000E-03
 Charges are converged, EXIT

%%%% ELECTRONS %%%%%%%%%%%%%%%%%%%%%%%%%%%%%%%%%%%%%%%%%%%%%%%%%%%%%%%%%%%%%%%%%
 number of electrons        =         24
 total electronic charge    =     24.0000000
 number of spin components  =  1

%%%% BOUNDARY %%%%%%%%%%%%%%%%%%%%%%%%%%%%%%%%%%%%%%%%%%%%%%%%%%%%%%%%%%%%%%%%%%
 boundary mode              = full                 
 boundary is built as a function of a smooth density
 function type              =  2 
 using the modified SCCS function with parameters 
 rhomax                     =      0.0050000 
 rhomin                     =      0.0001000 
 volume of the QM region    =    716.8974004 
 surface of the QM region   =    412.3214286 

%%%% DIELECTRIC %%%%%%%%%%%%%%%%%%%%%%%%%%%%%%%%%%%%%%%%%%%%%%%%%%%%%%%%%%%%%%%%%
 dielectric build on homogeneous background
 environment bulk permitt.  =    100.0000000 
 dielectric flags
 need gradient              =  F 
 need factor depend. sqrt   =  T 
 need gradient of logarithm =  T 
