
     Program PWSCF v.6.4.1 starts on 24Apr2019 at 11: 6:37 

     This program is part of the open-source Quantum ESPRESSO suite
     for quantum simulation of materials; please cite
         "P. Giannozzi et al., J. Phys.:Condens. Matter 21 395502 (2009);
         "P. Giannozzi et al., J. Phys.:Condens. Matter 29 465901 (2017);
          URL http://www.quantum-espresso.org", 
     in publications or presentations arising from this work. More details at
     http://www.quantum-espresso.org/quote

     Parallel version (MPI), running on     1 processors

     MPI processes distributed on     1 nodes
     Reading input from slab.in

     Current dimensions of program PWSCF are:
     Max number of different atomic species (ntypx) = 10
     Max number of k-points (npk) =  40000
     Max angular momentum in pseudopotentials (lmaxx) =  3
               file C.pbe-rrkjus.UPF: wavefunction(s)  2S 2P renormalized
               file O.pbe-rrkjus.UPF: wavefunction(s)  2S renormalized

     gamma-point specific algorithms are used

     Subspace diagonalization in iterative solution of the eigenvalue problem:
     a serial algorithm will be used

 
     G-vector sticks info
     --------------------
     sticks:   dense  smooth     PW     G-vecs:    dense   smooth      PW
     Sum        2357    1099    269               366833   116965   14571
 


     bravais-lattice index     =            8
     lattice parameter (alat)  =      10.6881  a.u.
     unit-cell volume          =    4181.1215 (a.u.)^3
     number of atoms/cell      =           10
     number of atomic types    =            3
     number of electrons       =        89.00
     number of Kohn-Sham states=           80
     kinetic-energy cutoff     =      35.0000  Ry
     charge density cutoff     =     300.0000  Ry
     convergence threshold     =      5.0E-06
     mixing beta               =       0.7000
     number of iterations used =            8  plain     mixing
     Exchange-correlation      = PBE ( 1  4  3  4 0 0)
 

     Environ Module
     ==============

     Plese cite
         O. Andreussi, I. Dabo and N. Marzari, J. Chem. Phys. 136, 064102 (2012)         
     in publications or presentations arising from this work.

     compensation onset threshold      =               0.1000E+03 
     static permittivity               =                   100.00 
     epsilon calculation mode          =                     full 

     Electrostatic Setup
     -------------------
     electrostatic problem to solve    = generalized              
     numerical solver adopted          = cg                       
     type of auxiliary density adopted = none                     
     type of core tool for poisson     = fft                      
     type of core tool for s(r) deriv  = analytic                 



     celldm(1)=  10.688100  celldm(2)=   0.866025  celldm(3)=   3.954220
     celldm(4)=   0.000000  celldm(5)=   0.000000  celldm(6)=   0.000000

     crystal axes: (cart. coord. in units of alat)
               a(1) = (   1.000000   0.000000   0.000000 )  
               a(2) = (   0.000000   0.866025   0.000000 )  
               a(3) = (   0.000000   0.000000   3.954220 )  

     reciprocal axes: (cart. coord. in units 2 pi/alat)
               b(1) = (  1.000000  0.000000  0.000000 )  
               b(2) = (  0.000000  1.154701  0.000000 )  
               b(3) = (  0.000000  0.000000  0.252894 )  


     PseudoPot. # 1 for C  read from file:
     /home/fnattino/Programs/quantumespresso/q-e-qe-6.4.1-develop/Environ/tests/../..//pseudo/C.pbe-rrkjus.UPF
     MD5 check sum: c9ac5a99bc85b198593446162950cd17
     Pseudo is Ultrasoft, Zval =  4.0
     Generated by new atomic code, or converted to UPF format
     Using radial grid of  627 points,  4 beta functions with: 
                l(1) =   0
                l(2) =   0
                l(3) =   1
                l(4) =   1
     Q(r) pseudized with 0 coefficients 


     PseudoPot. # 2 for O  read from file:
     /home/fnattino/Programs/quantumespresso/q-e-qe-6.4.1-develop/Environ/tests/../..//pseudo/O.pbe-rrkjus.UPF
     MD5 check sum: fadcf19ee70a498d3030e2e79cf929a4
     Pseudo is Ultrasoft, Zval =  6.0
     Generated by new atomic code, or converted to UPF format
     Using radial grid of 1269 points,  4 beta functions with: 
                l(1) =   0
                l(2) =   0
                l(3) =   1
                l(4) =   1
     Q(r) pseudized with 0 coefficients 


     PseudoPot. # 3 for Pt read from file:
     /home/fnattino/Programs/quantumespresso/q-e-qe-6.4.1-develop/Environ/tests/../..//pseudo/Pt.pbe-n-rrkjus_psl.0.1.UPF
     MD5 check sum: 957548fe13c2a9232dd96292d902c87c
     Pseudo is Ultrasoft + core correction, Zval = 10.0
     Generated using "atomic" code by A. Dal Corso v.5.0.2 svn rev. 9415
     Using radial grid of 1277 points,  6 beta functions with: 
                l(1) =   0
                l(2) =   0
                l(3) =   1
                l(4) =   1
                l(5) =   2
                l(6) =   2
     Q(r) pseudized with 0 coefficients 


     atomic species   valence    mass     pseudopotential
        C              4.00     1.00000     C ( 1.00)
        O              6.00     1.00000     O ( 1.00)
        Pt            10.00     1.00000     Pt( 1.00)

     No symmetry found



   Cartesian axes

     site n.     atom                  positions (alat units)
         1           C   tau(   1) = (   0.4991611   0.4347567   0.7762281  )
         2           O   tau(   2) = (   0.4991542   0.4322212   0.9800832  )
         3           Pt  tau(   3) = (   0.7542339   0.0091745   0.4105048  )
         4           Pt  tau(   4) = (   0.2441023   0.0091745   0.4105046  )
         5           Pt  tau(   5) = (   0.0000034   0.4416918   0.4083168  )
         6           Pt  tau(   6) = (   0.4991682   0.4417635   0.4468119  )
         7           Pt  tau(   7) = (   0.0000038   0.7300598   0.0000000  )
         8           Pt  tau(   8) = (   0.4991683   0.7202168   0.0139279  )
         9           Pt  tau(   9) = (   0.2524172   0.2949237   0.0078392  )
        10           Pt  tau(  10) = (   0.7459196   0.2949237   0.0078394  )

     number of k points=     1  Marzari-Vanderbilt smearing, width (Ry)=  0.0300
                       cart. coord. in units 2pi/alat
        k(    1) = (   0.0000000   0.0000000   0.0000000), wk =   2.0000000

     Dense  grid:   183417 G-vectors     FFT dimensions: (  60,  54, 240)

     Smooth grid:    58483 G-vectors     FFT dimensions: (  45,  36, 160)

     Estimated max dynamical RAM per process >     774.12 MB

     Initial potential from superposition of free atoms

     starting charge   89.99859, renormalised to   89.00000

     negative rho (up, down):  3.049E-03 0.000E+00
     Starting wfcs are   80 randomized atomic wfcs

     total cpu time spent up to now is        6.9 secs

     Self-consistent Calculation

     iteration #  1     ecut=    35.00 Ry     beta= 0.70
     Davidson diagonalization with overlap
     ethr =  1.00E-02,  avg # of iterations =  5.0

     negative rho (up, down):  2.886E-03 0.000E+00

     add environment contribution to local potential
     polarization accuracy = 3.8E-06, # of iterations =  25

     total cpu time spent up to now is       11.0 secs

     total energy              =    -622.68849484 Ry
     Harris-Foulkes estimate   =    -624.21151040 Ry
     estimated scf accuracy    <       1.86637819 Ry
     electrostatic embedding   =       0.03381190 Ry
     correction to one-el term =       0.00000000 Ry

     iteration #  2     ecut=    35.00 Ry     beta= 0.70
     Davidson diagonalization with overlap
     ethr =  2.10E-03,  avg # of iterations =  8.0

     negative rho (up, down):  2.058E-02 0.000E+00

     add environment contribution to local potential
     polarization accuracy = 6.2E-06, # of iterations =  50

     total cpu time spent up to now is       16.1 secs

     total energy              =    -618.08507838 Ry
     Harris-Foulkes estimate   =    -607.35618405 Ry
     estimated scf accuracy    <      45.71614899 Ry
     electrostatic embedding   =       0.00091437 Ry
     correction to one-el term =     -19.46660659 Ry

     iteration #  3     ecut=    35.00 Ry     beta= 0.70
     Davidson diagonalization with overlap
     ethr =  2.10E-03,  avg # of iterations =  5.0

     negative rho (up, down):  7.647E-03 0.000E+00

     add environment contribution to local potential
     polarization accuracy = 6.5E-06, # of iterations =  29

     total cpu time spent up to now is       20.3 secs

     total energy              =    -623.81766008 Ry
     Harris-Foulkes estimate   =    -601.93293653 Ry
     estimated scf accuracy    <       0.60154961 Ry
     electrostatic embedding   =       0.25353054 Ry
     correction to one-el term =     -22.40605015 Ry

     iteration #  4     ecut=    35.00 Ry     beta= 0.70
     Davidson diagonalization with overlap
     ethr =  6.76E-04,  avg # of iterations =  4.0

     negative rho (up, down):  8.663E-03 0.000E+00

     add environment contribution to local potential
     polarization accuracy = 6.2E-06, # of iterations =  30

     total cpu time spent up to now is       24.4 secs

     total energy              =    -623.60735411 Ry
     Harris-Foulkes estimate   =    -602.12148748 Ry
     estimated scf accuracy    <       0.99053166 Ry
     electrostatic embedding   =       0.21646108 Ry
     correction to one-el term =     -21.90000819 Ry

     iteration #  5     ecut=    35.00 Ry     beta= 0.70
     Davidson diagonalization with overlap
     ethr =  6.76E-04,  avg # of iterations =  1.0

     negative rho (up, down):  4.812E-03 0.000E+00

     add environment contribution to local potential
     polarization accuracy = 3.0E-06, # of iterations =  30

     total cpu time spent up to now is       28.1 secs

     total energy              =    -623.68552721 Ry
     Harris-Foulkes estimate   =    -601.85014627 Ry
     estimated scf accuracy    <       0.08580546 Ry
     electrostatic embedding   =       0.20702305 Ry
     correction to one-el term =     -22.07133271 Ry

     iteration #  6     ecut=    35.00 Ry     beta= 0.70
     Davidson diagonalization with overlap
     ethr =  9.64E-05,  avg # of iterations =  8.0

     negative rho (up, down):  4.781E-03 0.000E+00

     add environment contribution to local potential
     polarization accuracy = 3.4E-06, # of iterations =  30

     total cpu time spent up to now is       32.0 secs

     total energy              =    -623.68697804 Ry
     Harris-Foulkes estimate   =    -601.41317658 Ry
     estimated scf accuracy    <       0.24863948 Ry
     electrostatic embedding   =       0.19846860 Ry
     correction to one-el term =     -22.50504533 Ry

     iteration #  7     ecut=    35.00 Ry     beta= 0.70
     Davidson diagonalization with overlap
     ethr =  9.64E-05,  avg # of iterations =  1.0

     negative rho (up, down):  4.084E-03 0.000E+00

     add environment contribution to local potential
     polarization accuracy = 7.8E-06, # of iterations =  28

     total cpu time spent up to now is       35.7 secs

     total energy              =    -623.69915443 Ry
     Harris-Foulkes estimate   =    -601.20574742 Ry
     estimated scf accuracy    <       0.05000882 Ry
     electrostatic embedding   =       0.19939644 Ry
     correction to one-el term =     -22.70223535 Ry

     iteration #  8     ecut=    35.00 Ry     beta= 0.70
     Davidson diagonalization with overlap
     ethr =  5.62E-05,  avg # of iterations =  1.0

     negative rho (up, down):  4.006E-03 0.000E+00

     add environment contribution to local potential
     polarization accuracy = 7.8E-06, # of iterations =  29

     total cpu time spent up to now is       39.4 secs

     total energy              =    -623.70386537 Ry
     Harris-Foulkes estimate   =    -600.98824393 Ry
     estimated scf accuracy    <       0.02939918 Ry
     electrostatic embedding   =       0.19431302 Ry
     correction to one-el term =     -22.91524752 Ry

     iteration #  9     ecut=    35.00 Ry     beta= 0.70
     Davidson diagonalization with overlap
     ethr =  3.30E-05,  avg # of iterations =  1.0

     negative rho (up, down):  3.778E-03 0.000E+00

     add environment contribution to local potential
     polarization accuracy = 6.1E-06, # of iterations =  29

     total cpu time spent up to now is       43.1 secs

     total energy              =    -623.70569432 Ry
     Harris-Foulkes estimate   =    -600.95956577 Ry
     estimated scf accuracy    <       0.00916175 Ry
     electrostatic embedding   =       0.19359517 Ry
     correction to one-el term =     -22.94129030 Ry

     iteration # 10     ecut=    35.00 Ry     beta= 0.70
     Davidson diagonalization with overlap
     ethr =  1.03E-05,  avg # of iterations =  5.0

     negative rho (up, down):  3.661E-03 0.000E+00

     add environment contribution to local potential
     polarization accuracy = 7.8E-06, # of iterations =  29

     total cpu time spent up to now is       46.9 secs

     total energy              =    -623.70673510 Ry
     Harris-Foulkes estimate   =    -600.92418730 Ry
     estimated scf accuracy    <       0.00205905 Ry
     electrostatic embedding   =       0.19145112 Ry
     correction to one-el term =     -22.97467845 Ry

     iteration # 11     ecut=    35.00 Ry     beta= 0.70
     Davidson diagonalization with overlap
     ethr =  2.31E-06,  avg # of iterations =  5.0

     negative rho (up, down):  3.638E-03 0.000E+00

     add environment contribution to local potential
     polarization accuracy = 9.3E-06, # of iterations =  29

     total cpu time spent up to now is       50.7 secs

     total energy              =    -623.70664830 Ry
     Harris-Foulkes estimate   =    -600.88206472 Ry
     estimated scf accuracy    <       0.00450342 Ry
     electrostatic embedding   =       0.19123497 Ry
     correction to one-el term =     -23.01612861 Ry

     iteration # 12     ecut=    35.00 Ry     beta= 0.70
     Davidson diagonalization with overlap
     ethr =  2.31E-06,  avg # of iterations =  1.0

     negative rho (up, down):  3.577E-03 0.000E+00

     add environment contribution to local potential
     polarization accuracy = 9.1E-06, # of iterations =  29

     total cpu time spent up to now is       54.4 secs

     total energy              =    -623.70663304 Ry
     Harris-Foulkes estimate   =    -600.83234418 Ry
     estimated scf accuracy    <       0.00040182 Ry
     electrostatic embedding   =       0.19047756 Ry
     correction to one-el term =     -23.06484523 Ry

     iteration # 13     ecut=    35.00 Ry     beta= 0.70
     Davidson diagonalization with overlap
     ethr =  4.51E-07,  avg # of iterations =  1.0

     negative rho (up, down):  3.570E-03 0.000E+00

     add environment contribution to local potential
     polarization accuracy = 9.1E-06, # of iterations =  29

     total cpu time spent up to now is       58.0 secs

     total energy              =    -623.70654031 Ry
     Harris-Foulkes estimate   =    -600.85804958 Ry
     estimated scf accuracy    <       0.00002334 Ry
     electrostatic embedding   =       0.19072826 Ry
     correction to one-el term =     -23.03922827 Ry

     iteration # 14     ecut=    35.00 Ry     beta= 0.70
     Davidson diagonalization with overlap
     ethr =  2.62E-08,  avg # of iterations =  2.0

     negative rho (up, down):  3.570E-03 0.000E+00

     add environment contribution to local potential
     polarization accuracy = 9.2E-06, # of iterations =  29

     total cpu time spent up to now is       61.8 secs

     total energy              =    -623.70651920 Ry
     Harris-Foulkes estimate   =    -600.86441189 Ry
     estimated scf accuracy    <       0.00006981 Ry
     electrostatic embedding   =       0.19093260 Ry
     correction to one-el term =     -23.03304714 Ry

     iteration # 15     ecut=    35.00 Ry     beta= 0.70
     Davidson diagonalization with overlap
     ethr =  2.62E-08,  avg # of iterations =  1.0

     negative rho (up, down):  3.569E-03 0.000E+00

     add environment contribution to local potential
     polarization accuracy = 9.4E-06, # of iterations =  29

     total cpu time spent up to now is       65.4 secs

     total energy              =    -623.70652718 Ry
     Harris-Foulkes estimate   =    -600.86409935 Ry
     estimated scf accuracy    <       0.00009072 Ry
     electrostatic embedding   =       0.19095789 Ry
     correction to one-el term =     -23.03339590 Ry

     iteration # 16     ecut=    35.00 Ry     beta= 0.70
     Davidson diagonalization with overlap
     ethr =  2.62E-08,  avg # of iterations =  2.0

     negative rho (up, down):  3.569E-03 0.000E+00

     add environment contribution to local potential
     polarization accuracy = 9.4E-06, # of iterations =  29

     total cpu time spent up to now is       69.1 secs

     total energy              =    -623.70648880 Ry
     Harris-Foulkes estimate   =    -600.86468999 Ry
     estimated scf accuracy    <       0.00022777 Ry
     electrostatic embedding   =       0.19100322 Ry
     correction to one-el term =     -23.03283351 Ry

     iteration # 17     ecut=    35.00 Ry     beta= 0.70
     Davidson diagonalization with overlap
     ethr =  2.62E-08,  avg # of iterations =  2.0

     negative rho (up, down):  3.569E-03 0.000E+00

     add environment contribution to local potential
     polarization accuracy = 9.5E-06, # of iterations =  29

     total cpu time spent up to now is       72.8 secs

     total energy              =    -623.70648184 Ry
     Harris-Foulkes estimate   =    -600.86194089 Ry
     estimated scf accuracy    <       0.00001357 Ry
     electrostatic embedding   =       0.19106010 Ry
     correction to one-el term =     -23.03560593 Ry

     iteration # 18     ecut=    35.00 Ry     beta= 0.70
     Davidson diagonalization with overlap
     ethr =  1.53E-08,  avg # of iterations =  1.0

     negative rho (up, down):  3.569E-03 0.000E+00

     add environment contribution to local potential
     polarization accuracy = 9.5E-06, # of iterations =  29

     total cpu time spent up to now is       76.5 secs

     total energy              =    -623.70652499 Ry
     Harris-Foulkes estimate   =    -600.85792361 Ry
     estimated scf accuracy    <       0.00003803 Ry
     electrostatic embedding   =       0.19090602 Ry
     correction to one-el term =     -23.03951162 Ry

     iteration # 19     ecut=    35.00 Ry     beta= 0.70
     Davidson diagonalization with overlap
     ethr =  1.53E-08,  avg # of iterations =  1.0

     negative rho (up, down):  3.568E-03 0.000E+00

     add environment contribution to local potential
     polarization accuracy = 9.5E-06, # of iterations =  29

     total cpu time spent up to now is       80.2 secs

     total energy              =    -623.70647155 Ry
     Harris-Foulkes estimate   =    -600.85867913 Ry
     estimated scf accuracy    <       0.00001636 Ry
     electrostatic embedding   =       0.19098925 Ry
     correction to one-el term =     -23.03878398 Ry

     iteration # 20     ecut=    35.00 Ry     beta= 0.70
     Davidson diagonalization with overlap
     ethr =  1.53E-08,  avg # of iterations =  1.0

     negative rho (up, down):  3.568E-03 0.000E+00

     the potential shift due to the Gaussian-smeared nuclei is    -0.4600 ev

     total cpu time spent up to now is       82.8 secs

     End of self-consistent calculation

          k = 0.0000 0.0000 0.0000 (  7286 PWs)   bands (ev):

   -24.8108 -11.3357  -9.6938  -8.4685  -8.2333  -7.6666  -7.6662  -7.5217
    -7.3512  -6.5071  -6.3780  -6.2640  -6.0396  -5.9989  -5.9261  -5.7918
    -5.1095  -5.0659  -5.0133  -4.8131  -4.7655  -4.7206  -4.6811  -4.6386
    -4.6269  -4.4408  -4.4232  -4.3302  -4.2190  -3.9879  -3.8723  -3.1312
    -3.0003  -2.7337  -2.4900  -2.4568  -2.3892  -2.2285  -2.0607  -1.9414
    -1.7566  -1.7545  -1.5485  -1.5152  -1.4707  -1.3056  -1.1596  -0.0764
     0.2385   0.3123   0.9036   1.5937   1.7267   2.7024   3.0164   3.0932
     4.4286   4.6317   4.7090   5.0348   5.5145   5.8769   6.1184   6.1382
     6.9920   7.1893   7.4265   7.5635   7.7145   8.0401   8.9274   9.3222
     9.3256   9.3772   9.6768   9.9824  10.0700  10.1758  10.3142  10.3648

     the Fermi energy is    -1.3833 ev

!    total energy              =    -623.70646899 Ry
     Harris-Foulkes estimate   =    -600.85730952 Ry
     estimated scf accuracy    <       0.00000342 Ry

     The total energy is the sum of the following terms:

     one-electron contribution =   -3916.51436869 Ry
     hartree contribution      =    2005.22358222 Ry
     xc contribution           =    -262.76949936 Ry
     ewald contribution        =    1573.20467954 Ry
     smearing contrib. (-TS)   =      -0.00169994 Ry
     electrostatic embedding   =       0.19097774 Ry
     correction to one-el term =     -23.04014050 Ry

     convergence has been achieved in  20 iterations

     negative rho (up, down):  3.568E-03 0.000E+00

     Forces acting on atoms (cartesian axes, Ry/au):

     atom    1 type  1   force =    -0.00001225   -0.00428127    0.07648848
     atom    2 type  2   force =    -0.00010308    0.00125211   -0.05625791
     atom    3 type  3   force =     0.00164597    0.01301671    0.04587230
     atom    4 type  3   force =    -0.00066165    0.01323785    0.04630888
     atom    5 type  3   force =    -0.00162888    0.01122832    0.01028825
     atom    6 type  3   force =     0.00066557    0.00839339    0.06051387
     atom    7 type  3   force =    -0.00135293   -0.01216326   -0.05238500
     atom    8 type  3   force =     0.00040610   -0.02043648   -0.03451937
     atom    9 type  3   force =     0.01912356   -0.00530295   -0.04831218
     atom   10 type  3   force =    -0.01808241   -0.00494444   -0.04799731

     Total force =     0.165788     Total SCF correction =     0.007183

     Writing output data file pwscf.save/
 
     init_run     :      5.66s CPU      6.05s WALL (       1 calls)
     electrons    :     65.70s CPU     75.82s WALL (       1 calls)
     forces       :      3.47s CPU      3.79s WALL (       1 calls)

     Called by init_run:
     wfcinit      :      0.27s CPU      0.30s WALL (       1 calls)
     potinit      :      1.54s CPU      1.59s WALL (       1 calls)
     hinit0       :      3.42s CPU      3.45s WALL (       1 calls)

     Called by electrons:
     c_bands      :     15.22s CPU     15.87s WALL (      20 calls)
     sum_band     :     13.01s CPU     17.08s WALL (      20 calls)
     v_of_rho     :      5.00s CPU      5.29s WALL (      21 calls)
     newd         :      8.36s CPU     12.87s WALL (      21 calls)
     mix_rho      :      0.54s CPU      0.54s WALL (      20 calls)

     Called by c_bands:
     init_us_2    :      0.18s CPU      0.21s WALL (      41 calls)
     regterg      :     13.84s CPU     14.47s WALL (      20 calls)

     Called by sum_band:
     sum_band:bec :      0.00s CPU      0.00s WALL (      20 calls)
     addusdens    :     10.08s CPU     14.16s WALL (      20 calls)

     Called by *egterg:
     h_psi        :     10.99s CPU     10.99s WALL (      77 calls)
     s_psi        :      0.48s CPU      0.50s WALL (      77 calls)
     g_psi        :      0.10s CPU      0.09s WALL (      56 calls)
     rdiaghg      :      0.50s CPU      0.51s WALL (      76 calls)

     Called by h_psi:
     h_psi:pot    :     10.94s CPU     10.93s WALL (      77 calls)
     h_psi:calbec :      0.50s CPU      0.50s WALL (      77 calls)
     vloc_psi     :      9.96s CPU      9.95s WALL (      77 calls)
     add_vuspsi   :      0.47s CPU      0.49s WALL (      77 calls)

     General routines
     calbec       :      0.73s CPU      0.73s WALL (     101 calls)
     fft          :     11.21s CPU     11.21s WALL (    1735 calls)
     ffts         :      0.09s CPU      0.09s WALL (      41 calls)
     fftw         :     10.28s CPU     10.24s WALL (    4512 calls)
     interpolate  :      0.23s CPU      0.28s WALL (      21 calls)
 
     Parallel routines
 
     Environ routines
     calc_eelect  :      0.03s CPU      0.03s WALL (      40 calls)
     calc_velect  :     17.82s CPU     18.00s WALL (      38 calls)
     dielectric   :      0.46s CPU      0.48s WALL (      23 calls)
     calc_felect  :      0.04s CPU      0.04s WALL (       1 calls)
 
     PWSCF        :   1m15.72s CPU   1m26.58s WALL

 
   This run was terminated on:  11: 8: 4  24Apr2019            

=------------------------------------------------------------------------------=
   JOB DONE.
=------------------------------------------------------------------------------=

%%%% IONS %%%%%%%%%%%%%%%%%%%%%%%%%%%%%%%%%%%%%%%%%%%%%%%%%%%%%%%%%%%%%%%%%%%%%%
 number of ions             =         10
 ionic center of charge     =      0.3882415     0.3750182     0.2893651
 total ionic charge         =    -90.0000000
 ionic dipole               =      0.0000000     0.0000000     0.0000000
 ionic quadrupole (pc)      =   -730.5101255  -614.6110457  -876.7220256
 ionic quadrupole (gauss)   =   -741.7601255  -625.8610457  -887.9720256
 ion   1 type =  1 coordinates =      5.3350841     4.6467234     8.2964034
 ion   2 type =  2 coordinates =      5.3350096     4.6196233    10.4752278
 ion   3 type =  3 coordinates =      8.0613271     0.0980580     4.3875164
 ion   4 type =  3 coordinates =      2.6089894     0.0980583     4.3875141
 ion   5 type =  3 coordinates =      0.0000366     4.7208463     4.3641304
 ion   6 type =  3 coordinates =      5.3351596     4.7216127     4.7755699
 ion   7 type =  3 coordinates =      0.0000411     7.8029520     0.0000000
 ion   8 type =  3 coordinates =      5.3351612     7.6977491     0.1488629
 ion   9 type =  3 coordinates =      2.6978606     3.1521739     0.0837858
 ion  10 type =  3 coordinates =      7.9724637     3.1521745     0.0837887

%%%% SYSTEM %%%%%%%%%%%%%%%%%%%%%%%%%%%%%%%%%%%%%%%%%%%%%%%%%%%%%%%%%%%%%%%%%%%%
 system is built from all present ionic types
 system defined dimension   =  0 
 system defined axis        =  3 
 system center              =      0.3882415     0.3750182     0.2893651 
 system width               =      0.7019013 

%%%% ELECTRONS %%%%%%%%%%%%%%%%%%%%%%%%%%%%%%%%%%%%%%%%%%%%%%%%%%%%%%%%%%%%%%%%%
 number of electrons        =         89
 total electronic charge    =     89.0000000

%%%% BOUNDARY %%%%%%%%%%%%%%%%%%%%%%%%%%%%%%%%%%%%%%%%%%%%%%%%%%%%%%%%%%%%%%%%%%
 boundary label             = solvent              
 boundary mode              = full                 
 boundary is built as a function of a smooth density
 function type              =  2 
 using the modified SCCS function with parameters 
 rhomax                     =      0.0050000 
 rhomin                     =      0.0001000 
 volume of the QM region    =   1610.6630766 
 surface of the QM region   =    255.0494111 

%%%% DIELECTRIC %%%%%%%%%%%%%%%%%%%%%%%%%%%%%%%%%%%%%%%%%%%%%%%%%%%%%%%%%%%%%%%%%
 dielectric build on homogeneous background
 environment bulk permitt.  =    100.0000000 
 dielectric flags
 need gradient              =  F 
 need factor depend. sqrt   =  T 
 total dielectric charge    =      0.0000000

%%%% DENSITY %%%%%%%%%%%%%%%%%%%%%%%%%%%%%%%%%%%%%%%%%%%%%%%%%%%%%%%%%%%%%%%%%%%
 density label              = vreference                                                                      
 integral of density        =      0.000000000    

%%%% DENSITY %%%%%%%%%%%%%%%%%%%%%%%%%%%%%%%%%%%%%%%%%%%%%%%%%%%%%%%%%%%%%%%%%%%
 density label              = velectrostatic                                                                  
 integral of density        =      0.000000000    

%%%% CHARGES %%%%%%%%%%%%%%%%%%%%%%%%%%%%%%%%%%%%%%%%%%%%%%%%%%%%%%%%%%%%%%%%%%%
 total number of charges    =         99
 total charge               =     -1.0000000

%%%% DENSITY %%%%%%%%%%%%%%%%%%%%%%%%%%%%%%%%%%%%%%%%%%%%%%%%%%%%%%%%%%%%%%%%%%%
 density label              = vsoftcavity                                                                     
 integral of density        =      0.000000000    

%%%% ELECTRONS %%%%%%%%%%%%%%%%%%%%%%%%%%%%%%%%%%%%%%%%%%%%%%%%%%%%%%%%%%%%%%%%%
 number of electrons        =         89
 total electronic charge    =     89.0000000

%%%% BOUNDARY %%%%%%%%%%%%%%%%%%%%%%%%%%%%%%%%%%%%%%%%%%%%%%%%%%%%%%%%%%%%%%%%%%
 boundary label             = solvent              
 boundary mode              = full                 
 boundary is built as a function of a smooth density
 function type              =  2 
 using the modified SCCS function with parameters 
 rhomax                     =      0.0050000 
 rhomin                     =      0.0001000 
 volume of the QM region    =   1500.3584888 
 surface of the QM region   =    259.8000326 

%%%% DIELECTRIC %%%%%%%%%%%%%%%%%%%%%%%%%%%%%%%%%%%%%%%%%%%%%%%%%%%%%%%%%%%%%%%%%
 dielectric build on homogeneous background
 environment bulk permitt.  =    100.0000000 
 dielectric flags
 need gradient              =  F 
 need factor depend. sqrt   =  T 
 total dielectric charge    =      0.0000000

%%%% DENSITY %%%%%%%%%%%%%%%%%%%%%%%%%%%%%%%%%%%%%%%%%%%%%%%%%%%%%%%%%%%%%%%%%%%
 density label              = vreference                                                                      
 integral of density        =     0.2276436177E-11

%%%% COMPUTE ELECTROSTATIC POTENTIAL %%%%%%%%%%%%%%%%%%%%%%%%%%%%%%%%%%%%%%%%%%%
 Iteration #          1
  pAp =    1283.90098971797       rzold =    1273.22305357111       alpha = 
  0.991683209038410     
 delta_qm =   0.184027E+00 delta_en =   0.263340E+05 tol =   0.100000E-04
 Iteration #          2
  pAp =    5184.95342586644       rzold =    228.105540615400       alpha = 
  4.399374919694336E-002
 delta_qm =   0.217670E-01 delta_en =   0.368430E+03 tol =   0.100000E-04
 Iteration #          3
  pAp =    11.8548624425723       rzold =    1.21466234117750       alpha = 
  0.102461108010457     
 delta_qm =   0.335495E-01 delta_en =   0.875242E+03 tol =   0.100000E-04
 Iteration #          4
  pAp =   0.230565720473008       rzold =   0.118037740497047       alpha = 
  0.511948351450041     
 delta_qm =   0.239654E-01 delta_en =   0.446607E+03 tol =   0.100000E-04
 Iteration #          5
  pAp =   0.123398224664256       rzold =   0.110088055757644       alpha = 
  0.892136463528330     
 delta_qm =   0.144153E-01 delta_en =   0.161587E+03 tol =   0.100000E-04
 Iteration #          6
  pAp =   0.530009760809802       rzold =   0.152180365318075       alpha = 
  0.287127476832800     
 delta_qm =   0.108674E-01 delta_en =   0.918355E+02 tol =   0.100000E-04
 Iteration #          7
  pAp =   0.105784931819271       rzold =   5.359813059877789E-002  alpha = 
  0.506670748631270     
 delta_qm =   0.953106E-02 delta_en =   0.706380E+02 tol =   0.100000E-04
 Iteration #          8
  pAp =   2.427881730701822E-002  rzold =   1.458151737297251E-002  alpha = 
  0.600585983599681     
 delta_qm =   0.660237E-02 delta_en =   0.338966E+02 tol =   0.100000E-04
 Iteration #          9
  pAp =   9.215613882033478E-003  rzold =   7.471610538291542E-003  alpha = 
  0.810755597395199     
 delta_qm =   0.474260E-02 delta_en =   0.174900E+02 tol =   0.100000E-04
 Iteration #         10
  pAp =   1.056281580249943E-002  rzold =   8.442211744094876E-003  alpha = 
  0.799238754319396     
 delta_qm =   0.371951E-02 delta_en =   0.107579E+02 tol =   0.100000E-04
 Iteration #         11
  pAp =   1.303728002729185E-002  rzold =   6.179826766101099E-003  alpha = 
  0.474011968229909     
 delta_qm =   0.417527E-02 delta_en =   0.135558E+02 tol =   0.100000E-04
 Iteration #         12
  pAp =   6.679658749296523E-003  rzold =   2.924891160011887E-003  alpha = 
  0.437880327392462     
 delta_qm =   0.391832E-02 delta_en =   0.119387E+02 tol =   0.100000E-04
 Iteration #         13
  pAp =   8.997205421237503E-004  rzold =   1.572374058009300E-003  alpha = 
   1.74762493951486     
 delta_qm =   0.234922E-02 delta_en =   0.429146E+01 tol =   0.100000E-04
 Iteration #         14
  pAp =   4.330028564964047E-003  rzold =   2.163172800971608E-003  alpha = 
  0.499574718392087     
 delta_qm =   0.211851E-02 delta_en =   0.348993E+01 tol =   0.100000E-04
 Iteration #         15
  pAp =   1.669347010124450E-003  rzold =   6.300711611283962E-004  alpha = 
  0.377435702287821     
 delta_qm =   0.141784E-02 delta_en =   0.156319E+01 tol =   0.100000E-04
 Iteration #         16
  pAp =   1.258622198501405E-002  rzold =   8.751114374174688E-004  alpha = 
  6.952931852460825E-002
 delta_qm =   0.122625E-02 delta_en =   0.116926E+01 tol =   0.100000E-04
 Iteration #         17
  pAp =   1.115678756971127E-003  rzold =   2.794729041314061E-004  alpha = 
  0.250495854998733     
 delta_qm =   0.680933E-03 delta_en =   0.360550E+00 tol =   0.100000E-04
 Iteration #         18
  pAp =   8.978720337667511E-005  rzold =   4.614974697430229E-005  alpha = 
  0.513990248484463     
 delta_qm =   0.290917E-03 delta_en =   0.658106E-01 tol =   0.100000E-04
 Iteration #         19
  pAp =   1.690319093153372E-005  rzold =   1.030527245281482E-005  alpha = 
  0.609664322822612     
 delta_qm =   0.146874E-03 delta_en =   0.167744E-01 tol =   0.100000E-04
 Iteration #         20
  pAp =   4.008001113968754E-006  rzold =   2.621452134176643E-006  alpha = 
  0.654054741911202     
 delta_qm =   0.753917E-04 delta_en =   0.441981E-02 tol =   0.100000E-04
 Iteration #         21
  pAp =   1.235278529111744E-006  rzold =   6.597240526134888E-007  alpha = 
  0.534069067878869     
 delta_qm =   0.342837E-04 delta_en =   0.913969E-03 tol =   0.100000E-04
 Iteration #         22
  pAp =   5.660090961168922E-007  rzold =   1.144401709650269E-007  alpha = 
  0.202187865442701     
 delta_qm =   0.284174E-04 delta_en =   0.627951E-03 tol =   0.100000E-04
 Iteration #         23
  pAp =   2.880814717930495E-007  rzold =   9.327594010436504E-008  alpha = 
  0.323783197592701     
 delta_qm =   0.117649E-04 delta_en =   0.107630E-03 tol =   0.100000E-04
 Iteration #         24
  pAp =   2.501859734651712E-008  rzold =   1.399620048868375E-008  alpha = 
  0.559431861620019     
 delta_qm =   0.462041E-05 delta_en =   0.166003E-04 tol =   0.100000E-04
 Iteration #         25
  pAp =   4.603183621208375E-009  rzold =   2.647476377840001E-009  alpha = 
  0.575140293261866     
 delta_qm =   0.220779E-05 delta_en =   0.379029E-05 tol =   0.100000E-04
 Charges are converged, EXIT

%%%% DENSITY %%%%%%%%%%%%%%%%%%%%%%%%%%%%%%%%%%%%%%%%%%%%%%%%%%%%%%%%%%%%%%%%%%%
 density label              = velectrostatic                                                                  
 integral of density        =    -0.9061902618E-12

%%%% CHARGES %%%%%%%%%%%%%%%%%%%%%%%%%%%%%%%%%%%%%%%%%%%%%%%%%%%%%%%%%%%%%%%%%%%
 total number of charges    =         99
 total charge               =     -1.0000000

%%%% DENSITY %%%%%%%%%%%%%%%%%%%%%%%%%%%%%%%%%%%%%%%%%%%%%%%%%%%%%%%%%%%%%%%%%%%
 density label              = vsoftcavity                                                                     
 integral of density        =      81.80036248    

%%%% ELECTRONS %%%%%%%%%%%%%%%%%%%%%%%%%%%%%%%%%%%%%%%%%%%%%%%%%%%%%%%%%%%%%%%%%
 number of electrons        =         89
 total electronic charge    =     89.0000000

%%%% BOUNDARY %%%%%%%%%%%%%%%%%%%%%%%%%%%%%%%%%%%%%%%%%%%%%%%%%%%%%%%%%%%%%%%%%%
 boundary label             = solvent              
 boundary mode              = full                 
 boundary is built as a function of a smooth density
 function type              =  2 
 using the modified SCCS function with parameters 
 rhomax                     =      0.0050000 
 rhomin                     =      0.0001000 
 volume of the QM region    =   1510.0032366 
 surface of the QM region   =    349.2017936 

%%%% DIELECTRIC %%%%%%%%%%%%%%%%%%%%%%%%%%%%%%%%%%%%%%%%%%%%%%%%%%%%%%%%%%%%%%%%%
 dielectric build on homogeneous background
 environment bulk permitt.  =    100.0000000 
 dielectric flags
 need gradient              =  F 
 need factor depend. sqrt   =  T 
 total dielectric charge    =      0.0141128

%%%% DENSITY %%%%%%%%%%%%%%%%%%%%%%%%%%%%%%%%%%%%%%%%%%%%%%%%%%%%%%%%%%%%%%%%%%%
 density label              = vreference                                                                      
 integral of density        =    -0.4906527031E-11

%%%% COMPUTE ELECTROSTATIC POTENTIAL %%%%%%%%%%%%%%%%%%%%%%%%%%%%%%%%%%%%%%%%%%%
 Warning: bad guess with residual norm =   0.126848E+05, reset to no guess
 Iteration #          1
  pAp =    1275.44654869648       rzold =    1274.11552235436       alpha = 
  0.998956423267225     
 delta_qm =   0.127589E+00 delta_en =   0.126584E+05 tol =   0.100000E-04
 Iteration #          2
  pAp =    697.871021054318       rzold =    26.5799014941436       alpha = 
  3.808712597635548E-002
 delta_qm =   0.117017E+00 delta_en =   0.106476E+05 tol =   0.100000E-04
 Iteration #          3
  pAp =    17.3628575655135       rzold =    2.12625669443922       alpha = 
  0.122460066634564     
 delta_qm =   0.718693E-01 delta_en =   0.401646E+04 tol =   0.100000E-04
 Iteration #          4
  pAp =   0.394821294618410       rzold =   0.124809559171484       alpha = 
  0.316116584573055     
 delta_qm =   0.683128E-01 delta_en =   0.362877E+04 tol =   0.100000E-04
 Iteration #          5
  pAp =    1.14495649824511       rzold =   0.273240060497393       alpha = 
  0.238646674276438     
 delta_qm =   0.290194E-01 delta_en =   0.654836E+03 tol =   0.100000E-04
 Iteration #          6
  pAp =   0.127166495518069       rzold =   0.128953046480676       alpha = 
   1.01404891245393     
 delta_qm =   0.391195E-01 delta_en =   0.118999E+04 tol =   0.100000E-04
 Iteration #          7
  pAp =   0.357492782924065       rzold =   0.209010725365774       alpha = 
  0.584657188478599     
 delta_qm =   0.486682E-01 delta_en =   0.184182E+04 tol =   0.100000E-04
 Iteration #          8
  pAp =   0.122405068449673       rzold =   8.192478926784542E-002  alpha = 
  0.669292459090685     
 delta_qm =   0.463402E-01 delta_en =   0.166983E+04 tol =   0.100000E-04
 Iteration #          9
  pAp =   4.614563877441507E-002  rzold =   7.363287863934184E-002  alpha = 
   1.59566278840129     
 delta_qm =   0.588322E-01 delta_en =   0.269145E+04 tol =   0.100000E-04
 Iteration #         10
  pAp =   0.308781672271949       rzold =   0.206923902453877       alpha = 
  0.670130130883013     
 delta_qm =   0.688533E-01 delta_en =   0.368643E+04 tol =   0.100000E-04
 Iteration #         11
  pAp =   0.330191851916020       rzold =   0.217234416341725       alpha = 
  0.657903625062728     
 delta_qm =   0.652084E-01 delta_en =   0.330646E+04 tol =   0.100000E-04
 Iteration #         12
  pAp =   0.257038552414218       rzold =   0.154180499376668       alpha = 
  0.599834141332255     
 delta_qm =   0.608253E-01 delta_en =   0.287690E+04 tol =   0.100000E-04
 Iteration #         13
  pAp =   0.168313309282772       rzold =   0.128785987440324       alpha = 
  0.765156290902459     
 delta_qm =   0.674100E-01 delta_en =   0.353350E+04 tol =   0.100000E-04
 Iteration #         14
  pAp =   0.213173554622625       rzold =   0.196308663874717       alpha = 
  0.920886571611741     
 delta_qm =   0.913831E-01 delta_en =   0.649364E+04 tol =   0.100000E-04
 Iteration #         15
  pAp =    29.4028696412838       rzold =    2.04791577023108       alpha = 
  6.965020065101576E-002
 delta_qm =   0.142297E+00 delta_en =   0.157451E+05 tol =   0.100000E-04
 Iteration #         16
  pAp =   0.738470226051444       rzold =   0.701288291707657       alpha = 
  0.949650056248583     
 delta_qm =   0.245148E+00 delta_en =   0.467320E+05 tol =   0.100000E-04
 Iteration #         17
  pAp =   -1.42165389177546       rzold =    2.21935031046779       alpha = 
  -1.56110451587911     
 delta_qm =   0.386821E+00 delta_en =   0.116353E+06 tol =   0.100000E-04
 Iteration #         18
  pAp =    19.9538460475415       rzold =    4.90332606288807       alpha = 
  0.245733381484729     
 delta_qm =   0.162923E+00 delta_en =   0.206404E+05 tol =   0.100000E-04
 Iteration #         19
  pAp =    3.70057549596795       rzold =    1.26966706587124       alpha = 
  0.343099895476971     
 delta_qm =   0.791526E-01 delta_en =   0.487177E+04 tol =   0.100000E-04
 Iteration #         20
  pAp =   0.454815295106908       rzold =   0.232378809101257       alpha = 
  0.510930066779383     
 delta_qm =   0.566060E-01 delta_en =   0.249162E+04 tol =   0.100000E-04
 Iteration #         21
  pAp =   0.230273279898904       rzold =   0.137665688526195       alpha = 
  0.597836138811386     
 delta_qm =   0.379196E-01 delta_en =   0.111811E+04 tol =   0.100000E-04
 Iteration #         22
  pAp =   0.301908453123435       rzold =   7.178217739150808E-002  alpha = 
  0.237761402997749     
 delta_qm =   0.326158E-01 delta_en =   0.827202E+03 tol =   0.100000E-04
 Iteration #         23
  pAp =   0.498960151273286       rzold =   9.206512291468993E-002  alpha = 
  0.184513979081798     
 delta_qm =   0.243857E-01 delta_en =   0.462410E+03 tol =   0.100000E-04
 Iteration #         24
  pAp =   4.835027182723934E-002  rzold =   2.294172845048796E-002  alpha = 
  0.474490164863213     
 delta_qm =   0.136940E-01 delta_en =   0.145821E+03 tol =   0.100000E-04
 Iteration #         25
  pAp =   1.219136902999944E-002  rzold =   7.108276920538063E-003  alpha = 
  0.583058137527184     
 delta_qm =   0.102094E-01 delta_en =   0.810504E+02 tol =   0.100000E-04
 Iteration #         26
  pAp =   7.623029390260603E-003  rzold =   4.238037606425240E-003  alpha = 
  0.555951891231047     
 delta_qm =   0.821695E-02 delta_en =   0.525023E+02 tol =   0.100000E-04
 Iteration #         27
  pAp =   5.053776318426371E-003  rzold =   2.381579403194819E-003  alpha = 
  0.471247489627002     
 delta_qm =   0.618465E-02 delta_en =   0.297432E+02 tol =   0.100000E-04
 Iteration #         28
  pAp =   9.328267473722855E-002  rzold =   4.807664814827767E-003  alpha = 
  5.153866812214226E-002
 delta_qm =   0.566998E-02 delta_en =   0.249988E+02 tol =   0.100000E-04
 Iteration #         29
  pAp =   3.203053684914867E-003  rzold =   1.399327080697605E-003  alpha = 
  0.436872815241246     
 delta_qm =   0.401597E-02 delta_en =   0.125411E+02 tol =   0.100000E-04
 Iteration #         30
  pAp =   1.222566467617311E-003  rzold =   7.635195753783101E-004  alpha = 
  0.624521934473102     
 delta_qm =   0.311338E-02 delta_en =   0.753737E+01 tol =   0.100000E-04
 Iteration #         31
  pAp =   3.139238861876832E-004  rzold =   2.684609812404925E-004  alpha = 
  0.855178573700473     
 delta_qm =   0.213195E-02 delta_en =   0.353434E+01 tol =   0.100000E-04
 Iteration #         32
  pAp =   1.813667979041361E-004  rzold =   1.378506951565608E-004  alpha = 
  0.760065771406648     
 delta_qm =   0.133344E-02 delta_en =   0.138263E+01 tol =   0.100000E-04
 Iteration #         33
  pAp =   9.788474231341603E-005  rzold =   6.762064541948524E-005  alpha = 
  0.690819057407042     
 delta_qm =   0.957958E-03 delta_en =   0.713590E+00 tol =   0.100000E-04
 Iteration #         34
  pAp =   1.717907733843282E-004  rzold =   5.172715934169930E-005  alpha = 
  0.301105573498851     
 delta_qm =   0.821312E-03 delta_en =   0.524533E+00 tol =   0.100000E-04
 Iteration #         35
  pAp =   8.573509876355192E-005  rzold =   4.004682558478231E-005  alpha = 
  0.467099544554408     
 delta_qm =   0.676218E-03 delta_en =   0.355574E+00 tol =   0.100000E-04
 Iteration #         36
  pAp =   1.306156842188841E-005  rzold =   1.231615458593842E-005  alpha = 
  0.942930755949581     
 delta_qm =   0.475841E-03 delta_en =   0.176067E+00 tol =   0.100000E-04
 Iteration #         37
  pAp =   1.422708133784275E-005  rzold =   9.207334959438065E-006  alpha = 
  0.647169629581535     
 delta_qm =   0.378301E-03 delta_en =   0.111284E+00 tol =   0.100000E-04
 Iteration #         38
  pAp =   5.872483179020009E-006  rzold =   4.484426531354742E-006  alpha = 
  0.763633780574421     
 delta_qm =   0.251520E-03 delta_en =   0.491928E-01 tol =   0.100000E-04
 Iteration #         39
  pAp =   3.456363581597279E-006  rzold =   1.807658912344595E-006  alpha = 
  0.522994433215625     
 delta_qm =   0.169302E-03 delta_en =   0.222885E-01 tol =   0.100000E-04
 Iteration #         40
  pAp =   3.080960284793558E-005  rzold =   3.548732445194825E-006  alpha = 
  0.115182674139294     
 delta_qm =   0.147162E-03 delta_en =   0.168403E-01 tol =   0.100000E-04
 Iteration #         41
  pAp =   1.294386200900726E-005  rzold =   1.312913437267725E-006  alpha = 
  0.101431353050126     
 delta_qm =   0.136942E-03 delta_en =   0.145824E-01 tol =   0.100000E-04
 Iteration #         42
  pAp =   8.706646171409246E-006  rzold =   1.942941452169103E-006  alpha = 
  0.223156128538829     
 delta_qm =   0.112794E-03 delta_en =   0.989301E-02 tol =   0.100000E-04
 Iteration #         43
  pAp =   6.790387416972737E-007  rzold =   4.879486260681741E-007  alpha = 
  0.718587314839408     
 delta_qm =   0.941966E-04 delta_en =   0.689965E-02 tol =   0.100000E-04
 Iteration #         44
  pAp =   3.344698511847343E-007  rzold =   2.547409923863118E-007  alpha = 
  0.761626171937432     
 delta_qm =   0.611090E-04 delta_en =   0.290380E-02 tol =   0.100000E-04
 Iteration #         45
  pAp =   1.588700739689753E-007  rzold =   1.312975319851906E-007  alpha = 
  0.826445967481773     
 delta_qm =   0.412398E-04 delta_en =   0.132248E-02 tol =   0.100000E-04
 Iteration #         46
  pAp =   5.997525198669731E-008  rzold =   4.428182869373112E-008  alpha = 
  0.738335016975885     
 delta_qm =   0.252320E-04 delta_en =   0.495062E-03 tol =   0.100000E-04
 Iteration #         47
  pAp =   3.309965768923772E-008  rzold =   2.114504286927569E-008  alpha = 
  0.638829654004275     
 delta_qm =   0.145368E-04 delta_en =   0.164320E-03 tol =   0.100000E-04
 Iteration #         48
  pAp =   1.154946504739496E-008  rzold =   6.850761272347319E-009  alpha = 
  0.593166977365116     
 delta_qm =   0.908563E-05 delta_en =   0.641898E-04 tol =   0.100000E-04
 Iteration #         49
  pAp =   5.343453364391989E-009  rzold =   3.137588419307923E-009  alpha = 
  0.587183644235835     
 delta_qm =   0.547291E-05 delta_en =   0.232912E-04 tol =   0.100000E-04
 Iteration #         50
  pAp =   1.171157445812841E-009  rzold =   8.145481383445166E-010  alpha = 
  0.695506945933457     
 delta_qm =   0.282095E-05 delta_en =   0.618796E-05 tol =   0.100000E-04
 Charges are converged, EXIT

%%%% DENSITY %%%%%%%%%%%%%%%%%%%%%%%%%%%%%%%%%%%%%%%%%%%%%%%%%%%%%%%%%%%%%%%%%%%
 density label              = velectrostatic                                                                  
 integral of density        =     0.9636878606E-13

%%%% CHARGES %%%%%%%%%%%%%%%%%%%%%%%%%%%%%%%%%%%%%%%%%%%%%%%%%%%%%%%%%%%%%%%%%%%
 total number of charges    =         99
 total charge               =     -1.0000000

%%%% DENSITY %%%%%%%%%%%%%%%%%%%%%%%%%%%%%%%%%%%%%%%%%%%%%%%%%%%%%%%%%%%%%%%%%%%
 density label              = vsoftcavity                                                                     
 integral of density        =      1423.534436    

%%%% ELECTRONS %%%%%%%%%%%%%%%%%%%%%%%%%%%%%%%%%%%%%%%%%%%%%%%%%%%%%%%%%%%%%%%%%
 number of electrons        =         89
 total electronic charge    =     89.0000000

%%%% BOUNDARY %%%%%%%%%%%%%%%%%%%%%%%%%%%%%%%%%%%%%%%%%%%%%%%%%%%%%%%%%%%%%%%%%%
 boundary label             = solvent              
 boundary mode              = full                 
 boundary is built as a function of a smooth density
 function type              =  2 
 using the modified SCCS function with parameters 
 rhomax                     =      0.0050000 
 rhomin                     =      0.0001000 
 volume of the QM region    =   1485.2951761 
 surface of the QM region   =    274.8010146 

%%%% DIELECTRIC %%%%%%%%%%%%%%%%%%%%%%%%%%%%%%%%%%%%%%%%%%%%%%%%%%%%%%%%%%%%%%%%%
 dielectric build on homogeneous background
 environment bulk permitt.  =    100.0000000 
 dielectric flags
 need gradient              =  F 
 need factor depend. sqrt   =  T 
 total dielectric charge    =      0.0827987

%%%% DENSITY %%%%%%%%%%%%%%%%%%%%%%%%%%%%%%%%%%%%%%%%%%%%%%%%%%%%%%%%%%%%%%%%%%%
 density label              = vreference                                                                      
 integral of density        =    -0.1599918130E-11

%%%% COMPUTE ELECTROSTATIC POTENTIAL %%%%%%%%%%%%%%%%%%%%%%%%%%%%%%%%%%%%%%%%%%%
 Warning: bad guess with residual norm =   0.373835E+04, reset to no guess
 Iteration #          1
  pAp =    1271.98777312702       rzold =    1271.08599419885       alpha = 
  0.999291047487075     
 delta_qm =   0.692877E-01 delta_en =   0.373309E+04 tol =   0.100000E-04
 Iteration #          2
  pAp =    313.772176162571       rzold =    14.6861316829212       alpha = 
  4.680507960435596E-002
 delta_qm =   0.622015E-01 delta_en =   0.300856E+04 tol =   0.100000E-04
 Iteration #          3
  pAp =    16.8894807890032       rzold =    1.95895501771111       alpha = 
  0.115986692674804     
 delta_qm =   0.430004E-01 delta_en =   0.143781E+04 tol =   0.100000E-04
 Iteration #          4
  pAp =   4.669780146423423E-002  rzold =   7.612090961413717E-002  alpha = 
   1.63007480496567     
 delta_qm =   0.148567E-01 delta_en =   0.171634E+03 tol =   0.100000E-04
 Iteration #          5
  pAp =   0.812341477208093       rzold =   0.212601584351256       alpha = 
  0.261714550243007     
 delta_qm =   0.134393E-01 delta_en =   0.140446E+03 tol =   0.100000E-04
 Iteration #          6
  pAp =    1.12235741584683       rzold =   0.238183335213854       alpha = 
  0.212217010241913     
 delta_qm =   0.149734E-01 delta_en =   0.174339E+03 tol =   0.100000E-04
 Iteration #          7
  pAp =   0.104225105090435       rzold =   4.752558651488609E-002  alpha = 
  0.455989816212212     
 delta_qm =   0.110286E-01 delta_en =   0.945798E+02 tol =   0.100000E-04
 Iteration #          8
  pAp =   2.871648393618653E-002  rzold =   1.693212778111962E-002  alpha = 
  0.589630952687175     
 delta_qm =   0.927335E-02 delta_en =   0.668697E+02 tol =   0.100000E-04
 Iteration #          9
  pAp =   6.666607667551520E-003  rzold =   7.764759218312980E-003  alpha = 
   1.16472419040144     
 delta_qm =   0.647262E-02 delta_en =   0.325774E+02 tol =   0.100000E-04
 Iteration #         10
  pAp =   1.284198012750613E-002  rzold =   8.781392607289043E-003  alpha = 
  0.683803628420219     
 delta_qm =   0.488935E-02 delta_en =   0.185891E+02 tol =   0.100000E-04
 Iteration #         11
  pAp =   8.840350097595867E-003  rzold =   3.216520426324362E-003  alpha = 
  0.363845367074217     
 delta_qm =   0.460601E-02 delta_en =   0.164970E+02 tol =   0.100000E-04
 Iteration #         12
  pAp =   2.689178134006998E-003  rzold =   1.555592036088297E-003  alpha = 
  0.578463738201825     
 delta_qm =   0.416121E-02 delta_en =   0.134646E+02 tol =   0.100000E-04
 Iteration #         13
  pAp =   2.139636002754949E-003  rzold =   1.840236621762056E-003  alpha = 
  0.860069946193001     
 delta_qm =   0.494805E-02 delta_en =   0.190382E+02 tol =   0.100000E-04
 Iteration #         14
  pAp =   3.689168339002158E-003  rzold =   2.383723724941258E-003  alpha = 
  0.646141218263302     
 delta_qm =   0.568611E-02 delta_en =   0.251413E+02 tol =   0.100000E-04
 Iteration #         15
  pAp =   9.392444561974400E-002  rzold =   5.786579335245342E-003  alpha = 
  6.160887399508841E-002
 delta_qm =   0.540180E-02 delta_en =   0.226900E+02 tol =   0.100000E-04
 Iteration #         16
  pAp =   5.778635812492931E-003  rzold =   2.032225764164649E-003  alpha = 
  0.351679155791605     
 delta_qm =   0.390847E-02 delta_en =   0.118787E+02 tol =   0.100000E-04
 Iteration #         17
  pAp =   2.074455324005110E-003  rzold =   9.190271618993045E-004  alpha = 
  0.443020946879182     
 delta_qm =   0.193569E-02 delta_en =   0.291358E+01 tol =   0.100000E-04
 Iteration #         18
  pAp =   8.194645740872069E-004  rzold =   3.759756637203397E-004  alpha = 
  0.458806488540563     
 delta_qm =   0.102638E-02 delta_en =   0.819173E+00 tol =   0.100000E-04
 Iteration #         19
  pAp =   1.045034249209276E-004  rzold =   7.201287106823607E-005  alpha = 
  0.689095798752285     
 delta_qm =   0.658552E-03 delta_en =   0.337238E+00 tol =   0.100000E-04
 Iteration #         20
  pAp =   3.973358112682552E-005  rzold =   2.335967304410093E-005  alpha = 
  0.587907567896768     
 delta_qm =   0.314840E-03 delta_en =   0.770788E-01 tol =   0.100000E-04
 Iteration #         21
  pAp =   1.690286868855067E-005  rzold =   8.480908815492460E-006  alpha = 
  0.501743755557723     
 delta_qm =   0.166485E-03 delta_en =   0.215529E-01 tol =   0.100000E-04
 Iteration #         22
  pAp =   3.073509338258366E-006  rzold =   1.830050950914517E-006  alpha = 
  0.595427164685803     
 delta_qm =   0.722149E-04 delta_en =   0.405518E-02 tol =   0.100000E-04
 Iteration #         23
  pAp =   1.091021841443862E-006  rzold =   5.568675506696264E-007  alpha = 
  0.510409168282705     
 delta_qm =   0.393737E-04 delta_en =   0.120550E-02 tol =   0.100000E-04
 Iteration #         24
  pAp =   2.314979866927250E-007  rzold =   1.090650180426417E-007  alpha = 
  0.471127285385023     
 delta_qm =   0.246401E-04 delta_en =   0.472107E-03 tol =   0.100000E-04
 Iteration #         25
  pAp =   7.900309575103377E-007  rzold =   1.064765814118710E-007  alpha = 
  0.134775201401494     
 delta_qm =   0.182999E-04 delta_en =   0.260408E-03 tol =   0.100000E-04
 Iteration #         26
  pAp =   7.293107332110050E-008  rzold =   2.971258204537760E-008  alpha = 
  0.407406345366113     
 delta_qm =   0.986382E-05 delta_en =   0.756565E-04 tol =   0.100000E-04
 Iteration #         27
  pAp =   7.613232376028577E-008  rzold =   1.250353243750839E-008  alpha = 
  0.164234215113119     
 delta_qm =   0.754673E-05 delta_en =   0.442867E-04 tol =   0.100000E-04
 Iteration #         28
  pAp =   2.048843050876501E-007  rzold =   2.822371955046890E-008  alpha = 
  0.137754424568513     
 delta_qm =   0.480023E-05 delta_en =   0.179176E-04 tol =   0.100000E-04
 Iteration #         29
  pAp =   3.329210611699899E-009  rzold =   1.929689307339769E-009  alpha = 
  0.579623680327772     
 delta_qm =   0.288034E-05 delta_en =   0.645125E-05 tol =   0.100000E-04
 Charges are converged, EXIT

%%%% DENSITY %%%%%%%%%%%%%%%%%%%%%%%%%%%%%%%%%%%%%%%%%%%%%%%%%%%%%%%%%%%%%%%%%%%
 density label              = velectrostatic                                                                  
 integral of density        =     0.3478954845E-11

%%%% CHARGES %%%%%%%%%%%%%%%%%%%%%%%%%%%%%%%%%%%%%%%%%%%%%%%%%%%%%%%%%%%%%%%%%%%
 total number of charges    =         99
 total charge               =     -1.0000000

%%%% DENSITY %%%%%%%%%%%%%%%%%%%%%%%%%%%%%%%%%%%%%%%%%%%%%%%%%%%%%%%%%%%%%%%%%%%
 density label              = vsoftcavity                                                                     
 integral of density        =      72.97191632    

%%%% ELECTRONS %%%%%%%%%%%%%%%%%%%%%%%%%%%%%%%%%%%%%%%%%%%%%%%%%%%%%%%%%%%%%%%%%
 number of electrons        =         89
 total electronic charge    =     89.0000000

%%%% BOUNDARY %%%%%%%%%%%%%%%%%%%%%%%%%%%%%%%%%%%%%%%%%%%%%%%%%%%%%%%%%%%%%%%%%%
 boundary label             = solvent              
 boundary mode              = full                 
 boundary is built as a function of a smooth density
 function type              =  2 
 using the modified SCCS function with parameters 
 rhomax                     =      0.0050000 
 rhomin                     =      0.0001000 
 volume of the QM region    =   1476.9417632 
 surface of the QM region   =    280.8581205 

%%%% DIELECTRIC %%%%%%%%%%%%%%%%%%%%%%%%%%%%%%%%%%%%%%%%%%%%%%%%%%%%%%%%%%%%%%%%%
 dielectric build on homogeneous background
 environment bulk permitt.  =    100.0000000 
 dielectric flags
 need gradient              =  F 
 need factor depend. sqrt   =  T 
 total dielectric charge    =      0.0177085

%%%% DENSITY %%%%%%%%%%%%%%%%%%%%%%%%%%%%%%%%%%%%%%%%%%%%%%%%%%%%%%%%%%%%%%%%%%%
 density label              = vreference                                                                      
 integral of density        =     0.1965461903E-11

%%%% COMPUTE ELECTROSTATIC POTENTIAL %%%%%%%%%%%%%%%%%%%%%%%%%%%%%%%%%%%%%%%%%%%
 Warning: bad guess with residual norm =   0.377922E+04, reset to no guess
 Iteration #          1
  pAp =    1270.78080992843       rzold =    1269.94012269337       alpha = 
  0.999338448276454     
 delta_qm =   0.696687E-01 delta_en =   0.377425E+04 tol =   0.100000E-04
 Iteration #          2
  pAp =    253.452803372408       rzold =    12.4104470908802       alpha = 
  4.896551517974352E-002
 delta_qm =   0.640231E-01 delta_en =   0.318735E+04 tol =   0.100000E-04
 Iteration #          3
  pAp =    22.2138815273929       rzold =    2.31487752702544       alpha = 
  0.104208601462597     
 delta_qm =   0.437314E-01 delta_en =   0.148711E+04 tol =   0.100000E-04
 Iteration #          4
  pAp =   7.408053922145090E-002  rzold =   7.887873033816697E-002  alpha = 
   1.06476992698950     
 delta_qm =   0.169162E-01 delta_en =   0.222518E+03 tol =   0.100000E-04
 Iteration #          5
  pAp =    1.84060285324999       rzold =   0.338622385861419       alpha = 
  0.183973628674706     
 delta_qm =   0.167599E-01 delta_en =   0.218424E+03 tol =   0.100000E-04
 Iteration #          6
  pAp =   0.518194321846417       rzold =   0.199535436518268       alpha = 
  0.385059094833938     
 delta_qm =   0.125432E-01 delta_en =   0.122342E+03 tol =   0.100000E-04
 Iteration #          7
  pAp =   0.112412995850795       rzold =   5.223192611433185E-002  alpha = 
  0.464643128839470     
 delta_qm =   0.100251E-01 delta_en =   0.781507E+02 tol =   0.100000E-04
 Iteration #          8
  pAp =   3.273913721334398E-002  rzold =   1.765878464446796E-002  alpha = 
  0.539378436560341     
 delta_qm =   0.918703E-02 delta_en =   0.656306E+02 tol =   0.100000E-04
 Iteration #          9
  pAp =   7.292026547640302E-003  rzold =   6.597062142840205E-003  alpha = 
  0.904695299686616     
 delta_qm =   0.680744E-02 delta_en =   0.360349E+02 tol =   0.100000E-04
 Iteration #         10
  pAp =   1.156422184851070E-002  rzold =   7.251367057460979E-003  alpha = 
  0.627051880572046     
 delta_qm =   0.357783E-02 delta_en =   0.995396E+01 tol =   0.100000E-04
 Iteration #         11
  pAp =   7.309295762385266E-003  rzold =   2.697665181986834E-003  alpha = 
  0.369073200713730     
 delta_qm =   0.276623E-02 delta_en =   0.595023E+01 tol =   0.100000E-04
 Iteration #         12
  pAp =   2.430587265956201E-003  rzold =   7.443598144081764E-004  alpha = 
  0.306246899600761     
 delta_qm =   0.224583E-02 delta_en =   0.392202E+01 tol =   0.100000E-04
 Iteration #         13
  pAp =   4.013960740819697E-004  rzold =   2.783032318429487E-004  alpha = 
  0.693338200876663     
 delta_qm =   0.148832E-02 delta_en =   0.172245E+01 tol =   0.100000E-04
 Iteration #         14
  pAp =   2.837547380111962E-004  rzold =   2.333032933090301E-004  alpha = 
  0.822200520577121     
 delta_qm =   0.192483E-02 delta_en =   0.288098E+01 tol =   0.100000E-04
 Iteration #         15
  pAp =   6.823655291787407E-004  rzold =   3.449987782092979E-004  alpha = 
  0.505592330586395     
 delta_qm =   0.224380E-02 delta_en =   0.391492E+01 tol =   0.100000E-04
 Iteration #         16
  pAp =   9.599540065947414E-003  rzold =   6.792692485061287E-004  alpha = 
  7.076060351221515E-002
 delta_qm =   0.234889E-02 delta_en =   0.429024E+01 tol =   0.100000E-04
 Iteration #         17
  pAp =   9.642394736152284E-004  rzold =   4.198743608796325E-004  alpha = 
  0.435446144208757     
 delta_qm =   0.170719E-02 delta_en =   0.226631E+01 tol =   0.100000E-04
 Iteration #         18
  pAp =   5.255950615046807E-004  rzold =   2.811190142899167E-004  alpha = 
  0.534858553436795     
 delta_qm =   0.853684E-03 delta_en =   0.566696E+00 tol =   0.100000E-04
 Iteration #         19
  pAp =   1.392177149574343E-004  rzold =   8.606017459096927E-005  alpha = 
  0.618169710782009     
 delta_qm =   0.639602E-03 delta_en =   0.318109E+00 tol =   0.100000E-04
 Iteration #         20
  pAp =   6.883809755921503E-005  rzold =   3.751411187412215E-005  alpha = 
  0.544961485053422     
 delta_qm =   0.421133E-03 delta_en =   0.137910E+00 tol =   0.100000E-04
 Iteration #         21
  pAp =   1.448873561349315E-005  rzold =   9.595858238915313E-006  alpha = 
  0.662297835704782     
 delta_qm =   0.182918E-03 delta_en =   0.260176E-01 tol =   0.100000E-04
 Iteration #         22
  pAp =   3.917459098238669E-006  rzold =   2.275009435779652E-006  alpha = 
  0.580735976746387     
 delta_qm =   0.776251E-04 delta_en =   0.468555E-02 tol =   0.100000E-04
 Iteration #         23
  pAp =   2.549324870279782E-006  rzold =   7.620720389803666E-007  alpha = 
  0.298930923973111     
 delta_qm =   0.524381E-04 delta_en =   0.213821E-02 tol =   0.100000E-04
 Iteration #         24
  pAp =   5.896119802567093E-006  rzold =   9.444137895017599E-007  alpha = 
  0.160175474909885     
 delta_qm =   0.394869E-04 delta_en =   0.121245E-02 tol =   0.100000E-04
 Iteration #         25
  pAp =   2.086463311408397E-007  rzold =   1.099986008943862E-007  alpha = 
  0.527201222724282     
 delta_qm =   0.225288E-04 delta_en =   0.394669E-03 tol =   0.100000E-04
 Iteration #         26
  pAp =   7.730126805196544E-008  rzold =   3.826654466139283E-008  alpha = 
  0.495031266960179     
 delta_qm =   0.118845E-04 delta_en =   0.109829E-03 tol =   0.100000E-04
 Iteration #         27
  pAp =   2.664518320553636E-008  rzold =   1.624617580258021E-008  alpha = 
  0.609722803452316     
 delta_qm =   0.808437E-05 delta_en =   0.508216E-04 tol =   0.100000E-04
 Iteration #         28
  pAp =   7.568590737615239E-009  rzold =   4.879718315143408E-009  alpha = 
  0.644732749373226     
 delta_qm =   0.515357E-05 delta_en =   0.206525E-04 tol =   0.100000E-04
 Iteration #         29
  pAp =   1.563067785855130E-008  rzold =   2.335967059911868E-009  alpha = 
  0.149447585130411     
 delta_qm =   0.431830E-05 delta_en =   0.145004E-04 tol =   0.100000E-04
 Iteration #         30
  pAp =   3.378756678061562E-008  rzold =   4.868623797276954E-009  alpha = 
  0.144095129101458     
 delta_qm =   0.282219E-05 delta_en =   0.619339E-05 tol =   0.100000E-04
 Charges are converged, EXIT

%%%% DENSITY %%%%%%%%%%%%%%%%%%%%%%%%%%%%%%%%%%%%%%%%%%%%%%%%%%%%%%%%%%%%%%%%%%%
 density label              = velectrostatic                                                                  
 integral of density        =     0.9788272971E-11

%%%% CHARGES %%%%%%%%%%%%%%%%%%%%%%%%%%%%%%%%%%%%%%%%%%%%%%%%%%%%%%%%%%%%%%%%%%%
 total number of charges    =         99
 total charge               =     -1.0000000

%%%% DENSITY %%%%%%%%%%%%%%%%%%%%%%%%%%%%%%%%%%%%%%%%%%%%%%%%%%%%%%%%%%%%%%%%%%%
 density label              = vsoftcavity                                                                     
 integral of density        =      67.65520294    

%%%% ELECTRONS %%%%%%%%%%%%%%%%%%%%%%%%%%%%%%%%%%%%%%%%%%%%%%%%%%%%%%%%%%%%%%%%%
 number of electrons        =         89
 total electronic charge    =     89.0000000

%%%% BOUNDARY %%%%%%%%%%%%%%%%%%%%%%%%%%%%%%%%%%%%%%%%%%%%%%%%%%%%%%%%%%%%%%%%%%
 boundary label             = solvent              
 boundary mode              = full                 
 boundary is built as a function of a smooth density
 function type              =  2 
 using the modified SCCS function with parameters 
 rhomax                     =      0.0050000 
 rhomin                     =      0.0001000 
 volume of the QM region    =   1467.6274363 
 surface of the QM region   =    270.6580304 

%%%% DIELECTRIC %%%%%%%%%%%%%%%%%%%%%%%%%%%%%%%%%%%%%%%%%%%%%%%%%%%%%%%%%%%%%%%%%
 dielectric build on homogeneous background
 environment bulk permitt.  =    100.0000000 
 dielectric flags
 need gradient              =  F 
 need factor depend. sqrt   =  T 
 total dielectric charge    =      0.0120010

%%%% DENSITY %%%%%%%%%%%%%%%%%%%%%%%%%%%%%%%%%%%%%%%%%%%%%%%%%%%%%%%%%%%%%%%%%%%
 density label              = vreference                                                                      
 integral of density        =    -0.1298565691E-11

%%%% COMPUTE ELECTROSTATIC POTENTIAL %%%%%%%%%%%%%%%%%%%%%%%%%%%%%%%%%%%%%%%%%%%
 Warning: bad guess with residual norm =   0.306348E+04, reset to no guess
 Iteration #          1
  pAp =    1270.20500106788       rzold =    1269.21553663580       alpha = 
  0.999221019889507     
 delta_qm =   0.627183E-01 delta_en =   0.305875E+04 tol =   0.100000E-04
 Iteration #          2
  pAp =    337.805280833070       rzold =    15.8466191122601       alpha = 
  4.691051327907106E-002
 delta_qm =   0.483248E-01 delta_en =   0.181592E+04 tol =   0.100000E-04
 Iteration #          3
  pAp =    21.3364994472416       rzold =    2.30270637157169       alpha = 
  0.107923344092388     
 delta_qm =   0.353904E-01 delta_en =   0.973931E+03 tol =   0.100000E-04
 Iteration #          4
  pAp =   0.341042205873699       rzold =   9.957871914544268E-002  alpha = 
  0.291983565172929     
 delta_qm =   0.238263E-01 delta_en =   0.441439E+03 tol =   0.100000E-04
 Iteration #          5
  pAp =   0.395889227339912       rzold =   0.205578576254035       alpha = 
  0.519283077327901     
 delta_qm =   0.148789E-01 delta_en =   0.172146E+03 tol =   0.100000E-04
 Iteration #          6
  pAp =   0.355719759230018       rzold =   0.165794207843102       alpha = 
  0.466080962727445     
 delta_qm =   0.795862E-02 delta_en =   0.492529E+02 tol =   0.100000E-04
 Iteration #          7
  pAp =   9.667387279871807E-002  rzold =   4.231607224071451E-002  alpha = 
  0.437719841107634     
 delta_qm =   0.781014E-02 delta_en =   0.474323E+02 tol =   0.100000E-04
 Iteration #          8
  pAp =   2.262395617995409E-002  rzold =   1.363797195501292E-002  alpha = 
  0.602811101937018     
 delta_qm =   0.709515E-02 delta_en =   0.391452E+02 tol =   0.100000E-04
 Iteration #          9
  pAp =   6.935748584123760E-003  rzold =   6.161347063416781E-003  alpha = 
  0.888346367906181     
 delta_qm =   0.526290E-02 delta_en =   0.215380E+02 tol =   0.100000E-04
 Iteration #         10
  pAp =   9.349341295061660E-003  rzold =   6.499056705474854E-003  alpha = 
  0.695135250748378     
 delta_qm =   0.281168E-02 delta_en =   0.614733E+01 tol =   0.100000E-04
 Iteration #         11
  pAp =   6.424038039705356E-003  rzold =   3.032317441157529E-003  alpha = 
  0.472026694489594     
 delta_qm =   0.269436E-02 delta_en =   0.564505E+01 tol =   0.100000E-04
 Iteration #         12
  pAp =   1.174026827615955E-003  rzold =   7.568991323839353E-004  alpha = 
  0.644703438268900     
 delta_qm =   0.236341E-02 delta_en =   0.434344E+01 tol =   0.100000E-04
 Iteration #         13
  pAp =   1.169588842618768E-003  rzold =   8.485947140268896E-004  alpha = 
  0.725549597520821     
 delta_qm =   0.204374E-02 delta_en =   0.324795E+01 tol =   0.100000E-04
 Iteration #         14
  pAp =   1.918527766757697E-003  rzold =   1.324889434142021E-003  alpha = 
  0.690576105854897     
 delta_qm =   0.256926E-02 delta_en =   0.513301E+01 tol =   0.100000E-04
 Iteration #         15
  pAp =   3.726333084656393E-002  rzold =   2.522767710301629E-003  alpha = 
  6.770107913029613E-002
 delta_qm =   0.248945E-02 delta_en =   0.481906E+01 tol =   0.100000E-04
 Iteration #         16
  pAp =   4.765657950068164E-003  rzold =   1.412276862545061E-003  alpha = 
  0.296344571377570     
 delta_qm =   0.217067E-02 delta_en =   0.366389E+01 tol =   0.100000E-04
 Iteration #         17
  pAp =   4.837592786111293E-004  rzold =   3.151905180071164E-004  alpha = 
  0.651544129369522     
 delta_qm =   0.102143E-02 delta_en =   0.811283E+00 tol =   0.100000E-04
 Iteration #         18
  pAp =   4.965680551212512E-004  rzold =   1.698627565122198E-004  alpha = 
  0.342073467594977     
 delta_qm =   0.603173E-03 delta_en =   0.282905E+00 tol =   0.100000E-04
 Iteration #         19
  pAp =   1.880904634249920E-004  rzold =   7.865463513818389E-005  alpha = 
  0.418174498089587     
 delta_qm =   0.441961E-03 delta_en =   0.151888E+00 tol =   0.100000E-04
 Iteration #         20
  pAp =   4.510201020733026E-005  rzold =   2.445871151766558E-005  alpha = 
  0.542297591731075     
 delta_qm =   0.309863E-03 delta_en =   0.746611E-01 tol =   0.100000E-04
 Iteration #         21
  pAp =   1.027788541095869E-005  rzold =   6.487145241099163E-006  alpha = 
  0.631175089204858     
 delta_qm =   0.117107E-03 delta_en =   0.106640E-01 tol =   0.100000E-04
 Iteration #         22
  pAp =   2.883780135849177E-006  rzold =   1.277439419625170E-006  alpha = 
  0.442973929858563     
 delta_qm =   0.581982E-04 delta_en =   0.263376E-02 tol =   0.100000E-04
 Iteration #         23
  pAp =   3.411286815866364E-006  rzold =   6.311773705776396E-007  alpha = 
  0.185026180631293     
 delta_qm =   0.422600E-04 delta_en =   0.138872E-02 tol =   0.100000E-04
 Iteration #         24
  pAp =   1.795887127057438E-006  rzold =   5.010690320726209E-007  alpha = 
  0.279009200814097     
 delta_qm =   0.288064E-04 delta_en =   0.645258E-03 tol =   0.100000E-04
 Iteration #         25
  pAp =   1.973771927566335E-007  rzold =   1.274997360177470E-007  alpha = 
  0.645969953453307     
 delta_qm =   0.247712E-04 delta_en =   0.477146E-03 tol =   0.100000E-04
 Iteration #         26
  pAp =   8.609372503188475E-008  rzold =   5.460858236120216E-008  alpha = 
  0.634292247675169     
 delta_qm =   0.153108E-04 delta_en =   0.182286E-03 tol =   0.100000E-04
 Iteration #         27
  pAp =   5.392030100609923E-008  rzold =   2.508363096996568E-008  alpha = 
  0.465198274155189     
 delta_qm =   0.882518E-05 delta_en =   0.605625E-04 tol =   0.100000E-04
 Iteration #         28
  pAp =   1.528356340581021E-006  rzold =   8.950897715868749E-008  alpha = 
  5.856551563404364E-002
 delta_qm =   0.618678E-05 delta_en =   0.297636E-04 tol =   0.100000E-04
 Iteration #         29
  pAp =   9.345183474141107E-009  rzold =   5.152464727108818E-009  alpha = 
  0.551349766579341     
 delta_qm =   0.375320E-05 delta_en =   0.109537E-04 tol =   0.100000E-04
 Iteration #         30
  pAp =   2.389078500179043E-009  rzold =   1.355108490415617E-009  alpha = 
  0.567209696254879     
 delta_qm =   0.196015E-05 delta_en =   0.298769E-05 tol =   0.100000E-04
 Charges are converged, EXIT

%%%% DENSITY %%%%%%%%%%%%%%%%%%%%%%%%%%%%%%%%%%%%%%%%%%%%%%%%%%%%%%%%%%%%%%%%%%%
 density label              = velectrostatic                                                                  
 integral of density        =     0.2876570536E-11

%%%% CHARGES %%%%%%%%%%%%%%%%%%%%%%%%%%%%%%%%%%%%%%%%%%%%%%%%%%%%%%%%%%%%%%%%%%%
 total number of charges    =         99
 total charge               =     -1.0000000

%%%% DENSITY %%%%%%%%%%%%%%%%%%%%%%%%%%%%%%%%%%%%%%%%%%%%%%%%%%%%%%%%%%%%%%%%%%%
 density label              = vsoftcavity                                                                     
 integral of density        =      58.28922845    

%%%% ELECTRONS %%%%%%%%%%%%%%%%%%%%%%%%%%%%%%%%%%%%%%%%%%%%%%%%%%%%%%%%%%%%%%%%%
 number of electrons        =         89
 total electronic charge    =     89.0000000

%%%% BOUNDARY %%%%%%%%%%%%%%%%%%%%%%%%%%%%%%%%%%%%%%%%%%%%%%%%%%%%%%%%%%%%%%%%%%
 boundary label             = solvent              
 boundary mode              = full                 
 boundary is built as a function of a smooth density
 function type              =  2 
 using the modified SCCS function with parameters 
 rhomax                     =      0.0050000 
 rhomin                     =      0.0001000 
 volume of the QM region    =   1468.7977534 
 surface of the QM region   =    270.5170727 

%%%% DIELECTRIC %%%%%%%%%%%%%%%%%%%%%%%%%%%%%%%%%%%%%%%%%%%%%%%%%%%%%%%%%%%%%%%%%
 dielectric build on homogeneous background
 environment bulk permitt.  =    100.0000000 
 dielectric flags
 need gradient              =  F 
 need factor depend. sqrt   =  T 
 total dielectric charge    =      0.0059206

%%%% DENSITY %%%%%%%%%%%%%%%%%%%%%%%%%%%%%%%%%%%%%%%%%%%%%%%%%%%%%%%%%%%%%%%%%%%
 density label              = vreference                                                                      
 integral of density        =     0.8633910639E-12

%%%% COMPUTE ELECTROSTATIC POTENTIAL %%%%%%%%%%%%%%%%%%%%%%%%%%%%%%%%%%%%%%%%%%%
 Warning: bad guess with residual norm =   0.338817E+04, reset to no guess
 Iteration #          1
  pAp =    1270.85705891448       rzold =    1269.68542428457       alpha = 
  0.999078075207833     
 delta_qm =   0.659490E-01 delta_en =   0.338199E+04 tol =   0.100000E-04
 Iteration #          2
  pAp =    452.436001901215       rzold =    20.3018747957580       alpha = 
  4.487236804862112E-002
 delta_qm =   0.487491E-01 delta_en =   0.184795E+04 tol =   0.100000E-04
 Iteration #          3
  pAp =    19.7316029185087       rzold =    2.24785760799411       alpha = 
  0.113921692894274     
 delta_qm =   0.360450E-01 delta_en =   0.101029E+04 tol =   0.100000E-04
 Iteration #          4
  pAp =   0.369569256519481       rzold =   0.101982148815303       alpha = 
  0.275948680839277     
 delta_qm =   0.243935E-01 delta_en =   0.462704E+03 tol =   0.100000E-04
 Iteration #          5
  pAp =   0.351181265216474       rzold =   0.197005153613350       alpha = 
  0.560978540503613     
 delta_qm =   0.143252E-01 delta_en =   0.159572E+03 tol =   0.100000E-04
 Iteration #          6
  pAp =   0.345307808768002       rzold =   0.160550880274375       alpha = 
  0.464950042245476     
 delta_qm =   0.878497E-02 delta_en =   0.600118E+02 tol =   0.100000E-04
 Iteration #          7
  pAp =   9.444700627110732E-002  rzold =   4.184226299098991E-002  alpha = 
  0.443023708669843     
 delta_qm =   0.854833E-02 delta_en =   0.568223E+02 tol =   0.100000E-04
 Iteration #          8
  pAp =   2.247017716185919E-002  rzold =   1.415425020401021E-002  alpha = 
  0.629912710614298     
 delta_qm =   0.762217E-02 delta_en =   0.451766E+02 tol =   0.100000E-04
 Iteration #          9
  pAp =   7.678342557049334E-003  rzold =   7.273868921032853E-003  alpha = 
  0.947322793557167     
 delta_qm =   0.577573E-02 delta_en =   0.259400E+02 tol =   0.100000E-04
 Iteration #         10
  pAp =   1.277879034075920E-002  rzold =   8.662010895330557E-003  alpha = 
  0.677842789837644     
 delta_qm =   0.355894E-02 delta_en =   0.984912E+01 tol =   0.100000E-04
 Iteration #         11
  pAp =   1.142036083602401E-002  rzold =   4.801426329543707E-003  alpha = 
  0.420426849771528     
 delta_qm =   0.364967E-02 delta_en =   0.103577E+02 tol =   0.100000E-04
 Iteration #         12
  pAp =   4.332270235649934E-003  rzold =   1.888548045390830E-003  alpha = 
  0.435925725466086     
 delta_qm =   0.347284E-02 delta_en =   0.937836E+01 tol =   0.100000E-04
 Iteration #         13
  pAp =   1.364503440579621E-003  rzold =   1.390492708229736E-003  alpha = 
   1.01904668531951     
 delta_qm =   0.287021E-02 delta_en =   0.640594E+01 tol =   0.100000E-04
 Iteration #         14
  pAp =   2.569429203791006E-003  rzold =   2.103295249158527E-003  alpha = 
  0.818584628078200     
 delta_qm =   0.300125E-02 delta_en =   0.700425E+01 tol =   0.100000E-04
 Iteration #         15
  pAp =   3.608770427015302E-002  rzold =   2.950376326018102E-003  alpha = 
  8.175572222415554E-002
 delta_qm =   0.304595E-02 delta_en =   0.721443E+01 tol =   0.100000E-04
 Iteration #         16
  pAp =   1.227072406932692E-002  rzold =   2.498985177603294E-003  alpha = 
  0.203654255729700     
 delta_qm =   0.253222E-02 delta_en =   0.498607E+01 tol =   0.100000E-04
 Iteration #         17
  pAp =   1.464318723188628E-003  rzold =   5.681131879560770E-004  alpha = 
  0.387970992216081     
 delta_qm =   0.162302E-02 delta_en =   0.204835E+01 tol =   0.100000E-04
 Iteration #         18
  pAp =   6.467639327614249E-004  rzold =   2.964211221915031E-004  alpha = 
  0.458314242919983     
 delta_qm =   0.679420E-03 delta_en =   0.358949E+00 tol =   0.100000E-04
 Iteration #         19
  pAp =   1.317704641812929E-004  rzold =   7.657354851875177E-005  alpha = 
  0.581113142421659     
 delta_qm =   0.467219E-03 delta_en =   0.169745E+00 tol =   0.100000E-04
 Iteration #         20
  pAp =   4.688208018589383E-005  rzold =   2.676595308118128E-005  alpha = 
  0.570920764928745     
 delta_qm =   0.327268E-03 delta_en =   0.832844E-01 tol =   0.100000E-04
 Iteration #         21
  pAp =   1.106615654598310E-005  rzold =   7.218412864405547E-006  alpha = 
  0.652296290442932     
 delta_qm =   0.124992E-03 delta_en =   0.121485E-01 tol =   0.100000E-04
 Iteration #         22
  pAp =   3.239684851049990E-006  rzold =   1.456772596181199E-006  alpha = 
  0.449664909754742     
 delta_qm =   0.720070E-04 delta_en =   0.403186E-02 tol =   0.100000E-04
 Iteration #         23
  pAp =   1.387821683241442E-005  rzold =   1.904277028839981E-006  alpha = 
  0.137213379199573     
 delta_qm =   0.525949E-04 delta_en =   0.215102E-02 tol =   0.100000E-04
 Iteration #         24
  pAp =   7.929810424486953E-007  rzold =   4.648464814854947E-007  alpha = 
  0.586201254004845     
 delta_qm =   0.422241E-04 delta_en =   0.138637E-02 tol =   0.100000E-04
 Iteration #         25
  pAp =   2.638529924838267E-007  rzold =   1.852547858730046E-007  alpha = 
  0.702113643393148     
 delta_qm =   0.295885E-04 delta_en =   0.680771E-03 tol =   0.100000E-04
 Iteration #         26
  pAp =   1.071187602216235E-007  rzold =   6.952014977910305E-008  alpha = 
  0.649000694512046     
 delta_qm =   0.146947E-04 delta_en =   0.167910E-03 tol =   0.100000E-04
 Iteration #         27
  pAp =   7.324743646038272E-008  rzold =   3.252876399171310E-008  alpha = 
  0.444094231329269     
 delta_qm =   0.724925E-05 delta_en =   0.408641E-04 tol =   0.100000E-04
 Iteration #         28
  pAp =   2.197784042447079E-007  rzold =   1.464876149586782E-008  alpha = 
  6.665241540091195E-002
 delta_qm =   0.687502E-05 delta_en =   0.367540E-04 tol =   0.100000E-04
 Iteration #         29
  pAp =   2.909849730689145E-008  rzold =   8.823959204364263E-009  alpha = 
  0.303244497861904     
 delta_qm =   0.436525E-05 delta_en =   0.148175E-04 tol =   0.100000E-04
 Iteration #         30
  pAp =   3.041101344425700E-009  rzold =   1.587609486757718E-009  alpha = 
  0.522050831902655     
 delta_qm =   0.208242E-05 delta_en =   0.337206E-05 tol =   0.100000E-04
 Charges are converged, EXIT

%%%% DENSITY %%%%%%%%%%%%%%%%%%%%%%%%%%%%%%%%%%%%%%%%%%%%%%%%%%%%%%%%%%%%%%%%%%%
 density label              = velectrostatic                                                                  
 integral of density        =    -0.6302270989E-11

%%%% CHARGES %%%%%%%%%%%%%%%%%%%%%%%%%%%%%%%%%%%%%%%%%%%%%%%%%%%%%%%%%%%%%%%%%%%
 total number of charges    =         99
 total charge               =     -1.0000000

%%%% DENSITY %%%%%%%%%%%%%%%%%%%%%%%%%%%%%%%%%%%%%%%%%%%%%%%%%%%%%%%%%%%%%%%%%%%
 density label              = vsoftcavity                                                                     
 integral of density        =      60.58848813    

%%%% ELECTRONS %%%%%%%%%%%%%%%%%%%%%%%%%%%%%%%%%%%%%%%%%%%%%%%%%%%%%%%%%%%%%%%%%
 number of electrons        =         89
 total electronic charge    =     89.0000000

%%%% BOUNDARY %%%%%%%%%%%%%%%%%%%%%%%%%%%%%%%%%%%%%%%%%%%%%%%%%%%%%%%%%%%%%%%%%%
 boundary label             = solvent              
 boundary mode              = full                 
 boundary is built as a function of a smooth density
 function type              =  2 
 using the modified SCCS function with parameters 
 rhomax                     =      0.0050000 
 rhomin                     =      0.0001000 
 volume of the QM region    =   1469.7705501 
 surface of the QM region   =    270.2642753 

%%%% DIELECTRIC %%%%%%%%%%%%%%%%%%%%%%%%%%%%%%%%%%%%%%%%%%%%%%%%%%%%%%%%%%%%%%%%%
 dielectric build on homogeneous background
[...]
  0.664268610330768     
 delta_qm =   0.107461E-03 delta_en =   0.897955E-02 tol =   0.100000E-04
 Iteration #         22
  pAp =   2.338665819622642E-006  rzold =   1.234876988535583E-006  alpha = 
  0.528026269582560     
 delta_qm =   0.650193E-04 delta_en =   0.328731E-02 tol =   0.100000E-04
 Iteration #         23
  pAp =   1.085099411718459E-005  rzold =   1.521456478328536E-006  alpha = 
  0.140213556647222     
 delta_qm =   0.541956E-04 delta_en =   0.228394E-02 tol =   0.100000E-04
 Iteration #         24
  pAp =   9.222562680364749E-007  rzold =   5.274451395333975E-007  alpha = 
  0.571907351365962     
 delta_qm =   0.465980E-04 delta_en =   0.168846E-02 tol =   0.100000E-04
 Iteration #         25
  pAp =   3.761700902259948E-007  rzold =   2.293376680470344E-007  alpha = 
  0.609664813885796     
 delta_qm =   0.292902E-04 delta_en =   0.667114E-03 tol =   0.100000E-04
 Iteration #         26
  pAp =   1.434274437166604E-007  rzold =   7.301084869577554E-008  alpha = 
  0.509043784117130     
 delta_qm =   0.146499E-04 delta_en =   0.166887E-03 tol =   0.100000E-04
 Iteration #         27
  pAp =   4.820598120425128E-008  rzold =   2.510347719196946E-008  alpha = 
  0.520754407748796     
 delta_qm =   0.567622E-05 delta_en =   0.250538E-04 tol =   0.100000E-04
 Iteration #         28
  pAp =   4.035631759676065E-008  rzold =   6.334501998873305E-009  alpha = 
  0.156964321228896     
 delta_qm =   0.488153E-05 delta_en =   0.185297E-04 tol =   0.100000E-04
 Iteration #         29
  pAp =   1.014719205322873E-007  rzold =   1.319167569881799E-008  alpha = 
  0.130003213003350     
 delta_qm =   0.349534E-05 delta_en =   0.950027E-05 tol =   0.100000E-04
 Charges are converged, EXIT

%%%% DENSITY %%%%%%%%%%%%%%%%%%%%%%%%%%%%%%%%%%%%%%%%%%%%%%%%%%%%%%%%%%%%%%%%%%%
 density label              = velectrostatic                                                                  
 integral of density        =    -0.8342491650E-11

%%%% CHARGES %%%%%%%%%%%%%%%%%%%%%%%%%%%%%%%%%%%%%%%%%%%%%%%%%%%%%%%%%%%%%%%%%%%
 total number of charges    =         99
 total charge               =     -1.0000000

%%%% DENSITY %%%%%%%%%%%%%%%%%%%%%%%%%%%%%%%%%%%%%%%%%%%%%%%%%%%%%%%%%%%%%%%%%%%
 density label              = vsoftcavity                                                                     
 integral of density        =      60.57352671    

%%%% ELECTRONS %%%%%%%%%%%%%%%%%%%%%%%%%%%%%%%%%%%%%%%%%%%%%%%%%%%%%%%%%%%%%%%%%
 number of electrons        =         89
 total electronic charge    =     89.0000000

%%%% BOUNDARY %%%%%%%%%%%%%%%%%%%%%%%%%%%%%%%%%%%%%%%%%%%%%%%%%%%%%%%%%%%%%%%%%%
 boundary label             = solvent              
 boundary mode              = full                 
 boundary is built as a function of a smooth density
 function type              =  2 
 using the modified SCCS function with parameters 
 rhomax                     =      0.0050000 
 rhomin                     =      0.0001000 
 volume of the QM region    =   1470.9253919 
 surface of the QM region   =    271.4432758 

%%%% DIELECTRIC %%%%%%%%%%%%%%%%%%%%%%%%%%%%%%%%%%%%%%%%%%%%%%%%%%%%%%%%%%%%%%%%%
 dielectric build on homogeneous background
 environment bulk permitt.  =    100.0000000 
 dielectric flags
 need gradient              =  F 
 need factor depend. sqrt   =  T 
 total dielectric charge    =      0.0050206

%%%% DENSITY %%%%%%%%%%%%%%%%%%%%%%%%%%%%%%%%%%%%%%%%%%%%%%%%%%%%%%%%%%%%%%%%%%%
 density label              = vreference                                                                      
 integral of density        =    -0.1249525254E-11

%%%% COMPUTE ELECTROSTATIC POTENTIAL %%%%%%%%%%%%%%%%%%%%%%%%%%%%%%%%%%%%%%%%%%%
 Warning: bad guess with residual norm =   0.358511E+04, reset to no guess
 Iteration #          1
  pAp =    1271.27676097693       rzold =    1269.86028450986       alpha = 
  0.998885784346450     
 delta_qm =   0.678257E-01 delta_en =   0.357722E+04 tol =   0.100000E-04
 Iteration #          2
  pAp =    585.625685363310       rzold =    25.8072536925731       alpha = 
  4.406783093293262E-002
 delta_qm =   0.454286E-01 delta_en =   0.160478E+04 tol =   0.100000E-04
 Iteration #          3
  pAp =    19.0088485925523       rzold =    2.22761572591856       alpha = 
  0.117188356521044     
 delta_qm =   0.352744E-01 delta_en =   0.967555E+03 tol =   0.100000E-04
 Iteration #          4
  pAp =   0.677781796103615       rzold =   0.132013256423333       alpha = 
  0.194772502274687     
 delta_qm =   0.254400E-01 delta_en =   0.503256E+03 tol =   0.100000E-04
 Iteration #          5
  pAp =   0.199601479082340       rzold =   0.143493643325885       alpha = 
  0.718900701465696     
 delta_qm =   0.151001E-01 delta_en =   0.177302E+03 tol =   0.100000E-04
 Iteration #          6
  pAp =   0.321373255637940       rzold =   0.160472033294859       alpha = 
  0.499332257677494     
 delta_qm =   0.803675E-02 delta_en =   0.502247E+02 tol =   0.100000E-04
 Iteration #          7
  pAp =   9.995459352533752E-002  rzold =   4.246125029972322E-002  alpha = 
  0.424805392149984     
 delta_qm =   0.795946E-02 delta_en =   0.492633E+02 tol =   0.100000E-04
 Iteration #          8
  pAp =   2.000392719395768E-002  rzold =   1.298599853923390E-002  alpha = 
  0.649172455654428     
 delta_qm =   0.699893E-02 delta_en =   0.380907E+02 tol =   0.100000E-04
 Iteration #          9
  pAp =   8.960491614426471E-003  rzold =   7.406242006706713E-003  alpha = 
  0.826544159115399     
 delta_qm =   0.538904E-02 delta_en =   0.225829E+02 tol =   0.100000E-04
 Iteration #         10
  pAp =   1.525106443088361E-002  rzold =   8.879312057519502E-003  alpha = 
  0.582209333503226     
 delta_qm =   0.347408E-02 delta_en =   0.938505E+01 tol =   0.100000E-04
 Iteration #         11
  pAp =   1.606516016355206E-002  rzold =   6.598945092151898E-003  alpha = 
  0.410761238915208     
 delta_qm =   0.326629E-02 delta_en =   0.829596E+01 tol =   0.100000E-04
 Iteration #         12
  pAp =   4.366259361019077E-003  rzold =   2.222735328240606E-003  alpha = 
  0.509070841756369     
 delta_qm =   0.337716E-02 delta_en =   0.886871E+01 tol =   0.100000E-04
 Iteration #         13
  pAp =   1.078408044129391E-003  rzold =   1.202370361342623E-003  alpha = 
   1.11494936252382     
 delta_qm =   0.266137E-02 delta_en =   0.550764E+01 tol =   0.100000E-04
 Iteration #         14
  pAp =   2.337623924041413E-003  rzold =   1.949088825586162E-003  alpha = 
  0.833790587759074     
 delta_qm =   0.240271E-02 delta_en =   0.448909E+01 tol =   0.100000E-04
 Iteration #         15
  pAp =   1.299343443520641E-002  rzold =   1.976127269431268E-003  alpha = 
  0.152086600296904     
 delta_qm =   0.240499E-02 delta_en =   0.449762E+01 tol =   0.100000E-04
 Iteration #         16
  pAp =   3.255574494466377E-002  rzold =   3.362529234601731E-003  alpha = 
  0.103285280073214     
 delta_qm =   0.205441E-02 delta_en =   0.328195E+01 tol =   0.100000E-04
 Iteration #         17
  pAp =   1.432360626968949E-003  rzold =   5.265994445106667E-004  alpha = 
  0.367644456707118     
 delta_qm =   0.141367E-02 delta_en =   0.155400E+01 tol =   0.100000E-04
 Iteration #         18
  pAp =   3.863164803506367E-004  rzold =   2.140654618156221E-004  alpha = 
  0.554119414272276     
 delta_qm =   0.624332E-03 delta_en =   0.303101E+00 tol =   0.100000E-04
 Iteration #         19
  pAp =   1.137749567631396E-004  rzold =   6.914427828730893E-005  alpha = 
  0.607728451448729     
 delta_qm =   0.410702E-03 delta_en =   0.131163E+00 tol =   0.100000E-04
 Iteration #         20
  pAp =   3.672721672337835E-005  rzold =   2.132384080847463E-005  alpha = 
  0.580600511306950     
 delta_qm =   0.281208E-03 delta_en =   0.614911E-01 tol =   0.100000E-04
 Iteration #         21
  pAp =   8.220353916260179E-006  rzold =   5.461192829541993E-006  alpha = 
  0.664350085796129     
 delta_qm =   0.107708E-03 delta_en =   0.902095E-02 tol =   0.100000E-04
 Iteration #         22
  pAp =   2.418959316963869E-006  rzold =   1.246222188780281E-006  alpha = 
  0.515189395720993     
 delta_qm =   0.657451E-04 delta_en =   0.336111E-02 tol =   0.100000E-04
 Iteration #         23
  pAp =   1.155573695701026E-005  rzold =   1.622176747775955E-006  alpha = 
  0.140378476406203     
 delta_qm =   0.545691E-04 delta_en =   0.231553E-02 tol =   0.100000E-04
 Iteration #         24
  pAp =   8.861247121644163E-007  rzold =   5.197924964554649E-007  alpha = 
  0.586590678851331     
 delta_qm =   0.467272E-04 delta_en =   0.169783E-02 tol =   0.100000E-04
 Iteration #         25
  pAp =   3.782723294464123E-007  rzold =   2.303944394782304E-007  alpha = 
  0.609070295507483     
 delta_qm =   0.293265E-04 delta_en =   0.668771E-03 tol =   0.100000E-04
 Iteration #         26
  pAp =   1.435219108182095E-007  rzold =   7.311593098636084E-008  alpha = 
  0.509440896999848     
 delta_qm =   0.146486E-04 delta_en =   0.166858E-03 tol =   0.100000E-04
 Iteration #         27
  pAp =   4.934715185339112E-008  rzold =   2.518174183928754E-008  alpha = 
  0.510297775930447     
 delta_qm =   0.585159E-05 delta_en =   0.266259E-04 tol =   0.100000E-04
 Iteration #         28
  pAp =   1.840034179267074E-007  rzold =   1.210448146333632E-008  alpha = 
  6.578400336105605E-002
 delta_qm =   0.526234E-05 delta_en =   0.215335E-04 tol =   0.100000E-04
 Iteration #         29
  pAp =   2.169973380191656E-008  rzold =   6.858603075742637E-009  alpha = 
  0.316068535141978     
 delta_qm =   0.349448E-05 delta_en =   0.949560E-05 tol =   0.100000E-04
 Charges are converged, EXIT

%%%% DENSITY %%%%%%%%%%%%%%%%%%%%%%%%%%%%%%%%%%%%%%%%%%%%%%%%%%%%%%%%%%%%%%%%%%%
 density label              = velectrostatic                                                                  
 integral of density        =     0.7754679186E-11

%%%% CHARGES %%%%%%%%%%%%%%%%%%%%%%%%%%%%%%%%%%%%%%%%%%%%%%%%%%%%%%%%%%%%%%%%%%%
 total number of charges    =         99
 total charge               =     -1.0000000

%%%% DENSITY %%%%%%%%%%%%%%%%%%%%%%%%%%%%%%%%%%%%%%%%%%%%%%%%%%%%%%%%%%%%%%%%%%%
 density label              = vsoftcavity                                                                     
 integral of density        =      60.58556907    

%%%% ELECTRONS %%%%%%%%%%%%%%%%%%%%%%%%%%%%%%%%%%%%%%%%%%%%%%%%%%%%%%%%%%%%%%%%%
 number of electrons        =         89
 total electronic charge    =     89.0000000

%%%% BOUNDARY %%%%%%%%%%%%%%%%%%%%%%%%%%%%%%%%%%%%%%%%%%%%%%%%%%%%%%%%%%%%%%%%%%
 boundary label             = solvent              
 boundary mode              = full                 
 boundary is built as a function of a smooth density
 function type              =  2 
 using the modified SCCS function with parameters 
 rhomax                     =      0.0050000 
 rhomin                     =      0.0001000 
 volume of the QM region    =   1470.9243363 
 surface of the QM region   =    271.4667095 

%%%% DIELECTRIC %%%%%%%%%%%%%%%%%%%%%%%%%%%%%%%%%%%%%%%%%%%%%%%%%%%%%%%%%%%%%%%%%
 dielectric build on homogeneous background
 environment bulk permitt.  =    100.0000000 
 dielectric flags
 need gradient              =  F 
 need factor depend. sqrt   =  T 
 total dielectric charge    =      0.0051079

%%%% DENSITY %%%%%%%%%%%%%%%%%%%%%%%%%%%%%%%%%%%%%%%%%%%%%%%%%%%%%%%%%%%%%%%%%%%
 density label              = vreference                                                                      
 integral of density        =    -0.5313691002E-12

%%%% COMPUTE ELECTROSTATIC POTENTIAL %%%%%%%%%%%%%%%%%%%%%%%%%%%%%%%%%%%%%%%%%%%
 Warning: bad guess with residual norm =   0.357886E+04, reset to no guess
 Iteration #          1
  pAp =    1271.27643684165       rzold =    1269.86274341860       alpha = 
  0.998887973235337     
 delta_qm =   0.677668E-01 delta_en =   0.357100E+04 tol =   0.100000E-04
 Iteration #          2
  pAp =    583.512728248393       rzold =    25.7266274793832       alpha = 
  4.408923102090712E-002
 delta_qm =   0.454480E-01 delta_en =   0.160615E+04 tol =   0.100000E-04
 Iteration #          3
  pAp =    19.0575699858446       rzold =    2.23148791952338       alpha = 
  0.117091944103097     
 delta_qm =   0.352829E-01 delta_en =   0.968023E+03 tol =   0.100000E-04
 Iteration #          4
  pAp =   0.679048230595480       rzold =   0.132160073025781       alpha = 
  0.194625458209184     
 delta_qm =   0.254471E-01 delta_en =   0.503537E+03 tol =   0.100000E-04
 Iteration #          5
  pAp =   0.199660630641598       rzold =   0.143417823529611       alpha = 
  0.718307976233202     
 delta_qm =   0.151250E-01 delta_en =   0.177888E+03 tol =   0.100000E-04
 Iteration #          6
  pAp =   0.321123340541781       rzold =   0.160532743206914       alpha = 
  0.499909919148424     
 delta_qm =   0.803389E-02 delta_en =   0.501889E+02 tol =   0.100000E-04
 Iteration #          7
  pAp =   0.100198594434706       rzold =   4.253294313726134E-002  alpha = 
  0.424486424956569     
 delta_qm =   0.795588E-02 delta_en =   0.492190E+02 tol =   0.100000E-04
 Iteration #          8
  pAp =   2.002751564146562E-002  rzold =   1.299198591653141E-002  alpha = 
  0.648706816617453     
 delta_qm =   0.699775E-02 delta_en =   0.380779E+02 tol =   0.100000E-04
 Iteration #          9
  pAp =   8.976876123585822E-003  rzold =   7.405010091869308E-003  alpha = 
  0.824898326536266     
 delta_qm =   0.539074E-02 delta_en =   0.225971E+02 tol =   0.100000E-04
 Iteration #         10
  pAp =   1.527234915898764E-002  rzold =   8.876909608354324E-003  alpha = 
  0.581240614390376     
 delta_qm =   0.347609E-02 delta_en =   0.939591E+01 tol =   0.100000E-04
 Iteration #         11
  pAp =   1.604537230167247E-002  rzold =   6.601742002737654E-003  alpha = 
  0.411442120420573     
 delta_qm =   0.326076E-02 delta_en =   0.826790E+01 tol =   0.100000E-04
 Iteration #         12
  pAp =   4.357224696631607E-003  rzold =   2.220135576355574E-003  alpha = 
  0.509529742193895     
 delta_qm =   0.337423E-02 delta_en =   0.885331E+01 tol =   0.100000E-04
 Iteration #         13
  pAp =   1.077245560389085E-003  rzold =   1.198677489591722E-003  alpha = 
   1.11272446475322     
 delta_qm =   0.265579E-02 delta_en =   0.548458E+01 tol =   0.100000E-04
 Iteration #         14
  pAp =   2.311403736221686E-003  rzold =   1.943362664360794E-003  alpha = 
  0.840771620252502     
 delta_qm =   0.242722E-02 delta_en =   0.458116E+01 tol =   0.100000E-04
 Iteration #         15
  pAp =   5.250133487528777E-003  rzold =   1.678914535580671E-003  alpha = 
  0.319785113953537     
 delta_qm =   0.219913E-02 delta_en =   0.376061E+01 tol =   0.100000E-04
 Iteration #         16
  pAp =   2.710643126938108E-002  rzold =   1.706827160873681E-003  alpha = 
  6.296760882727050E-002
 delta_qm =   0.203948E-02 delta_en =   0.323442E+01 tol =   0.100000E-04
 Iteration #         17
  pAp =   2.320499837492804E-003  rzold =   6.612354430157005E-004  alpha = 
  0.284953884646739     
 delta_qm =   0.141634E-02 delta_en =   0.155987E+01 tol =   0.100000E-04
 Iteration #         18
  pAp =   3.870392712341653E-004  rzold =   2.148169080163344E-004  alpha = 
  0.555026127791478     
 delta_qm =   0.626575E-03 delta_en =   0.305283E+00 tol =   0.100000E-04
 Iteration #         19
  pAp =   1.141672542567962E-004  rzold =   6.946484644615279E-005  alpha = 
  0.608448078202053     
 delta_qm =   0.411583E-03 delta_en =   0.131726E+00 tol =   0.100000E-04
 Iteration #         20
  pAp =   3.686482598221421E-005  rzold =   2.141011932407761E-005  alpha = 
  0.580773644080325     
 delta_qm =   0.282073E-03 delta_en =   0.618699E-01 tol =   0.100000E-04
 Iteration #         21
  pAp =   8.249322367761054E-006  rzold =   5.484944958539191E-006  alpha = 
  0.664896425914297     
 delta_qm =   0.107103E-03 delta_en =   0.891985E-02 tol =   0.100000E-04
 Iteration #         22
  pAp =   1.908911259513109E-006  rzold =   1.209460131398391E-006  alpha = 
  0.633586357339041     
 delta_qm =   0.607610E-04 delta_en =   0.287082E-02 tol =   0.100000E-04
 Iteration #         23
  pAp =   1.691826301648362E-006  rzold =   5.956154838616685E-007  alpha = 
  0.352054748930995     
 delta_qm =   0.470372E-04 delta_en =   0.172044E-02 tol =   0.100000E-04
 Iteration #         24
  pAp =   5.106022302424412E-006  rzold =   1.012076687431828E-006  alpha = 
  0.198212351511132     
 delta_qm =   0.473817E-04 delta_en =   0.174573E-02 tol =   0.100000E-04
 Iteration #         25
  pAp =   4.226682294039828E-007  rzold =   2.434727399331809E-007  alpha = 
  0.576037475720636     
 delta_qm =   0.295829E-04 delta_en =   0.680514E-03 tol =   0.100000E-04
 Iteration #         26
  pAp =   1.483755688839441E-007  rzold =   7.515239610889469E-008  alpha = 
  0.506501148903275     
 delta_qm =   0.148518E-04 delta_en =   0.171519E-03 tol =   0.100000E-04
 Iteration #         27
  pAp =   4.815628093578949E-008  rzold =   2.539210050176343E-008  alpha = 
  0.527285330352248     
 delta_qm =   0.572702E-05 delta_en =   0.255043E-04 tol =   0.100000E-04
 Iteration #         28
  pAp =   4.075439969653500E-008  rzold =   6.414465179915186E-009  alpha = 
  0.157393195033629     
 delta_qm =   0.492059E-05 delta_en =   0.188274E-04 tol =   0.100000E-04
 Iteration #         29
  pAp =   1.032060089267429E-007  rzold =   1.340632288491866E-008  alpha = 
  0.129898666020839     
 delta_qm =   0.350283E-05 delta_en =   0.954102E-05 tol =   0.100000E-04
 Charges are converged, EXIT

%%%% DENSITY %%%%%%%%%%%%%%%%%%%%%%%%%%%%%%%%%%%%%%%%%%%%%%%%%%%%%%%%%%%%%%%%%%%
 density label              = velectrostatic                                                                  
 integral of density        =     0.8374964000E-11

%%%% CHARGES %%%%%%%%%%%%%%%%%%%%%%%%%%%%%%%%%%%%%%%%%%%%%%%%%%%%%%%%%%%%%%%%%%%
 total number of charges    =         99
 total charge               =     -1.0000000

%%%% DENSITY %%%%%%%%%%%%%%%%%%%%%%%%%%%%%%%%%%%%%%%%%%%%%%%%%%%%%%%%%%%%%%%%%%%
 density label              = vsoftcavity                                                                     
 integral of density        =      60.59299832    

%%%% ELECTRONS %%%%%%%%%%%%%%%%%%%%%%%%%%%%%%%%%%%%%%%%%%%%%%%%%%%%%%%%%%%%%%%%%
 number of electrons        =         89
 total electronic charge    =     89.0000000

%%%% BOUNDARY %%%%%%%%%%%%%%%%%%%%%%%%%%%%%%%%%%%%%%%%%%%%%%%%%%%%%%%%%%%%%%%%%%
 boundary label             = solvent              
 boundary mode              = full                 
 boundary is built as a function of a smooth density
 function type              =  2 
 using the modified SCCS function with parameters 
 rhomax                     =      0.0050000 
 rhomin                     =      0.0001000 
 volume of the QM region    =   1470.9243363 
 surface of the QM region   =    271.4667095 

%%%% DIELECTRIC %%%%%%%%%%%%%%%%%%%%%%%%%%%%%%%%%%%%%%%%%%%%%%%%%%%%%%%%%%%%%%%%%
 dielectric build on homogeneous background
 environment bulk permitt.  =    100.0000000 
 dielectric flags
 need gradient              =  F 
 need factor depend. sqrt   =  T 
 total dielectric charge    =      0.0051275

%%%% DENSITY %%%%%%%%%%%%%%%%%%%%%%%%%%%%%%%%%%%%%%%%%%%%%%%%%%%%%%%%%%%%%%%%%%%
 density label              = vreference                                                                      
 integral of density        =    -0.5313691002E-12

%%%% DENSITY %%%%%%%%%%%%%%%%%%%%%%%%%%%%%%%%%%%%%%%%%%%%%%%%%%%%%%%%%%%%%%%%%%%
 density label              = velectrostatic                                                                  
 integral of density        =     0.8374964000E-11

%%%% CHARGES %%%%%%%%%%%%%%%%%%%%%%%%%%%%%%%%%%%%%%%%%%%%%%%%%%%%%%%%%%%%%%%%%%%
 total number of charges    =         99
 total charge               =     -1.0000000

%%%% DENSITY %%%%%%%%%%%%%%%%%%%%%%%%%%%%%%%%%%%%%%%%%%%%%%%%%%%%%%%%%%%%%%%%%%%
 density label              = vsoftcavity                                                                     
 integral of density        =      60.59299832    
