
     Program PWSCF v.6.7MaX starts on 18Mar2021 at 12:13:38 

     This program is part of the open-source Quantum ESPRESSO suite
     for quantum simulation of materials; please cite
         "P. Giannozzi et al., J. Phys.:Condens. Matter 21 395502 (2009);
         "P. Giannozzi et al., J. Phys.:Condens. Matter 29 465901 (2017);
          URL http://www.quantum-espresso.org", 
     in publications or presentations arising from this work. More details at
     http://www.quantum-espresso.org/quote

     Parallel version (MPI), running on     1 processors

     MPI processes distributed on     1 nodes
     Waiting for input...
     Reading input from standard input

     Current dimensions of program PWSCF are:
     Max number of different atomic species (ntypx) = 10
     Max number of k-points (npk) =  40000
     Max angular momentum in pseudopotentials (lmaxx) =  3
     file C.pbe-rrkjus.UPF: wavefunction(s)  2S 2P renormalized
     file H.pbe-rrkjus.UPF: wavefunction(s)  1S renormalized
     file N.pbe-rrkjus.UPF: wavefunction(s)  2S renormalized
     file O.pbe-rrkjus.UPF: wavefunction(s)  2S renormalized

     gamma-point specific algorithms are used

     Subspace diagonalization in iterative solution of the eigenvalue problem:
     a serial algorithm will be used


     G-vector sticks info
     --------------------
     sticks:   dense  smooth     PW     G-vecs:    dense   smooth      PW
     Sum        2385     949    241                87655    22119    2777



     bravais-lattice index     =            1
     lattice parameter (alat)  =      10.0000  a.u.
     unit-cell volume          =    1000.0000 (a.u.)^3
     number of atoms/cell      =           10
     number of atomic types    =            4
     number of electrons       =        24.00
     number of Kohn-Sham states=           12
     kinetic-energy cutoff     =      30.0000  Ry
     charge density cutoff     =     300.0000  Ry
     scf convergence threshold =      5.0E-06
     mixing beta               =       0.7000
     number of iterations used =            8  plain     mixing
     Exchange-correlation= SLA  PW   PBE  PBE
                           (   1   4   3   4   0   0   0)


     Environ Module
     ==============

     Plese cite
         O. Andreussi, I. Dabo and N. Marzari, J. Chem. Phys. 136, 064102 (2012)         
     in publications or presentations arising from this work.

     compensation onset threshold      =               0.1000E+03 

     Electrostatic Setup
     -------------------
     electrostatic problem to solve    = poisson                  
     numerical solver adopted          = direct                   
     type of auxiliary density adopted = none                     
     type of core tool for poisson     = fft                      



     celldm(1)=  10.000000  celldm(2)=   0.000000  celldm(3)=   0.000000
     celldm(4)=   0.000000  celldm(5)=   0.000000  celldm(6)=   0.000000

     crystal axes: (cart. coord. in units of alat)
               a(1) = (   1.000000   0.000000   0.000000 )  
               a(2) = (   0.000000   1.000000   0.000000 )  
               a(3) = (   0.000000   0.000000   1.000000 )  

     reciprocal axes: (cart. coord. in units 2 pi/alat)
               b(1) = (  1.000000  0.000000  0.000000 )  
               b(2) = (  0.000000  1.000000  0.000000 )  
               b(3) = (  0.000000  0.000000  1.000000 )  


     PseudoPot. # 1 for C  read from file:
     ../../../pseudo/C.pbe-rrkjus.UPF
     MD5 check sum: c9ac5a99bc85b198593446162950cd17
     Pseudo is Ultrasoft, Zval =  4.0
     Generated by new atomic code, or converted to UPF format
     Using radial grid of  627 points,  4 beta functions with: 
                l(1) =   0
                l(2) =   0
                l(3) =   1
                l(4) =   1
     Q(r) pseudized with 0 coefficients 


     PseudoPot. # 2 for H  read from file:
     ../../../pseudo/H.pbe-rrkjus.UPF
     MD5 check sum: 2d52a7f45632fd764c17cc6affed14c8
     Pseudo is Ultrasoft, Zval =  1.0
     Generated by new atomic code, or converted to UPF format
     Using radial grid of 1061 points,  2 beta functions with: 
                l(1) =   0
                l(2) =   0
     Q(r) pseudized with 0 coefficients 


     PseudoPot. # 3 for N  read from file:
     ../../../pseudo/N.pbe-rrkjus.UPF
     MD5 check sum: 28c76d763763edb36c62a6ca2be9aebd
     Pseudo is Ultrasoft, Zval =  5.0
     Generated by new atomic code, or converted to UPF format
     Using radial grid of 1257 points,  4 beta functions with: 
                l(1) =   0
                l(2) =   0
                l(3) =   1
                l(4) =   1
     Q(r) pseudized with 0 coefficients 


     PseudoPot. # 4 for O  read from file:
     ../../../pseudo/O.pbe-rrkjus.UPF
     MD5 check sum: fadcf19ee70a498d3030e2e79cf929a4
     Pseudo is Ultrasoft, Zval =  6.0
     Generated by new atomic code, or converted to UPF format
     Using radial grid of 1269 points,  4 beta functions with: 
                l(1) =   0
                l(2) =   0
                l(3) =   1
                l(4) =   1
     Q(r) pseudized with 0 coefficients 


     atomic species   valence    mass     pseudopotential
        C              4.00    12.00000     C ( 1.00)
        H              1.00     1.00000     H ( 1.00)
        N              5.00    14.00000     N ( 1.00)
        O              6.00    16.00000     O ( 1.00)

     No symmetry found



   Cartesian axes

     site n.     atom                  positions (alat units)
         1           C   tau(   1) = (   0.0000000   0.0000000   0.0000000  )
         2           C   tau(   2) = (   0.0000000   0.0000000   0.2910178  )
         3           N   tau(   3) = (   0.2341938   0.0000000  -0.1090048  )
         4           H   tau(   4) = (   0.0953235  -0.1650932   0.3584180  )
         5           H   tau(   5) = (  -0.1906366  -0.0000060   0.3584181  )
         6           H   tau(   6) = (   0.0953131   0.1650992   0.3584180  )
         7           O   tau(   7) = (  -0.1968004  -0.0000037  -0.1282619  )
         8           H   tau(   8) = (   0.2526261  -0.0000030  -0.2951095  )
         9           H   tau(   9) = (   0.3889291   0.0000268  -0.0051433  )
        10           H   tau(  10) = (  -0.1540732  -0.0000089  -0.3045722  )

     number of k points=     1
                       cart. coord. in units 2pi/alat
        k(    1) = (   0.0000000   0.0000000   0.0000000), wk =   2.0000000

     Dense  grid:    43828 G-vectors     FFT dimensions: (  60,  60,  60)

     Smooth grid:    11060 G-vectors     FFT dimensions: (  36,  36,  36)

     Estimated max dynamical RAM per process >      79.39 MB

     Initial potential from superposition of free atoms

     starting charge   24.42266, renormalised to   24.00000
     Starting wfcs are   22 randomized atomic wfcs

     total cpu time spent up to now is        1.3 secs

     Self-consistent Calculation

     iteration #  1     ecut=    30.00 Ry     beta= 0.70
     Davidson diagonalization with overlap
     ethr =  1.00E-02,  avg # of iterations =  2.0

     add environment contribution to local potential

     total cpu time spent up to now is        1.7 secs

     total energy              =     -80.55593011 Ry
     estimated scf accuracy    <       3.21197354 Ry
     electrostatic embedding   =       0.03926991 Ry
     correction to one-el term =      -0.00000000 Ry

     iteration #  2     ecut=    30.00 Ry     beta= 0.70
     Davidson diagonalization with overlap
     ethr =  1.00E-02,  avg # of iterations =  3.0

     add environment contribution to local potential

     total cpu time spent up to now is        2.0 secs

     total energy              =     -80.38537728 Ry
     estimated scf accuracy    <       1.54471906 Ry
     electrostatic embedding   =       1.28938235 Ry
     correction to one-el term =      -0.51668676 Ry

     iteration #  3     ecut=    30.00 Ry     beta= 0.70
     Davidson diagonalization with overlap
     ethr =  6.44E-03,  avg # of iterations =  2.0

     add environment contribution to local potential

     total cpu time spent up to now is        2.3 secs

     total energy              =     -80.46798611 Ry
     estimated scf accuracy    <       0.12470002 Ry
     electrostatic embedding   =       0.90769502 Ry
     correction to one-el term =       0.11953254 Ry

     iteration #  4     ecut=    30.00 Ry     beta= 0.70
     Davidson diagonalization with overlap
     ethr =  5.20E-04,  avg # of iterations =  4.0

     add environment contribution to local potential

     total cpu time spent up to now is        2.7 secs

     total energy              =     -80.52589478 Ry
     estimated scf accuracy    <       0.08636254 Ry
     electrostatic embedding   =       0.71142093 Ry
     correction to one-el term =       0.38143991 Ry

     iteration #  5     ecut=    30.00 Ry     beta= 0.70
     Davidson diagonalization with overlap
     ethr =  3.60E-04,  avg # of iterations =  2.0

     add environment contribution to local potential

     total cpu time spent up to now is        3.0 secs

     total energy              =     -80.52267391 Ry
     estimated scf accuracy    <       0.01780005 Ry
     electrostatic embedding   =       0.71993522 Ry
     correction to one-el term =       0.40858321 Ry

     iteration #  6     ecut=    30.00 Ry     beta= 0.70
     Davidson diagonalization with overlap
     ethr =  7.42E-05,  avg # of iterations =  3.0

     add environment contribution to local potential

     total cpu time spent up to now is        3.3 secs

     total energy              =     -80.52916832 Ry
     estimated scf accuracy    <       0.00380240 Ry
     electrostatic embedding   =       0.75616684 Ry
     correction to one-el term =       0.33312824 Ry

     iteration #  7     ecut=    30.00 Ry     beta= 0.70
     Davidson diagonalization with overlap
     ethr =  1.58E-05,  avg # of iterations =  3.0

     add environment contribution to local potential

     total cpu time spent up to now is        3.6 secs

     total energy              =     -80.52989198 Ry
     estimated scf accuracy    <       0.00012776 Ry
     electrostatic embedding   =       0.74240612 Ry
     correction to one-el term =       0.33117079 Ry

     iteration #  8     ecut=    30.00 Ry     beta= 0.70
     Davidson diagonalization with overlap
     ethr =  5.32E-07,  avg # of iterations =  5.0

     add environment contribution to local potential

     total cpu time spent up to now is        4.0 secs

     total energy              =     -80.52989186 Ry
     estimated scf accuracy    <       0.00013055 Ry
     electrostatic embedding   =       0.74555665 Ry
     correction to one-el term =       0.32226025 Ry

     iteration #  9     ecut=    30.00 Ry     beta= 0.70
     Davidson diagonalization with overlap
     ethr =  5.32E-07,  avg # of iterations =  2.0

     add environment contribution to local potential

     total cpu time spent up to now is        4.3 secs

     total energy              =     -80.52989733 Ry
     estimated scf accuracy    <       0.00001475 Ry
     electrostatic embedding   =       0.74675235 Ry
     correction to one-el term =       0.32093361 Ry

     iteration # 10     ecut=    30.00 Ry     beta= 0.70
     Davidson diagonalization with overlap
     ethr =  6.15E-08,  avg # of iterations =  5.0

     the potential shift due to the Gaussian-smeared nuclei is    -0.1781 ev

     total cpu time spent up to now is        4.6 secs

     End of self-consistent calculation

          k = 0.0000 0.0000 0.0000 (  1389 PWs)   bands (ev):

   -26.7315 -21.4071 -15.8773 -13.5380 -12.9599 -11.6202  -9.5888  -8.1134
    -6.5482  -6.5186  -5.6192  -5.4706

     highest occupied level (ev):    -5.4706

!    total energy              =     -80.52990241 Ry
     estimated scf accuracy    <       0.00000399 Ry

     The total energy is the sum of the following terms:
     one-electron contribution =    -116.26482373 Ry
     hartree contribution      =      62.38703978 Ry
     xc contribution           =     -22.86871614 Ry
     ewald contribution        =      -4.85220152 Ry
     electrostatic embedding   =       0.74632027 Ry
     correction to one-el term =       0.32247892 Ry

     convergence has been achieved in  10 iterations
 forces lc
       1   -0.0149    0.0000    0.0455
       2   -0.2330   -0.0000    2.0965
       3   -0.1879    0.0000   -0.1765
       4   -0.1615    0.2363    0.1793
       5    0.3534    0.0000    0.2517
       6   -0.1615   -0.2363    0.1793
       7    0.2246    0.0000   -0.3391
       8   -0.1067    0.0000   -0.0908
       9   -0.0122   -0.0000   -0.0018
      10    0.1599    0.0000   -0.2403

     Forces acting on atoms (cartesian axes, Ry/au):

     atom    1 type  1   force =     0.23199174    0.00000323    0.06042420
     atom    2 type  1   force =    -0.21564561    0.00000301    0.75035402
     atom    3 type  3   force =    -0.00958645   -0.00000099   -0.01519014
     atom    4 type  2   force =    -0.03615856   -0.01008060   -0.08870571
     atom    5 type  2   force =     0.05594630    0.00000498   -0.01499893
     atom    6 type  2   force =    -0.03616089    0.01008100   -0.08870183
     atom    7 type  4   force =     0.02142046   -0.00001666   -0.12410684
     atom    8 type  2   force =    -0.02007360    0.00000184   -0.14932583
     atom    9 type  2   force =    -0.01628535   -0.00000040   -0.07151487
     atom   10 type  2   force =     0.02455197    0.00000459   -0.25823407

     Total force =     0.894689     Total SCF correction =     0.003344

     Writing output data file ./tmp/pwscf.save/

     init_run     :      1.20s CPU      1.25s WALL (       1 calls)
     electrons    :      3.36s CPU      3.32s WALL (       1 calls)
     forces       :      0.22s CPU      0.24s WALL (       1 calls)

     Called by init_run:
     wfcinit      :      0.01s CPU      0.01s WALL (       1 calls)
     potinit      :      0.15s CPU      0.16s WALL (       1 calls)
     hinit0       :      0.95s CPU      0.97s WALL (       1 calls)

     Called by electrons:
     c_bands      :      0.21s CPU      0.21s WALL (      10 calls)
     sum_band     :      1.04s CPU      0.70s WALL (      10 calls)
     v_of_rho     :      0.78s CPU      0.87s WALL (      11 calls)
     newd         :      0.39s CPU      0.47s WALL (      11 calls)
     mix_rho      :      0.06s CPU      0.08s WALL (      10 calls)

     Called by c_bands:
     init_us_2    :      0.01s CPU      0.01s WALL (      21 calls)
     regterg      :      0.20s CPU      0.20s WALL (      10 calls)

     Called by *egterg:
     rdiaghg      :      0.01s CPU      0.01s WALL (      41 calls)
     h_psi        :      0.17s CPU      0.17s WALL (      42 calls)
     s_psi        :      0.01s CPU      0.01s WALL (      42 calls)
     g_psi        :      0.00s CPU      0.00s WALL (      31 calls)

     Called by h_psi:
     h_psi:calbec :      0.00s CPU      0.00s WALL (      42 calls)
     vloc_psi     :      0.15s CPU      0.15s WALL (      42 calls)
     add_vuspsi   :      0.01s CPU      0.02s WALL (      42 calls)

     General routines
     calbec       :      0.01s CPU      0.01s WALL (      56 calls)
     fft          :      0.60s CPU      0.63s WALL (     166 calls)
     ffts         :      0.01s CPU      0.01s WALL (      21 calls)
     fftw         :      0.14s CPU      0.14s WALL (     442 calls)
     interpolate  :      0.04s CPU      0.04s WALL (      11 calls)

     Parallel routines
     fft_scatt_xy :      0.03s CPU      0.03s WALL (      41 calls)
     fft_scatt_yz :      0.03s CPU      0.03s WALL (      41 calls)

     Environ routines
     calc_eelect  :      0.01s CPU      0.01s WALL (      20 calls)
     calc_velect  :      0.35s CPU      0.41s WALL (      18 calls)
     calc_felect  :      0.10s CPU      0.11s WALL (       1 calls)

     PWSCF        :      4.86s CPU      4.91s WALL


   This run was terminated on:  12:13:43  18Mar2021            

=------------------------------------------------------------------------------=
   JOB DONE.
=------------------------------------------------------------------------------=
