
     Program PWSCF v.6.4.1 starts on 24Apr2019 at 16:31:16 

     This program is part of the open-source Quantum ESPRESSO suite
     for quantum simulation of materials; please cite
         "P. Giannozzi et al., J. Phys.:Condens. Matter 21 395502 (2009);
         "P. Giannozzi et al., J. Phys.:Condens. Matter 29 465901 (2017);
          URL http://www.quantum-espresso.org", 
     in publications or presentations arising from this work. More details at
     http://www.quantum-espresso.org/quote

     Parallel version (MPI), running on     1 processors

     MPI processes distributed on     1 nodes
     Reading input from isolated.in

     Current dimensions of program PWSCF are:
     Max number of different atomic species (ntypx) = 10
     Max number of k-points (npk) =  40000
     Max angular momentum in pseudopotentials (lmaxx) =  3
               file C.pbe-rrkjus.UPF: wavefunction(s)  2S 2P renormalized
               file H.pbe-rrkjus.UPF: wavefunction(s)  1S renormalized
               file N.pbe-rrkjus.UPF: wavefunction(s)  2S renormalized
               file O.pbe-rrkjus.UPF: wavefunction(s)  2S renormalized

     gamma-point specific algorithms are used

     Subspace diagonalization in iterative solution of the eigenvalue problem:
     a serial algorithm will be used

 
     G-vector sticks info
     --------------------
     sticks:   dense  smooth     PW     G-vecs:    dense   smooth      PW
     Sum        9549    3809    949               701475   177509   22119
 


     bravais-lattice index     =            1
     lattice parameter (alat)  =      20.0000  a.u.
     unit-cell volume          =    8000.0000 (a.u.)^3
     number of atoms/cell      =           10
     number of atomic types    =            4
     number of electrons       =        24.00
     number of Kohn-Sham states=           12
     kinetic-energy cutoff     =      30.0000  Ry
     charge density cutoff     =     300.0000  Ry
     convergence threshold     =      5.0E-06
     mixing beta               =       0.7000
     number of iterations used =            8  plain     mixing
     Exchange-correlation      = SLA PW PBE PBE ( 1  4  3  4 0 0)
 

     Environ Module
     ==============

     Plese cite
         O. Andreussi, I. Dabo and N. Marzari, J. Chem. Phys. 136, 064102 (2012)         
     in publications or presentations arising from this work.

     compensation onset threshold      =               0.1000E+03 
     static permittivity               =                   100.00 
     epsilon calculation mode          =                     full 

     Electrostatic Setup
     -------------------
     electrostatic problem to solve    = generalized              
     numerical solver adopted          = cg                       
     type of auxiliary density adopted = none                     
     type of core tool for poisson     = fft                      
     type of core tool for s(r) deriv  = analytic                 



     celldm(1)=  20.000000  celldm(2)=   0.000000  celldm(3)=   0.000000
     celldm(4)=   0.000000  celldm(5)=   0.000000  celldm(6)=   0.000000

     crystal axes: (cart. coord. in units of alat)
               a(1) = (   1.000000   0.000000   0.000000 )  
               a(2) = (   0.000000   1.000000   0.000000 )  
               a(3) = (   0.000000   0.000000   1.000000 )  

     reciprocal axes: (cart. coord. in units 2 pi/alat)
               b(1) = (  1.000000  0.000000  0.000000 )  
               b(2) = (  0.000000  1.000000  0.000000 )  
               b(3) = (  0.000000  0.000000  1.000000 )  


     PseudoPot. # 1 for C  read from file:
     /home/fnattino/Programs/quantumespresso/q-e-qe-6.4.1-develop/Environ/tests/../..//pseudo/C.pbe-rrkjus.UPF
     MD5 check sum: c9ac5a99bc85b198593446162950cd17
     Pseudo is Ultrasoft, Zval =  4.0
     Generated by new atomic code, or converted to UPF format
     Using radial grid of  627 points,  4 beta functions with: 
                l(1) =   0
                l(2) =   0
                l(3) =   1
                l(4) =   1
     Q(r) pseudized with 0 coefficients 


     PseudoPot. # 2 for H  read from file:
     /home/fnattino/Programs/quantumespresso/q-e-qe-6.4.1-develop/Environ/tests/../..//pseudo/H.pbe-rrkjus.UPF
     MD5 check sum: 2d52a7f45632fd764c17cc6affed14c8
     Pseudo is Ultrasoft, Zval =  1.0
     Generated by new atomic code, or converted to UPF format
     Using radial grid of 1061 points,  2 beta functions with: 
                l(1) =   0
                l(2) =   0
     Q(r) pseudized with 0 coefficients 


     PseudoPot. # 3 for N  read from file:
     /home/fnattino/Programs/quantumespresso/q-e-qe-6.4.1-develop/Environ/tests/../..//pseudo/N.pbe-rrkjus.UPF
     MD5 check sum: 28c76d763763edb36c62a6ca2be9aebd
     Pseudo is Ultrasoft, Zval =  5.0
     Generated by new atomic code, or converted to UPF format
     Using radial grid of 1257 points,  4 beta functions with: 
                l(1) =   0
                l(2) =   0
                l(3) =   1
                l(4) =   1
     Q(r) pseudized with 0 coefficients 


     PseudoPot. # 4 for O  read from file:
     /home/fnattino/Programs/quantumespresso/q-e-qe-6.4.1-develop/Environ/tests/../..//pseudo/O.pbe-rrkjus.UPF
     MD5 check sum: fadcf19ee70a498d3030e2e79cf929a4
     Pseudo is Ultrasoft, Zval =  6.0
     Generated by new atomic code, or converted to UPF format
     Using radial grid of 1269 points,  4 beta functions with: 
                l(1) =   0
                l(2) =   0
                l(3) =   1
                l(4) =   1
     Q(r) pseudized with 0 coefficients 


     atomic species   valence    mass     pseudopotential
        C              4.00    12.00000     C ( 1.00)
        H              1.00     1.00000     H ( 1.00)
        N              5.00    14.00000     N ( 1.00)
        O              6.00    16.00000     O ( 1.00)

     No symmetry found



   Cartesian axes

     site n.     atom                  positions (alat units)
         1           C   tau(   1) = (   0.0000000   0.0000000   0.0000000  )
         2           C   tau(   2) = (   0.0000000   0.0000000   0.1455089  )
         3           N   tau(   3) = (   0.1170969   0.0000000  -0.0545024  )
         4           H   tau(   4) = (   0.0476617  -0.0825466   0.1792090  )
         5           H   tau(   5) = (  -0.0953183  -0.0000030   0.1792090  )
         6           H   tau(   6) = (   0.0476566   0.0825496   0.1792090  )
         7           O   tau(   7) = (  -0.0984002  -0.0000019  -0.0641310  )
         8           H   tau(   8) = (   0.1263131  -0.0000015  -0.1475548  )
         9           H   tau(   9) = (   0.1944645   0.0000134  -0.0025716  )
        10           H   tau(  10) = (  -0.0770366  -0.0000045  -0.1522861  )

     number of k points=     1
                       cart. coord. in units 2pi/alat
        k(    1) = (   0.0000000   0.0000000   0.0000000), wk =   2.0000000

     Dense  grid:   350738 G-vectors     FFT dimensions: ( 120, 120, 120)

     Smooth grid:    88755 G-vectors     FFT dimensions: (  72,  72,  72)

     Estimated max dynamical RAM per process >     691.80 MB

     Initial potential from superposition of free atoms

     starting charge   24.42266, renormalised to   24.00000

     negative rho (up, down):  4.438E-04 0.000E+00
     Starting wfcs are   22 randomized atomic wfcs

     total cpu time spent up to now is        6.1 secs

     Self-consistent Calculation

     iteration #  1     ecut=    30.00 Ry     beta= 0.70
     Davidson diagonalization with overlap
     ethr =  1.00E-02,  avg # of iterations =  2.0

     negative rho (up, down):  1.277E-04 0.000E+00

     add environment contribution to local potential
     polarization accuracy = 4.5E-06, # of iterations =  14

     total cpu time spent up to now is       10.4 secs

     total energy              =     -80.23414911 Ry
     Harris-Foulkes estimate   =     -83.01882218 Ry
     estimated scf accuracy    <       3.73443027 Ry
     electrostatic embedding   =       0.00490874 Ry
     correction to one-el term =       0.00000000 Ry

     iteration #  2     ecut=    30.00 Ry     beta= 0.70
     Davidson diagonalization with overlap
     ethr =  1.00E-02,  avg # of iterations =  4.0

     negative rho (up, down):  6.923E-04 0.000E+00

     add environment contribution to local potential
     polarization accuracy = 6.9E-06, # of iterations =  16

     total cpu time spent up to now is       15.4 secs

     total energy              =     -80.94319692 Ry
     Harris-Foulkes estimate   =     -76.59474973 Ry
     estimated scf accuracy    <       1.54267177 Ry
     electrostatic embedding   =      -0.16893896 Ry
     correction to one-el term =      -5.00567815 Ry

     iteration #  3     ecut=    30.00 Ry     beta= 0.70
     Davidson diagonalization with overlap
     ethr =  6.43E-03,  avg # of iterations =  3.0

     negative rho (up, down):  3.252E-04 0.000E+00

     add environment contribution to local potential
     polarization accuracy = 6.5E-06, # of iterations =  17

     total cpu time spent up to now is       20.0 secs

     total energy              =     -81.30223193 Ry
     Harris-Foulkes estimate   =     -77.01939321 Ry
     estimated scf accuracy    <       0.24366890 Ry
     electrostatic embedding   =      -0.13545829 Ry
     correction to one-el term =      -4.27719633 Ry

     iteration #  4     ecut=    30.00 Ry     beta= 0.70
     Davidson diagonalization with overlap
     ethr =  1.02E-03,  avg # of iterations =  4.0

     negative rho (up, down):  8.608E-05 0.000E+00

     add environment contribution to local potential
     polarization accuracy = 8.1E-06, # of iterations =  19

     total cpu time spent up to now is       24.7 secs

     total energy              =     -81.36192887 Ry
     Harris-Foulkes estimate   =     -77.22206245 Ry
     estimated scf accuracy    <       0.02087608 Ry
     electrostatic embedding   =      -0.11100330 Ry
     correction to one-el term =      -4.03947282 Ry

     iteration #  5     ecut=    30.00 Ry     beta= 0.70
     Davidson diagonalization with overlap
     ethr =  8.70E-05,  avg # of iterations =  4.0

     negative rho (up, down):  9.694E-05 0.000E+00

     add environment contribution to local potential
     polarization accuracy = 9.6E-06, # of iterations =  19

     total cpu time spent up to now is       29.5 secs

     total energy              =     -81.36835938 Ry
     Harris-Foulkes estimate   =     -77.45629608 Ry
     estimated scf accuracy    <       0.00248646 Ry
     electrostatic embedding   =      -0.10548428 Ry
     correction to one-el term =      -3.80782525 Ry

     iteration #  6     ecut=    30.00 Ry     beta= 0.70
     Davidson diagonalization with overlap
     ethr =  1.04E-05,  avg # of iterations =  3.0

     negative rho (up, down):  1.094E-04 0.000E+00

     add environment contribution to local potential
     polarization accuracy = 3.6E-06, # of iterations =  20

     total cpu time spent up to now is       34.3 secs

     total energy              =     -81.36930847 Ry
     Harris-Foulkes estimate   =     -77.49750297 Ry
     estimated scf accuracy    <       0.00027162 Ry
     electrostatic embedding   =      -0.10562812 Ry
     correction to one-el term =      -3.76626097 Ry

     iteration #  7     ecut=    30.00 Ry     beta= 0.70
     Davidson diagonalization with overlap
     ethr =  1.13E-06,  avg # of iterations =  3.0

     negative rho (up, down):  2.756E-04 0.000E+00

     add environment contribution to local potential
     polarization accuracy = 3.8E-06, # of iterations =  20

     total cpu time spent up to now is       39.1 secs

     total energy              =     -81.36957740 Ry
     Harris-Foulkes estimate   =     -77.50653963 Ry
     estimated scf accuracy    <       0.00003802 Ry
     electrostatic embedding   =      -0.10699660 Ry
     correction to one-el term =      -3.75605255 Ry

     iteration #  8     ecut=    30.00 Ry     beta= 0.70
     Davidson diagonalization with overlap
     ethr =  1.58E-07,  avg # of iterations =  3.0

     negative rho (up, down):  3.783E-04 0.000E+00

     add environment contribution to local potential
     polarization accuracy = 4.0E-06, # of iterations =  20

     total cpu time spent up to now is       43.9 secs

     total energy              =     -81.36967460 Ry
     Harris-Foulkes estimate   =     -77.50491811 Ry
     estimated scf accuracy    <       0.00000914 Ry
     electrostatic embedding   =      -0.10824361 Ry
     correction to one-el term =      -3.75651732 Ry

     iteration #  9     ecut=    30.00 Ry     beta= 0.70
     Davidson diagonalization with overlap
     ethr =  3.81E-08,  avg # of iterations =  4.0

     negative rho (up, down):  2.793E-04 0.000E+00

     the potential shift due to the Gaussian-smeared nuclei is    -0.0668 ev

     total cpu time spent up to now is       46.2 secs

     End of self-consistent calculation

          k = 0.0000 0.0000 0.0000 ( 11060 PWs)   bands (ev):

   -28.9383 -23.0919 -18.6526 -16.0235 -14.6353 -13.3888 -11.6851 -10.9627
    -9.6428  -9.6354  -9.3338  -7.3824

     highest occupied level (ev):    -7.3824

!    total energy              =     -81.36971802 Ry
     Harris-Foulkes estimate   =     -77.49694773 Ry
     estimated scf accuracy    <       0.00000298 Ry

     The total energy is the sum of the following terms:

     one-electron contribution =    -241.99990025 Ry
     hartree contribution      =     123.15853231 Ry
     xc contribution           =     -22.96341885 Ry
     ewald contribution        =      64.30784006 Ry
     electrostatic embedding   =      -0.10968523 Ry
     correction to one-el term =      -3.76308605 Ry

     convergence has been achieved in   9 iterations
 WARNING: Unphysical forces due to core electrons are non-negligible 
 atom type   4 is subject to a spurious force of     0.000098 
 WARNING: Unphysical forces due to core electrons are non-negligible 
 atom type   5 is subject to a spurious force of     0.000063 
 WARNING: Unphysical forces due to core electrons are non-negligible 
 atom type   6 is subject to a spurious force of     0.000124 
 WARNING: Unphysical forces due to core electrons are non-negligible 
 atom type   8 is subject to a spurious force of     0.003572 
 WARNING: Unphysical forces due to core electrons are non-negligible 
 atom type   9 is subject to a spurious force of     0.006779 
 WARNING: Unphysical forces due to core electrons are non-negligible 
 atom type  10 is subject to a spurious force of     0.081230 

     Forces acting on atoms (cartesian axes, Ry/au):

     atom    1 type  1   force =     0.21818592   -0.00087582    0.09544800
     atom    2 type  1   force =    -0.03186186   -0.00087622   -0.07993207
     atom    3 type  3   force =    -0.14113186   -0.00088047    0.04394396
     atom    4 type  2   force =     0.01725985   -0.02884433    0.00855581
     atom    5 type  2   force =    -0.03203375   -0.00088020    0.01140235
     atom    6 type  2   force =     0.01725816    0.02708741    0.00855704
     atom    7 type  4   force =    -0.09385825   -0.00088277   -0.00108814
     atom    8 type  2   force =     0.00614750   -0.00061619   -0.05395554
     atom    9 type  2   force =     0.04256502   -0.00060673    0.03779140
     atom   10 type  2   force =    -0.00253072    0.00737533   -0.07072280

     Total force =     0.330907     Total SCF correction =     0.002701

     Writing output data file pwscf.save/
 
     init_run     :      5.05s CPU      5.45s WALL (       1 calls)
     electrons    :     33.35s CPU     40.11s WALL (       1 calls)
     forces       :      2.26s CPU      2.61s WALL (       1 calls)

     Called by init_run:
     wfcinit      :      0.14s CPU      0.14s WALL (       1 calls)
     potinit      :      1.49s CPU      1.58s WALL (       1 calls)
     hinit0       :      2.99s CPU      3.04s WALL (       1 calls)

     Called by electrons:
     c_bands      :      2.21s CPU      2.22s WALL (       9 calls)
     sum_band     :      3.94s CPU      5.36s WALL (       9 calls)
     v_of_rho     :      4.62s CPU      5.00s WALL (      10 calls)
     newd         :      2.68s CPU      4.49s WALL (      10 calls)
     mix_rho      :      0.51s CPU      0.52s WALL (       9 calls)

     Called by c_bands:
     init_us_2    :      0.09s CPU      0.09s WALL (      19 calls)
     regterg      :      2.08s CPU      2.10s WALL (       9 calls)

     Called by sum_band:
     sum_band:bec :      0.00s CPU      0.00s WALL (       9 calls)
     addusdens    :      3.24s CPU      4.66s WALL (       9 calls)

     Called by *egterg:
     h_psi        :      2.02s CPU      2.03s WALL (      40 calls)
     s_psi        :      0.03s CPU      0.04s WALL (      40 calls)
     g_psi        :      0.01s CPU      0.02s WALL (      30 calls)
     rdiaghg      :      0.01s CPU      0.01s WALL (      39 calls)

     Called by h_psi:
     h_psi:pot    :      2.02s CPU      2.02s WALL (      40 calls)
     h_psi:calbec :      0.04s CPU      0.04s WALL (      40 calls)
     vloc_psi     :      1.93s CPU      1.94s WALL (      40 calls)
     add_vuspsi   :      0.05s CPU      0.04s WALL (      40 calls)

     General routines
     calbec       :      0.04s CPU      0.06s WALL (      53 calls)
     fft          :     10.59s CPU     10.75s WALL (     559 calls)
     ffts         :      0.06s CPU      0.06s WALL (      19 calls)
     fftw         :      1.73s CPU      1.74s WALL (     422 calls)
     interpolate  :      0.27s CPU      0.31s WALL (      10 calls)
 
     Parallel routines
 
     Environ routines
     calc_eelect  :      0.03s CPU      0.04s WALL (      18 calls)
     calc_velect  :     12.90s CPU     15.52s WALL (      16 calls)
     dielectric   :      0.53s CPU      0.58s WALL (      12 calls)
     calc_felect  :      0.10s CPU      0.10s WALL (       1 calls)
 
     PWSCF        :     41.30s CPU     48.85s WALL

 
   This run was terminated on:  16:32: 5  24Apr2019            

=------------------------------------------------------------------------------=
   JOB DONE.
=------------------------------------------------------------------------------=

%%%% IONS %%%%%%%%%%%%%%%%%%%%%%%%%%%%%%%%%%%%%%%%%%%%%%%%%%%%%%%%%%%%%%%%%%%%%%
 number of ions             =         10
 ionic center of charge     =      0.0095530    -0.0000002     0.0063981
 total ionic charge         =    -25.0000000
 ionic dipole               =      0.0000000     0.0000000     0.0000000
 ionic quadrupole (pc)      =    -79.0828058    -5.4513517  -105.8059629
 ionic quadrupole (gauss)   =    -82.2078058    -8.5763517  -108.9309629
 ion   1 type =  1 coordinates =      0.0000000     0.0000000     0.0000000
 ion   2 type =  1 coordinates =      0.0000000     0.0000000     2.9101782
 ion   3 type =  3 coordinates =      2.3419379     0.0000000    -1.0900479
 ion   4 type =  2 coordinates =      0.9532347    -1.6509323     3.5841800
 ion   5 type =  2 coordinates =     -1.9063663    -0.0000596     3.5841809
 ion   6 type =  2 coordinates =      0.9531315     1.6509919     3.5841800
 ion   7 type =  4 coordinates =     -1.9680045    -0.0000375    -1.2826193
 ion   8 type =  2 coordinates =      2.5262613    -0.0000303    -2.9510950
 ion   9 type =  2 coordinates =      3.8892907     0.0002681    -0.0514326
 ion  10 type =  2 coordinates =     -1.5407317    -0.0000890    -3.0457220

%%%% SYSTEM %%%%%%%%%%%%%%%%%%%%%%%%%%%%%%%%%%%%%%%%%%%%%%%%%%%%%%%%%%%%%%%%%%%%
 system is built from all present ionic types
 system defined dimension   =  0 
 system defined axis        =  3 
 system center              =      0.0095530    -0.0000002     0.0063981 
 system width               =      0.2021425 

%%%% ELECTRONS %%%%%%%%%%%%%%%%%%%%%%%%%%%%%%%%%%%%%%%%%%%%%%%%%%%%%%%%%%%%%%%%%
 number of electrons        =         24
 total electronic charge    =     24.0000000

%%%% BOUNDARY %%%%%%%%%%%%%%%%%%%%%%%%%%%%%%%%%%%%%%%%%%%%%%%%%%%%%%%%%%%%%%%%%%
 boundary label             = solvent              
 boundary mode              = full                 
 boundary is built as a function of a smooth density
 function type              =  2 
 using the modified SCCS function with parameters 
 rhomax                     =      0.0050000 
 rhomin                     =      0.0001000 
 volume of the QM region    =   2771.6247532 
 surface of the QM region   =    905.6004067 

%%%% DIELECTRIC %%%%%%%%%%%%%%%%%%%%%%%%%%%%%%%%%%%%%%%%%%%%%%%%%%%%%%%%%%%%%%%%%
 dielectric build on homogeneous background
 environment bulk permitt.  =    100.0000000 
 dielectric flags
 need gradient              =  F 
 need factor depend. sqrt   =  T 
 total dielectric charge    =      0.0000000

%%%% DENSITY %%%%%%%%%%%%%%%%%%%%%%%%%%%%%%%%%%%%%%%%%%%%%%%%%%%%%%%%%%%%%%%%%%%
 density label              = vreference                                                                      
 integral of density        =      0.000000000    

%%%% DENSITY %%%%%%%%%%%%%%%%%%%%%%%%%%%%%%%%%%%%%%%%%%%%%%%%%%%%%%%%%%%%%%%%%%%
 density label              = velectrostatic                                                                  
 integral of density        =      0.000000000    

%%%% CHARGES %%%%%%%%%%%%%%%%%%%%%%%%%%%%%%%%%%%%%%%%%%%%%%%%%%%%%%%%%%%%%%%%%%%
 total number of charges    =         34
 total charge               =     -1.0000000

%%%% DENSITY %%%%%%%%%%%%%%%%%%%%%%%%%%%%%%%%%%%%%%%%%%%%%%%%%%%%%%%%%%%%%%%%%%%
 density label              = vsoftcavity                                                                     
 integral of density        =      0.000000000    

%%%% ELECTRONS %%%%%%%%%%%%%%%%%%%%%%%%%%%%%%%%%%%%%%%%%%%%%%%%%%%%%%%%%%%%%%%%%
 number of electrons        =         24
 total electronic charge    =     24.0000000

%%%% BOUNDARY %%%%%%%%%%%%%%%%%%%%%%%%%%%%%%%%%%%%%%%%%%%%%%%%%%%%%%%%%%%%%%%%%%
 boundary label             = solvent              
 boundary mode              = full                 
 boundary is built as a function of a smooth density
 function type              =  2 
 using the modified SCCS function with parameters 
 rhomax                     =      0.0050000 
 rhomin                     =      0.0001000 
 volume of the QM region    =    989.6663966 
 surface of the QM region   =    490.3840420 

%%%% DIELECTRIC %%%%%%%%%%%%%%%%%%%%%%%%%%%%%%%%%%%%%%%%%%%%%%%%%%%%%%%%%%%%%%%%%
 dielectric build on homogeneous background
 environment bulk permitt.  =    100.0000000 
 dielectric flags
 need gradient              =  F 
 need factor depend. sqrt   =  T 
 total dielectric charge    =      0.0000000

%%%% DENSITY %%%%%%%%%%%%%%%%%%%%%%%%%%%%%%%%%%%%%%%%%%%%%%%%%%%%%%%%%%%%%%%%%%%
 density label              = vreference                                                                      
 integral of density        =    -0.2329659099E-12

%%%% COMPUTE ELECTROSTATIC POTENTIAL %%%%%%%%%%%%%%%%%%%%%%%%%%%%%%%%%%%%%%%%%%%
 Iteration #          1
  pAp =    91.8848767618365       rzold =    89.1036163634378       alpha = 
  0.969731031956351     
 delta_qm =   0.139321E-01 delta_en =   0.335410E+03 tol =   0.100000E-04
 Iteration #          2
  pAp =    127.782295428535       rzold =    16.9664733909410       alpha = 
  0.132776401723272     
 delta_qm =   0.285950E-02 delta_en =   0.141294E+02 tol =   0.100000E-04
 Iteration #          3
  pAp =   0.809832666098925       rzold =   0.175208116396641       alpha = 
  0.216351011426401     
 delta_qm =   0.148915E-02 delta_en =   0.383198E+01 tol =   0.100000E-04
 Iteration #          4
  pAp =   0.107706571023679       rzold =   2.392163661445930E-002  alpha = 
  0.222100066756374     
 delta_qm =   0.108793E-02 delta_en =   0.204524E+01 tol =   0.100000E-04
 Iteration #          5
  pAp =   1.049020341647735E-002  rzold =   3.965808315795594E-003  alpha = 
  0.378048752569121     
 delta_qm =   0.567065E-03 delta_en =   0.555661E+00 tol =   0.100000E-04
 Iteration #          6
  pAp =   3.254157232893306E-003  rzold =   1.258788259097898E-003  alpha = 
  0.386824658124677     
 delta_qm =   0.271790E-03 delta_en =   0.127647E+00 tol =   0.100000E-04
 Iteration #          7
  pAp =   5.234699878346518E-004  rzold =   2.097931746220575E-004  alpha = 
  0.400774026205156     
 delta_qm =   0.159581E-03 delta_en =   0.440052E-01 tol =   0.100000E-04
 Iteration #          8
  pAp =   4.001943480384413E-004  rzold =   1.215411429559439E-004  alpha = 
  0.303705296068472     
 delta_qm =   0.940940E-04 delta_en =   0.152992E-01 tol =   0.100000E-04
 Iteration #          9
  pAp =   1.271115918286744E-004  rzold =   5.264092746661193E-005  alpha = 
  0.414131604437487     
 delta_qm =   0.406574E-04 delta_en =   0.285643E-02 tol =   0.100000E-04
 Iteration #         10
  pAp =   2.828766294907162E-005  rzold =   1.181770547365232E-005  alpha = 
  0.417768887268227     
 delta_qm =   0.207941E-04 delta_en =   0.747180E-03 tol =   0.100000E-04
 Iteration #         11
  pAp =   2.032124362549305E-006  rzold =   1.121284334801696E-006  alpha = 
  0.551779386865399     
 delta_qm =   0.112669E-04 delta_en =   0.219359E-03 tol =   0.100000E-04
 Iteration #         12
  pAp =   4.036722878805702E-007  rzold =   2.638280535171757E-007  alpha = 
  0.653569891810932     
 delta_qm =   0.507761E-05 delta_en =   0.445515E-04 tol =   0.100000E-04
 Iteration #         13
  pAp =   2.875375701249106E-007  rzold =   1.170108413183454E-007  alpha = 
  0.406941052146730     
 delta_qm =   0.268245E-05 delta_en =   0.124339E-04 tol =   0.100000E-04
 Iteration #         14
  pAp =   1.231819031865410E-007  rzold =   4.139978899773140E-008  alpha = 
  0.336086616027011     
 delta_qm =   0.161846E-05 delta_en =   0.452635E-05 tol =   0.100000E-04
 Charges are converged, EXIT

%%%% DENSITY %%%%%%%%%%%%%%%%%%%%%%%%%%%%%%%%%%%%%%%%%%%%%%%%%%%%%%%%%%%%%%%%%%%
 density label              = velectrostatic                                                                  
 integral of density        =     0.9201528428E-12

%%%% CHARGES %%%%%%%%%%%%%%%%%%%%%%%%%%%%%%%%%%%%%%%%%%%%%%%%%%%%%%%%%%%%%%%%%%%
 total number of charges    =         34
 total charge               =     -1.0000000

%%%% DENSITY %%%%%%%%%%%%%%%%%%%%%%%%%%%%%%%%%%%%%%%%%%%%%%%%%%%%%%%%%%%%%%%%%%%
 density label              = vsoftcavity                                                                     
 integral of density        =      68.71137977    

%%%% ELECTRONS %%%%%%%%%%%%%%%%%%%%%%%%%%%%%%%%%%%%%%%%%%%%%%%%%%%%%%%%%%%%%%%%%
 number of electrons        =         24
 total electronic charge    =     24.0000000

%%%% BOUNDARY %%%%%%%%%%%%%%%%%%%%%%%%%%%%%%%%%%%%%%%%%%%%%%%%%%%%%%%%%%%%%%%%%%
 boundary label             = solvent              
 boundary mode              = full                 
 boundary is built as a function of a smooth density
 function type              =  2 
 using the modified SCCS function with parameters 
 rhomax                     =      0.0050000 
 rhomin                     =      0.0001000 
 volume of the QM region    =    837.7877251 
 surface of the QM region   =    449.0553288 

%%%% DIELECTRIC %%%%%%%%%%%%%%%%%%%%%%%%%%%%%%%%%%%%%%%%%%%%%%%%%%%%%%%%%%%%%%%%%
 dielectric build on homogeneous background
 environment bulk permitt.  =    100.0000000 
 dielectric flags
 need gradient              =  F 
 need factor depend. sqrt   =  T 
 total dielectric charge    =     -0.0007396

%%%% DENSITY %%%%%%%%%%%%%%%%%%%%%%%%%%%%%%%%%%%%%%%%%%%%%%%%%%%%%%%%%%%%%%%%%%%
 density label              = vreference                                                                      
 integral of density        =    -0.2406634562E-12

%%%% COMPUTE ELECTROSTATIC POTENTIAL %%%%%%%%%%%%%%%%%%%%%%%%%%%%%%%%%%%%%%%%%%%
 Warning: bad guess with residual norm =   0.684133E+03, reset to no guess
 Iteration #          1
  pAp =    95.3170667966680       rzold =    92.7138085436810       alpha = 
  0.972688435130507     
 delta_qm =   0.194478E-01 delta_en =   0.653557E+03 tol =   0.100000E-04
 Iteration #          2
  pAp =    161.059738670960       rzold =    18.6950909036296       alpha = 
  0.116075507497396     
 delta_qm =   0.400929E-02 delta_en =   0.277765E+02 tol =   0.100000E-04
 Iteration #          3
  pAp =    1.05588450348541       rzold =   0.185440273419436       alpha = 
  0.175625527988439     
 delta_qm =   0.223551E-02 delta_en =   0.863569E+01 tol =   0.100000E-04
 Iteration #          4
  pAp =   0.116520287595927       rzold =   2.295633919037528E-002  alpha = 
  0.197015812988585     
 delta_qm =   0.169510E-02 delta_en =   0.496519E+01 tol =   0.100000E-04
 Iteration #          5
  pAp =   1.171743259948813E-002  rzold =   4.633022604479408E-003  alpha = 
  0.395395711914042     
 delta_qm =   0.917068E-03 delta_en =   0.145327E+01 tol =   0.100000E-04
 Iteration #          6
  pAp =   5.265561173335633E-003  rzold =   1.837228217095218E-003  alpha = 
  0.348914039095926     
 delta_qm =   0.505093E-03 delta_en =   0.440846E+00 tol =   0.100000E-04
 Iteration #          7
  pAp =   9.129522656191312E-004  rzold =   4.317974097225424E-004  alpha = 
  0.472968221870519     
 delta_qm =   0.298238E-03 delta_en =   0.153698E+00 tol =   0.100000E-04
 Iteration #          8
  pAp =   7.359054552108541E-004  rzold =   2.719141012675127E-004  alpha = 
  0.369495971720447     
 delta_qm =   0.164372E-03 delta_en =   0.466872E-01 tol =   0.100000E-04
 Iteration #          9
  pAp =   8.079084646137957E-004  rzold =   2.019232867242558E-004  alpha = 
  0.249933371871257     
 delta_qm =   0.814487E-04 delta_en =   0.114634E-01 tol =   0.100000E-04
 Iteration #         10
  pAp =   1.321400611587150E-004  rzold =   4.703847258982194E-005  alpha = 
  0.355974351588376     
 delta_qm =   0.410304E-04 delta_en =   0.290908E-02 tol =   0.100000E-04
 Iteration #         11
  pAp =   7.986149481593483E-006  rzold =   3.654033855442738E-006  alpha = 
  0.457546388765271     
 delta_qm =   0.240673E-04 delta_en =   0.100092E-02 tol =   0.100000E-04
 Iteration #         12
  pAp =   2.195099959708017E-006  rzold =   9.625922329663347E-007  alpha = 
  0.438518632697882     
 delta_qm =   0.160446E-04 delta_en =   0.444839E-03 tol =   0.100000E-04
 Iteration #         13
  pAp =   8.728813596580839E-007  rzold =   4.453281334529315E-007  alpha = 
  0.510181742943131     
 delta_qm =   0.922714E-05 delta_en =   0.147122E-03 tol =   0.100000E-04
 Iteration #         14
  pAp =   5.660077841372709E-007  rzold =   2.159759072427711E-007  alpha = 
  0.381577627191063     
 delta_qm =   0.616745E-05 delta_en =   0.657288E-04 tol =   0.100000E-04
 Iteration #         15
  pAp =   2.187864111661500E-007  rzold =   8.188112011824477E-008  alpha = 
  0.374251397432827     
 delta_qm =   0.373249E-05 delta_en =   0.240736E-04 tol =   0.100000E-04
 Iteration #         16
  pAp =   8.286550921237019E-008  rzold =   3.015378474683482E-008  alpha = 
  0.363888245344101     
 delta_qm =   0.199114E-05 delta_en =   0.685087E-05 tol =   0.100000E-04
 Charges are converged, EXIT

%%%% DENSITY %%%%%%%%%%%%%%%%%%%%%%%%%%%%%%%%%%%%%%%%%%%%%%%%%%%%%%%%%%%%%%%%%%%
 density label              = velectrostatic                                                                  
 integral of density        =     0.6900817366E-12

%%%% CHARGES %%%%%%%%%%%%%%%%%%%%%%%%%%%%%%%%%%%%%%%%%%%%%%%%%%%%%%%%%%%%%%%%%%%
 total number of charges    =         34
 total charge               =     -1.0000000

%%%% DENSITY %%%%%%%%%%%%%%%%%%%%%%%%%%%%%%%%%%%%%%%%%%%%%%%%%%%%%%%%%%%%%%%%%%%
 density label              = vsoftcavity                                                                     
 integral of density        =      48.06623759    

%%%% ELECTRONS %%%%%%%%%%%%%%%%%%%%%%%%%%%%%%%%%%%%%%%%%%%%%%%%%%%%%%%%%%%%%%%%%
 number of electrons        =         24
 total electronic charge    =     24.0000000

%%%% BOUNDARY %%%%%%%%%%%%%%%%%%%%%%%%%%%%%%%%%%%%%%%%%%%%%%%%%%%%%%%%%%%%%%%%%%
 boundary label             = solvent              
 boundary mode              = full                 
 boundary is built as a function of a smooth density
 function type              =  2 
 using the modified SCCS function with parameters 
 rhomax                     =      0.0050000 
 rhomin                     =      0.0001000 
 volume of the QM region    =    757.3764321 
 surface of the QM region   =    424.3028417 

%%%% DIELECTRIC %%%%%%%%%%%%%%%%%%%%%%%%%%%%%%%%%%%%%%%%%%%%%%%%%%%%%%%%%%%%%%%%%
 dielectric build on homogeneous background
 environment bulk permitt.  =    100.0000000 
 dielectric flags
 need gradient              =  F 
 need factor depend. sqrt   =  T 
 total dielectric charge    =      0.0000064

%%%% DENSITY %%%%%%%%%%%%%%%%%%%%%%%%%%%%%%%%%%%%%%%%%%%%%%%%%%%%%%%%%%%%%%%%%%%
 density label              = vreference                                                                      
 integral of density        =    -0.1269766185E-12

%%%% COMPUTE ELECTROSTATIC POTENTIAL %%%%%%%%%%%%%%%%%%%%%%%%%%%%%%%%%%%%%%%%%%%
 Warning: bad guess with residual norm =   0.846583E+03, reset to no guess
 Iteration #          1
  pAp =    95.8281533414847       rzold =    93.3773767474141       alpha = 
  0.974425296652256     
 delta_qm =   0.216423E-01 delta_en =   0.809380E+03 tol =   0.100000E-04
 Iteration #          2
  pAp =    201.856482248123       rzold =    20.4608263230178       alpha = 
  0.101363236370419     
 delta_qm =   0.418441E-02 delta_en =   0.302561E+02 tol =   0.100000E-04
 Iteration #          3
  pAp =    1.13951181446481       rzold =   0.208833350455961       alpha = 
  0.183265629899628     
 delta_qm =   0.208117E-02 delta_en =   0.748443E+01 tol =   0.100000E-04
 Iteration #          4
  pAp =   0.107388725595429       rzold =   1.955980711337713E-002  alpha = 
  0.182140229385585     
 delta_qm =   0.166551E-02 delta_en =   0.479334E+01 tol =   0.100000E-04
 Iteration #          5
  pAp =   1.872650247577556E-002  rzold =   5.492532073592963E-003  alpha = 
  0.293302611136172     
 delta_qm =   0.104407E-02 delta_en =   0.188366E+01 tol =   0.100000E-04
 Iteration #          6
  pAp =   7.057279988353028E-003  rzold =   2.375585092321348E-003  alpha = 
  0.336614828410080     
 delta_qm =   0.596796E-03 delta_en =   0.615453E+00 tol =   0.100000E-04
 Iteration #          7
  pAp =   1.629424108636184E-003  rzold =   6.940652044737304E-004  alpha = 
  0.425957367879292     
 delta_qm =   0.375307E-03 delta_en =   0.243399E+00 tol =   0.100000E-04
 Iteration #          8
  pAp =   8.105160768237971E-004  rzold =   3.763215708182743E-004  alpha = 
  0.464298712362352     
 delta_qm =   0.202951E-03 delta_en =   0.711745E-01 tol =   0.100000E-04
 Iteration #          9
  pAp =   1.265345195348673E-003  rzold =   3.075145381037111E-004  alpha = 
  0.243028178582504     
 delta_qm =   0.134328E-03 delta_en =   0.311802E-01 tol =   0.100000E-04
 Iteration #         10
  pAp =   5.844640387906202E-004  rzold =   1.567900945445443E-004  alpha = 
  0.268263030979590     
 delta_qm =   0.625949E-04 delta_en =   0.677052E-02 tol =   0.100000E-04
 Iteration #         11
  pAp =   4.553132209892736E-005  rzold =   1.589041572411314E-005  alpha = 
  0.348999655436921     
 delta_qm =   0.378102E-04 delta_en =   0.247037E-02 tol =   0.100000E-04
 Iteration #         12
  pAp =   1.456783017810722E-005  rzold =   4.146816090619935E-006  alpha = 
  0.284655713302578     
 delta_qm =   0.262930E-04 delta_en =   0.119460E-02 tol =   0.100000E-04
 Iteration #         13
  pAp =   2.212598285587432E-006  rzold =   1.024770598340426E-006  alpha = 
  0.463152577228159     
 delta_qm =   0.160216E-04 delta_en =   0.443565E-03 tol =   0.100000E-04
 Iteration #         14
  pAp =   1.249414473364501E-006  rzold =   5.362119132212353E-007  alpha = 
  0.429170563213735     
 delta_qm =   0.109478E-04 delta_en =   0.207109E-03 tol =   0.100000E-04
 Iteration #         15
  pAp =   4.408566512438060E-007  rzold =   2.088760841396559E-007  alpha = 
  0.473795923346842     
 delta_qm =   0.629640E-05 delta_en =   0.685060E-04 tol =   0.100000E-04
 Iteration #         16
  pAp =   1.854273264530990E-007  rzold =   8.441741764198289E-008  alpha = 
  0.455258775805814     
 delta_qm =   0.357809E-05 delta_en =   0.221232E-04 tol =   0.100000E-04
 Iteration #         17
  pAp =   5.384649245491443E-008  rzold =   2.507373124067575E-008  alpha = 
  0.465652080526321     
 delta_qm =   0.194285E-05 delta_en =   0.652260E-05 tol =   0.100000E-04
 Charges are converged, EXIT

%%%% DENSITY %%%%%%%%%%%%%%%%%%%%%%%%%%%%%%%%%%%%%%%%%%%%%%%%%%%%%%%%%%%%%%%%%%%
 density label              = velectrostatic                                                                  
 integral of density        =    -0.2044784095E-12

%%%% CHARGES %%%%%%%%%%%%%%%%%%%%%%%%%%%%%%%%%%%%%%%%%%%%%%%%%%%%%%%%%%%%%%%%%%%
 total number of charges    =         34
 total charge               =     -1.0000000

%%%% DENSITY %%%%%%%%%%%%%%%%%%%%%%%%%%%%%%%%%%%%%%%%%%%%%%%%%%%%%%%%%%%%%%%%%%%
 density label              = vsoftcavity                                                                     
 integral of density        =      36.89384030    

%%%% ELECTRONS %%%%%%%%%%%%%%%%%%%%%%%%%%%%%%%%%%%%%%%%%%%%%%%%%%%%%%%%%%%%%%%%%
 number of electrons        =         24
 total electronic charge    =     24.0000000

%%%% BOUNDARY %%%%%%%%%%%%%%%%%%%%%%%%%%%%%%%%%%%%%%%%%%%%%%%%%%%%%%%%%%%%%%%%%%
 boundary label             = solvent              
 boundary mode              = full                 
 boundary is built as a function of a smooth density
 function type              =  2 
 using the modified SCCS function with parameters 
 rhomax                     =      0.0050000 
 rhomin                     =      0.0001000 
 volume of the QM region    =    717.2126291 
 surface of the QM region   =    412.5078632 

%%%% DIELECTRIC %%%%%%%%%%%%%%%%%%%%%%%%%%%%%%%%%%%%%%%%%%%%%%%%%%%%%%%%%%%%%%%%%
 dielectric build on homogeneous background
 environment bulk permitt.  =    100.0000000 
 dielectric flags
 need gradient              =  F 
 need factor depend. sqrt   =  T 
 total dielectric charge    =     -0.0000718

%%%% DENSITY %%%%%%%%%%%%%%%%%%%%%%%%%%%%%%%%%%%%%%%%%%%%%%%%%%%%%%%%%%%%%%%%%%%
 density label              = vreference                                                                      
 integral of density        =    -0.9714698182E-12

%%%% COMPUTE ELECTROSTATIC POTENTIAL %%%%%%%%%%%%%%%%%%%%%%%%%%%%%%%%%%%%%%%%%%%
 Warning: bad guess with residual norm =   0.127847E+04, reset to no guess
 Iteration #          1
  pAp =    95.7434254555243       rzold =    93.2650795759923       alpha = 
  0.974114714741606     
 delta_qm =   0.265579E-01 delta_en =   0.121880E+04 tol =   0.100000E-04
 Iteration #          2
  pAp =    239.867995884918       rzold =    22.4732229431833       alpha = 
  9.368996001436268E-002
 delta_qm =   0.501673E-02 delta_en =   0.434896E+02 tol =   0.100000E-04
 Iteration #          3
  pAp =    1.63817839923286       rzold =   0.275141129663900       alpha = 
  0.167955535119218     
 delta_qm =   0.241216E-02 delta_en =   0.100544E+02 tol =   0.100000E-04
 Iteration #          4
  pAp =   0.139592448122440       rzold =   2.373429670831330E-002  alpha = 
  0.170025649865352     
 delta_qm =   0.195380E-02 delta_en =   0.659636E+01 tol =   0.100000E-04
 Iteration #          5
  pAp =   2.514480284699840E-002  rzold =   6.470363790775500E-003  alpha = 
  0.257324101133204     
 delta_qm =   0.129559E-02 delta_en =   0.290055E+01 tol =   0.100000E-04
 Iteration #          6
  pAp =   8.454131808954466E-003  rzold =   2.729347839848054E-003  alpha = 
  0.322841883888914     
 delta_qm =   0.778599E-03 delta_en =   0.104754E+01 tol =   0.100000E-04
 Iteration #          7
  pAp =   2.396197008561078E-003  rzold =   8.993587819708528E-004  alpha = 
  0.375327562282085     
 delta_qm =   0.523889E-03 delta_en =   0.474267E+00 tol =   0.100000E-04
 Iteration #          8
  pAp =   1.328584457649795E-003  rzold =   4.850041101472671E-004  alpha = 
  0.365053277083504     
 delta_qm =   0.328610E-03 delta_en =   0.186597E+00 tol =   0.100000E-04
 Iteration #          9
  pAp =   2.075761655696760E-003  rzold =   5.243740341477563E-004  alpha = 
  0.252617651313027     
 delta_qm =   0.225544E-03 delta_en =   0.879035E-01 tol =   0.100000E-04
 Iteration #         10
  pAp =   7.601393090470158E-004  rzold =   2.609290166289028E-004  alpha = 
  0.343264732560705     
 delta_qm =   0.103004E-03 delta_en =   0.183336E-01 tol =   0.100000E-04
 Iteration #         11
  pAp =   1.207212521752629E-004  rzold =   4.022862938711133E-005  alpha = 
  0.333235686859075     
 delta_qm =   0.657478E-04 delta_en =   0.746976E-02 tol =   0.100000E-04
 Iteration #         12
  pAp =   3.927401898808163E-005  rzold =   1.054114032148370E-005  alpha = 
  0.268399837681053     
 delta_qm =   0.475290E-04 delta_en =   0.390357E-02 tol =   0.100000E-04
 Iteration #         13
  pAp =   6.094875097811588E-006  rzold =   2.531653125736950E-006  alpha = 
  0.415374078239267     
 delta_qm =   0.309526E-04 delta_en =   0.165553E-02 tol =   0.100000E-04
 Iteration #         14
  pAp =   3.509253372112746E-006  rzold =   1.443626813795792E-006  alpha = 
  0.411377196433855     
 delta_qm =   0.214938E-04 delta_en =   0.798308E-03 tol =   0.100000E-04
 Iteration #         15
  pAp =   1.353358736148832E-006  rzold =   6.168246784262307E-007  alpha = 
  0.455773226972687     
 delta_qm =   0.121507E-04 delta_en =   0.255123E-03 tol =   0.100000E-04
 Iteration #         16
  pAp =   6.302225421674298E-007  rzold =   2.682306780421372E-007  alpha = 
  0.425612636957814     
 delta_qm =   0.744290E-05 delta_en =   0.957257E-04 tol =   0.100000E-04
 Iteration #         17
  pAp =   2.064500779259831E-007  rzold =   8.504990490104461E-008  alpha = 
  0.411963539832312     
 delta_qm =   0.438622E-05 delta_en =   0.332448E-04 tol =   0.100000E-04
 Iteration #         18
  pAp =   2.222882175007307E-007  rzold =   4.825464019878652E-008  alpha = 
  0.217081412327344     
 delta_qm =   0.314940E-05 delta_en =   0.171395E-04 tol =   0.100000E-04
 Iteration #         19
  pAp =   2.995599227652373E-008  rzold =   1.355183150066977E-008  alpha = 
  0.452391340456121     
 delta_qm =   0.217149E-05 delta_en =   0.814816E-05 tol =   0.100000E-04
 Charges are converged, EXIT

%%%% DENSITY %%%%%%%%%%%%%%%%%%%%%%%%%%%%%%%%%%%%%%%%%%%%%%%%%%%%%%%%%%%%%%%%%%%
 density label              = velectrostatic                                                                  
 integral of density        =     0.1931623585E-12

%%%% CHARGES %%%%%%%%%%%%%%%%%%%%%%%%%%%%%%%%%%%%%%%%%%%%%%%%%%%%%%%%%%%%%%%%%%%
 total number of charges    =         34
 total charge               =     -1.0000000

%%%% DENSITY %%%%%%%%%%%%%%%%%%%%%%%%%%%%%%%%%%%%%%%%%%%%%%%%%%%%%%%%%%%%%%%%%%%
 density label              = vsoftcavity                                                                     
 integral of density        =      33.03782971    

%%%% ELECTRONS %%%%%%%%%%%%%%%%%%%%%%%%%%%%%%%%%%%%%%%%%%%%%%%%%%%%%%%%%%%%%%%%%
 number of electrons        =         24
 total electronic charge    =     24.0000000

%%%% BOUNDARY %%%%%%%%%%%%%%%%%%%%%%%%%%%%%%%%%%%%%%%%%%%%%%%%%%%%%%%%%%%%%%%%%%
 boundary label             = solvent              
 boundary mode              = full                 
 boundary is built as a function of a smooth density
 function type              =  2 
 using the modified SCCS function with parameters 
 rhomax                     =      0.0050000 
 rhomin                     =      0.0001000 
 volume of the QM region    =    716.0789394 
 surface of the QM region   =    412.4917821 

%%%% DIELECTRIC %%%%%%%%%%%%%%%%%%%%%%%%%%%%%%%%%%%%%%%%%%%%%%%%%%%%%%%%%%%%%%%%%
 dielectric build on homogeneous background
 environment bulk permitt.  =    100.0000000 
 dielectric flags
 need gradient              =  F 
 need factor depend. sqrt   =  T 
 total dielectric charge    =     -0.0005165

%%%% DENSITY %%%%%%%%%%%%%%%%%%%%%%%%%%%%%%%%%%%%%%%%%%%%%%%%%%%%%%%%%%%%%%%%%%%
 density label              = vreference                                                                      
 integral of density        =     0.2348738488E-12

%%%% COMPUTE ELECTROSTATIC POTENTIAL %%%%%%%%%%%%%%%%%%%%%%%%%%%%%%%%%%%%%%%%%%%
 Warning: bad guess with residual norm =   0.135752E+04, reset to no guess
 Iteration #          1
  pAp =    95.8258990393510       rzold =    93.3459535501810       alpha = 
  0.974120300315141     
 delta_qm =   0.273631E-01 delta_en =   0.129382E+04 tol =   0.100000E-04
 Iteration #          2
  pAp =    242.827913888820       rzold =    22.6046434993172       alpha = 
  9.308914752554699E-002
 delta_qm =   0.522598E-02 delta_en =   0.471931E+02 tol =   0.100000E-04
 Iteration #          3
  pAp =    1.75826518365211       rzold =   0.294191824299944       alpha = 
  0.167319370840794     
 delta_qm =   0.247726E-02 delta_en =   0.106044E+02 tol =   0.100000E-04
 Iteration #          4
  pAp =   0.138442040081085       rzold =   2.376255029218809E-002  alpha = 
  0.171642589767316     
 delta_qm =   0.199654E-02 delta_en =   0.688812E+01 tol =   0.100000E-04
 Iteration #          5
  pAp =   2.656145590133796E-002  rzold =   6.625214764475010E-003  alpha = 
  0.249429654348928     
 delta_qm =   0.133747E-02 delta_en =   0.309110E+01 tol =   0.100000E-04
 Iteration #          6
  pAp =   8.810947693512712E-003  rzold =   2.816668574401390E-003  alpha = 
  0.319678276659755     
 delta_qm =   0.803870E-03 delta_en =   0.111665E+01 tol =   0.100000E-04
 Iteration #          7
  pAp =   2.487670316763842E-003  rzold =   9.209737339460041E-004  alpha = 
  0.370215348770202     
 delta_qm =   0.545237E-03 delta_en =   0.513707E+00 tol =   0.100000E-04
 Iteration #          8
  pAp =   1.311587277058125E-003  rzold =   4.897980744804500E-004  alpha = 
  0.373439177893721     
 delta_qm =   0.340268E-03 delta_en =   0.200072E+00 tol =   0.100000E-04
 Iteration #          9
  pAp =   2.154015463466454E-003  rzold =   5.359429809255526E-004  alpha = 
  0.248811111162155     
 delta_qm =   0.238994E-03 delta_en =   0.987005E-01 tol =   0.100000E-04
 Iteration #         10
  pAp =   8.121082549610064E-004  rzold =   2.781403388870857E-004  alpha = 
  0.342491702538402     
 delta_qm =   0.109995E-03 delta_en =   0.209069E-01 tol =   0.100000E-04
 Iteration #         11
  pAp =   1.339117894355986E-004  rzold =   4.439502681007379E-005  alpha = 
  0.331524408696102     
 delta_qm =   0.708580E-04 delta_en =   0.867604E-02 tol =   0.100000E-04
 Iteration #         12
  pAp =   4.368384848612025E-005  rzold =   1.174454130456816E-005  alpha = 
  0.268853173691869     
 delta_qm =   0.510907E-04 delta_en =   0.451052E-02 tol =   0.100000E-04
 Iteration #         13
  pAp =   6.893138564734129E-006  rzold =   2.807993783637554E-006  alpha = 
  0.407360704745366     
 delta_qm =   0.335780E-04 delta_en =   0.194828E-02 tol =   0.100000E-04
 Iteration #         14
  pAp =   3.936805656380977E-006  rzold =   1.614621431367305E-006  alpha = 
  0.410134909441172     
 delta_qm =   0.234021E-04 delta_en =   0.946354E-03 tol =   0.100000E-04
 Iteration #         15
  pAp =   1.523281810853254E-006  rzold =   6.919992111742129E-007  alpha = 
  0.454281805404474     
 delta_qm =   0.131251E-04 delta_en =   0.297679E-03 tol =   0.100000E-04
 Iteration #         16
  pAp =   7.047247855885828E-007  rzold =   3.034617592804114E-007  alpha = 
  0.430610311267769     
 delta_qm =   0.802768E-05 delta_en =   0.111359E-03 tol =   0.100000E-04
 Iteration #         17
  pAp =   1.857419275879188E-007  rzold =   8.969107143412846E-008  alpha = 
  0.482880050825758     
 delta_qm =   0.427419E-05 delta_en =   0.315683E-04 tol =   0.100000E-04
 Iteration #         18
  pAp =   1.093355759913771E-007  rzold =   3.035743758072125E-008  alpha = 
  0.277653794800655     
 delta_qm =   0.320298E-05 delta_en =   0.177277E-04 tol =   0.100000E-04
 Iteration #         19
  pAp =   6.037636357529651E-008  rzold =   1.823809033532187E-008  alpha = 
  0.302073348829245     
 delta_qm =   0.236268E-05 delta_en =   0.964618E-05 tol =   0.100000E-04
 Charges are converged, EXIT

%%%% DENSITY %%%%%%%%%%%%%%%%%%%%%%%%%%%%%%%%%%%%%%%%%%%%%%%%%%%%%%%%%%%%%%%%%%%
 density label              = velectrostatic                                                                  
 integral of density        =    -0.7708072863E-12

%%%% CHARGES %%%%%%%%%%%%%%%%%%%%%%%%%%%%%%%%%%%%%%%%%%%%%%%%%%%%%%%%%%%%%%%%%%%
 total number of charges    =         34
 total charge               =     -1.0000000

%%%% DENSITY %%%%%%%%%%%%%%%%%%%%%%%%%%%%%%%%%%%%%%%%%%%%%%%%%%%%%%%%%%%%%%%%%%%
 density label              = vsoftcavity                                                                     
 integral of density        =      32.99420410    

%%%% ELECTRONS %%%%%%%%%%%%%%%%%%%%%%%%%%%%%%%%%%%%%%%%%%%%%%%%%%%%%%%%%%%%%%%%%
 number of electrons        =         24
 total electronic charge    =     24.0000000

%%%% BOUNDARY %%%%%%%%%%%%%%%%%%%%%%%%%%%%%%%%%%%%%%%%%%%%%%%%%%%%%%%%%%%%%%%%%%
 boundary label             = solvent              
 boundary mode              = full                 
 boundary is built as a function of a smooth density
 function type              =  2 
 using the modified SCCS function with parameters 
 rhomax                     =      0.0050000 
 rhomin                     =      0.0001000 
 volume of the QM region    =    716.7773096 
 surface of the QM region   =    412.9670284 

%%%% DIELECTRIC %%%%%%%%%%%%%%%%%%%%%%%%%%%%%%%%%%%%%%%%%%%%%%%%%%%%%%%%%%%%%%%%%
 dielectric build on homogeneous background
 environment bulk permitt.  =    100.0000000 
 dielectric flags
 need gradient              =  F 
 need factor depend. sqrt   =  T 
 total dielectric charge    =     -0.0005947

%%%% DENSITY %%%%%%%%%%%%%%%%%%%%%%%%%%%%%%%%%%%%%%%%%%%%%%%%%%%%%%%%%%%%%%%%%%%
 density label              = vreference                                                                      
 integral of density        =     0.1147658100E-11

%%%% COMPUTE ELECTROSTATIC POTENTIAL %%%%%%%%%%%%%%%%%%%%%%%%%%%%%%%%%%%%%%%%%%%
 Warning: bad guess with residual norm =   0.141445E+04, reset to no guess
 Iteration #          1
  pAp =    95.8663156128605       rzold =    93.3676702004493       alpha = 
  0.973936148516424     
 delta_qm =   0.279241E-01 delta_en =   0.134742E+04 tol =   0.100000E-04
 Iteration #          2
  pAp =    244.824726391192       rzold =    22.7606124674829       alpha = 
  9.296696785076765E-002
 delta_qm =   0.541367E-02 delta_en =   0.506439E+02 tol =   0.100000E-04
 Iteration #          3
  pAp =    1.89146459653523       rzold =   0.314630658728711       alpha = 
  0.166342346193024     
 delta_qm =   0.253113E-02 delta_en =   0.110707E+02 tol =   0.100000E-04
 Iteration #          4
  pAp =   0.146700496864754       rzold =   2.500821075315145E-002  alpha = 
  0.170471206898549     
 delta_qm =   0.203348E-02 delta_en =   0.714537E+01 tol =   0.100000E-04
 Iteration #          5
  pAp =   2.774299771847241E-002  rzold =   6.831525064563557E-003  alpha = 
  0.246243219059736     
 delta_qm =   0.137227E-02 delta_en =   0.325403E+01 tol =   0.100000E-04
 Iteration #          6
  pAp =   8.995595522779409E-003  rzold =   2.879163668784919E-003  alpha = 
  0.320063709122321     
 delta_qm =   0.826804E-03 delta_en =   0.118127E+01 tol =   0.100000E-04
 Iteration #          7
  pAp =   2.570466792705144E-003  rzold =   9.456975448955095E-004  alpha = 
  0.367908874597934     
 delta_qm =   0.563576E-03 delta_en =   0.548843E+00 tol =   0.100000E-04
 Iteration #          8
  pAp =   1.338872974610907E-003  rzold =   4.980041421619175E-004  alpha = 
  0.371957722357226     
 delta_qm =   0.352641E-03 delta_en =   0.214887E+00 tol =   0.100000E-04
 Iteration #          9
  pAp =   2.199016434068355E-003  rzold =   5.475869984746452E-004  alpha = 
  0.249014509392077     
 delta_qm =   0.249148E-03 delta_en =   0.107265E+00 tol =   0.100000E-04
 Iteration #         10
  pAp =   8.276723862047256E-004  rzold =   2.870384316078537E-004  alpha = 
  0.346801991213048     
 delta_qm =   0.114751E-03 delta_en =   0.227540E-01 tol =   0.100000E-04
 Iteration #         11
  pAp =   1.418100954287769E-004  rzold =   4.744338625719841E-005  alpha = 
  0.334555774141105     
 delta_qm =   0.740933E-04 delta_en =   0.948641E-02 tol =   0.100000E-04
 Iteration #         12
  pAp =   4.609116182528461E-005  rzold =   1.242358987872195E-005  alpha = 
  0.269543864522561     
 delta_qm =   0.534429E-04 delta_en =   0.493542E-02 tol =   0.100000E-04
 Iteration #         13
  pAp =   7.410576275134908E-006  rzold =   3.002009036285924E-006  alpha = 
  0.405097920165632     
 delta_qm =   0.355091E-04 delta_en =   0.217883E-02 tol =   0.100000E-04
 Iteration #         14
  pAp =   4.298137662903952E-006  rzold =   1.747180212566925E-006  alpha = 
  0.406497034203059     
 delta_qm =   0.248064E-04 delta_en =   0.106334E-02 tol =   0.100000E-04
 Iteration #         15
  pAp =   1.680512912180394E-006  rzold =   7.596904285168550E-007  alpha = 
  0.452058667928465     
 delta_qm =   0.137638E-04 delta_en =   0.327354E-03 tol =   0.100000E-04
 Iteration #         16
  pAp =   7.772468508926777E-007  rzold =   3.344210677313454E-007  alpha = 
  0.430263650920243     
 delta_qm =   0.848513E-05 delta_en =   0.124412E-03 tol =   0.100000E-04
 Iteration #         17
  pAp =   1.945850720261220E-007  rzold =   9.692327774750916E-008  alpha = 
  0.498102329938741     
 delta_qm =   0.442051E-05 delta_en =   0.337668E-04 tol =   0.100000E-04
 Iteration #         18
  pAp =   5.924117698666286E-008  rzold =   2.540302935445352E-008  alpha = 
  0.428806965806445     
 delta_qm =   0.305049E-05 delta_en =   0.160799E-04 tol =   0.100000E-04
 Iteration #         19
  pAp =   6.547333237381754E-008  rzold =   1.499857752189785E-008  alpha = 
  0.229079183510380     
 delta_qm =   0.246824E-05 delta_en =   0.105274E-04 tol =   0.100000E-04
 Iteration #         20
  pAp =   1.169440845872686E-008  rzold =   5.857595790387396E-009  alpha = 
  0.500888592275586     
 delta_qm =   0.144092E-05 delta_en =   0.358778E-05 tol =   0.100000E-04
 Charges are converged, EXIT

%%%% DENSITY %%%%%%%%%%%%%%%%%%%%%%%%%%%%%%%%%%%%%%%%%%%%%%%%%%%%%%%%%%%%%%%%%%%
 density label              = velectrostatic                                                                  
 integral of density        =    -0.1513587609E-11

%%%% CHARGES %%%%%%%%%%%%%%%%%%%%%%%%%%%%%%%%%%%%%%%%%%%%%%%%%%%%%%%%%%%%%%%%%%%
 total number of charges    =         34
 total charge               =     -1.0000000

%%%% DENSITY %%%%%%%%%%%%%%%%%%%%%%%%%%%%%%%%%%%%%%%%%%%%%%%%%%%%%%%%%%%%%%%%%%%
 density label              = vsoftcavity                                                                     
 integral of density        =      33.41477924    

%%%% ELECTRONS %%%%%%%%%%%%%%%%%%%%%%%%%%%%%%%%%%%%%%%%%%%%%%%%%%%%%%%%%%%%%%%%%
 number of electrons        =         24
 total electronic charge    =     24.0000000

%%%% BOUNDARY %%%%%%%%%%%%%%%%%%%%%%%%%%%%%%%%%%%%%%%%%%%%%%%%%%%%%%%%%%%%%%%%%%
 boundary label             = solvent              
 boundary mode              = full                 
 boundary is built as a function of a smooth density
 function type              =  2 
 using the modified SCCS function with parameters 
 rhomax                     =      0.0050000 
 rhomin                     =      0.0001000 
 volume of the QM region    =    716.6523057 
 surface of the QM region   =    413.0496765 

%%%% DIELECTRIC %%%%%%%%%%%%%%%%%%%%%%%%%%%%%%%%%%%%%%%%%%%%%%%%%%%%%%%%%%%%%%%%%
 dielectric build on homogeneous background
 environment bulk permitt.  =    100.0000000 
 dielectric flags
 need gradient              =  F 
 need factor depend. sqrt   =  T 
 total dielectric charge    =     -0.0006808

%%%% DENSITY %%%%%%%%%%%%%%%%%%%%%%%%%%%%%%%%%%%%%%%%%%%%%%%%%%%%%%%%%%%%%%%%%%%
 density label              = vreference                                                                      
 integral of density        =    -0.1355952387E-12

%%%% COMPUTE ELECTROSTATIC POTENTIAL %%%%%%%%%%%%%%%%%%%%%%%%%%%%%%%%%%%%%%%%%%%
 Warning: bad guess with residual norm =   0.146065E+04, reset to no guess
 Iteration #          1
  pAp =    95.9156052383319       rzold =    93.3927996712067       alpha = 
  0.973697652630597     
 delta_qm =   0.283687E-01 delta_en =   0.139066E+04 tol =   0.100000E-04
 Iteration #          2
  pAp =    247.658439226169       rzold =    22.9923272107885       alpha = 
  9.283886017625767E-002
 delta_qm =   0.552052E-02 delta_en =   0.526628E+02 tol =   0.100000E-04
 Iteration #          3
  pAp =    1.96746073884339       rzold =   0.326249052364562       alpha = 
  0.165822395295346     
 delta_qm =   0.255522E-02 delta_en =   0.112824E+02 tol =   0.100000E-04
 Iteration #          4
  pAp =   0.149479940481233       rzold =   2.546767999286792E-002  alpha = 
  0.170375235037409     
 delta_qm =   0.204802E-02 delta_en =   0.724793E+01 tol =   0.100000E-04
 Iteration #          5
  pAp =   2.835148588531419E-002  rzold =   6.919034083913291E-003  alpha = 
  0.244044848721572     
 delta_qm =   0.138751E-02 delta_en =   0.332670E+01 tol =   0.100000E-04
 Iteration #          6
  pAp =   9.098127440027082E-003  rzold =   2.907201510362417E-003  alpha = 
  0.319538446732701     
 delta_qm =   0.836606E-03 delta_en =   0.120944E+01 tol =   0.100000E-04
 Iteration #          7
  pAp =   2.621809898496192E-003  rzold =   9.591173125713255E-004  alpha = 
  0.365822599541428     
 delta_qm =   0.571958E-03 delta_en =   0.565290E+00 tol =   0.100000E-04
 Iteration #          8
  pAp =   1.360450639753836E-003  rzold =   5.014300371772791E-004  alpha = 
  0.368576427931269     
 delta_qm =   0.358969E-03 delta_en =   0.222667E+00 tol =   0.100000E-04
 Iteration #          9
  pAp =   2.211605576431827E-003  rzold =   5.525017237662606E-004  alpha = 
  0.249819284981936     
 delta_qm =   0.254327E-03 delta_en =   0.111771E+00 tol =   0.100000E-04
 Iteration #         10
  pAp =   8.287560873086123E-004  rzold =   2.903637317642656E-004  alpha = 
  0.350360903781983     
 delta_qm =   0.117078E-03 delta_en =   0.236861E-01 tol =   0.100000E-04
 Iteration #         11
  pAp =   1.457692933692379E-004  rzold =   4.896854363048757E-005  alpha = 
  0.335931817316620     
 delta_qm =   0.757470E-04 delta_en =   0.991458E-02 tol =   0.100000E-04
 Iteration #         12
  pAp =   4.751943595095724E-005  rzold =   1.281380163632395E-005  alpha = 
  0.269653908551198     
 delta_qm =   0.546769E-04 delta_en =   0.516597E-02 tol =   0.100000E-04
 Iteration #         13
  pAp =   7.680714561400863E-006  rzold =   3.098644818211328E-006  alpha = 
  0.403431841326776     
 delta_qm =   0.365296E-04 delta_en =   0.230586E-02 tol =   0.100000E-04
 Iteration #         14
  pAp =   4.480902574243253E-006  rzold =   1.816273924408722E-006  alpha = 
  0.405336624556150     
 delta_qm =   0.254788E-04 delta_en =   0.112176E-02 tol =   0.100000E-04
 Iteration #         15
  pAp =   1.762494905347497E-006  rzold =   7.941877968406138E-007  alpha = 
  0.450604307808782     
 delta_qm =   0.140813E-04 delta_en =   0.342632E-03 tol =   0.100000E-04
 Iteration #         16
  pAp =   8.157602569699755E-007  rzold =   3.503192888705054E-007  alpha = 
  0.429439024366934     
 delta_qm =   0.869055E-05 delta_en =   0.130508E-03 tol =   0.100000E-04
 Iteration #         17
  pAp =   2.023779757552892E-007  rzold =   1.006347096127847E-007  alpha = 
  0.497261172996759     
 delta_qm =   0.453277E-05 delta_en =   0.355035E-04 tol =   0.100000E-04
 Iteration #         18
  pAp =   6.102647237280752E-008  rzold =   2.648326282855272E-008  alpha = 
  0.433963521056368     
 delta_qm =   0.311430E-05 delta_en =   0.167596E-04 tol =   0.100000E-04
 Iteration #         19
  pAp =   6.549496441592270E-008  rzold =   1.505634417359713E-008  alpha = 
  0.229885523381348     
 delta_qm =   0.253182E-05 delta_en =   0.110767E-04 tol =   0.100000E-04
 Iteration #         20
  pAp =   1.261168035458677E-008  rzold =   6.189930245687629E-009  alpha = 
  0.490809318952997     
 delta_qm =   0.149140E-05 delta_en =   0.384354E-05 tol =   0.100000E-04
 Charges are converged, EXIT

%%%% DENSITY %%%%%%%%%%%%%%%%%%%%%%%%%%%%%%%%%%%%%%%%%%%%%%%%%%%%%%%%%%%%%%%%%%%
 density label              = velectrostatic                                                                  
 integral of density        =     0.3319813560E-12

%%%% CHARGES %%%%%%%%%%%%%%%%%%%%%%%%%%%%%%%%%%%%%%%%%%%%%%%%%%%%%%%%%%%%%%%%%%%
 total number of charges    =         34
 total charge               =     -1.0000000

%%%% DENSITY %%%%%%%%%%%%%%%%%%%%%%%%%%%%%%%%%%%%%%%%%%%%%%%%%%%%%%%%%%%%%%%%%%%
 density label              = vsoftcavity                                                                     
 integral of density        =      33.68971693    

%%%% ELECTRONS %%%%%%%%%%%%%%%%%%%%%%%%%%%%%%%%%%%%%%%%%%%%%%%%%%%%%%%%%%%%%%%%%
 number of electrons        =         24
 total electronic charge    =     24.0000000

%%%% BOUNDARY %%%%%%%%%%%%%%%%%%%%%%%%%%%%%%%%%%%%%%%%%%%%%%%%%%%%%%%%%%%%%%%%%%
 boundary label             = solvent              
 boundary mode              = full                 
 boundary is built as a function of a smooth density
 function type              =  2 
 using the modified SCCS function with parameters 
 rhomax                     =      0.0050000 
 rhomin                     =      0.0001000 
 volume of the QM region    =    716.3827048 
 surface of the QM region   =    413.0188023 

%%%% DIELECTRIC %%%%%%%%%%%%%%%%%%%%%%%%%%%%%%%%%%%%%%%%%%%%%%%%%%%%%%%%%%%%%%%%%
 dielectric build on homogeneous background
 environment bulk permitt.  =    100.0000000 
 dielectric flags
 need gradient              =  F 
 need factor depend. sqrt   =  T 
 total dielectric charge    =     -0.0005902

%%%% DENSITY %%%%%%%%%%%%%%%%%%%%%%%%%%%%%%%%%%%%%%%%%%%%%%%%%%%%%%%%%%%%%%%%%%%
 density label              = vreference                                                                      
 integral of density        =    -0.6460675616E-13

%%%% COMPUTE ELECTROSTATIC POTENTIAL %%%%%%%%%%%%%%%%%%%%%%%%%%%%%%%%%%%%%%%%%%%
 Warning: bad guess with residual norm =   0.150372E+04, reset to no guess
 Iteration #          1
  pAp =    95.9394252731886       rzold =    93.3865375846982       alpha = 
  0.973390629751836     
 delta_qm =   0.287744E-01 delta_en =   0.143073E+04 tol =   0.100000E-04
 Iteration #          2
  pAp =    250.927182241835       rzold =    23.2731531004480       alpha = 
  9.274863286042134E-002
 delta_qm =   0.560519E-02 delta_en =   0.542906E+02 tol =   0.100000E-04
 Iteration #          3
  pAp =    2.03655916810184       rzold =   0.336597739556874       alpha = 
  0.165277662848656     
 delta_qm =   0.256692E-02 delta_en =   0.113859E+02 tol =   0.100000E-04
 Iteration #          4
  pAp =   0.151492367661351       rzold =   2.578812415779065E-002  alpha = 
  0.170227217092797     
 delta_qm =   0.205348E-02 delta_en =   0.728659E+01 tol =   0.100000E-04
 Iteration #          5
  pAp =   2.872936934099034E-002  rzold =   6.967911766845944E-003  alpha = 
  0.242536189505013     
 delta_qm =   0.139512E-02 delta_en =   0.336333E+01 tol =   0.100000E-04
 Iteration #          6
  pAp =   9.140977416634484E-003  rzold =   2.921348514951530E-003  alpha = 
  0.319588199576486     
 delta_qm =   0.839796E-03 delta_en =   0.121868E+01 tol =   0.100000E-04
 Iteration #          7
  pAp =   2.654677637843942E-003  rzold =   9.665471733461059E-004  alpha = 
  0.364092106539576     
 delta_qm =   0.575643E-03 delta_en =   0.572599E+00 tol =   0.100000E-04
 Iteration #          8
  pAp =   1.364743306290349E-003  rzold =   5.009159737662941E-004  alpha = 
  0.367040432774047     
 delta_qm =   0.361782E-03 delta_en =   0.226171E+00 tol =   0.100000E-04
 Iteration #          9
  pAp =   2.204967800797100E-003  rzold =   5.520977740012227E-004  alpha = 
  0.250388134376220     
 delta_qm =   0.257048E-03 delta_en =   0.114176E+00 tol =   0.100000E-04
 Iteration #         10
  pAp =   8.258542910965224E-004  rzold =   2.911437736999547E-004  alpha = 
  0.352536490805649     
 delta_qm =   0.118098E-03 delta_en =   0.241006E-01 tol =   0.100000E-04
 Iteration #         11
  pAp =   1.480803507631059E-004  rzold =   4.970623199745579E-005  alpha = 
  0.335670679744500     
 delta_qm =   0.766398E-04 delta_en =   0.101497E-01 tol =   0.100000E-04
 Iteration #         12
  pAp =   4.873621945813992E-005  rzold =   1.311879561728308E-005  alpha = 
  0.269179590931360     
 delta_qm =   0.554337E-04 delta_en =   0.530997E-02 tol =   0.100000E-04
 Iteration #         13
  pAp =   7.826444711280200E-006  rzold =   3.152126404576110E-006  alpha = 
  0.402753296146457     
 delta_qm =   0.371317E-04 delta_en =   0.238250E-02 tol =   0.100000E-04
 Iteration #         14
  pAp =   4.557218607572231E-006  rzold =   1.855098417683222E-006  alpha = 
  0.407068121463563     
 delta_qm =   0.258297E-04 delta_en =   0.115288E-02 tol =   0.100000E-04
 Iteration #         15
  pAp =   1.804946327814056E-006  rzold =   8.136028208972713E-007  alpha = 
  0.450762888823743     
 delta_qm =   0.142559E-04 delta_en =   0.351183E-03 tol =   0.100000E-04
 Iteration #         16
  pAp =   8.368342559728586E-007  rzold =   3.591964473334122E-007  alpha = 
  0.429232485130320     
 delta_qm =   0.878161E-05 delta_en =   0.133258E-03 tol =   0.100000E-04
 Iteration #         17
  pAp =   2.074716245354134E-007  rzold =   1.025487441870921E-007  alpha = 
  0.494278407549597     
 delta_qm =   0.459743E-05 delta_en =   0.365237E-04 tol =   0.100000E-04
 Iteration #         18
  pAp =   7.042925501823491E-008  rzold =   2.816330192448967E-008  alpha = 
  0.399880730205053     
 delta_qm =   0.322115E-05 delta_en =   0.179294E-04 tol =   0.100000E-04
 Iteration #         19
  pAp =   7.854209080427214E-008  rzold =   1.786368238294035E-008  alpha = 
  0.227440881698157     
 delta_qm =   0.259933E-05 delta_en =   0.116753E-04 tol =   0.100000E-04
 Iteration #         20
  pAp =   1.122300441788978E-008  rzold =   5.995576134295848E-009  alpha = 
  0.534222023893952     
 delta_qm =   0.151990E-05 delta_en =   0.399183E-05 tol =   0.100000E-04
 Charges are converged, EXIT

%%%% DENSITY %%%%%%%%%%%%%%%%%%%%%%%%%%%%%%%%%%%%%%%%%%%%%%%%%%%%%%%%%%%%%%%%%%%
 density label              = velectrostatic                                                                  
 integral of density        =    -0.9650223008E-12

%%%% CHARGES %%%%%%%%%%%%%%%%%%%%%%%%%%%%%%%%%%%%%%%%%%%%%%%%%%%%%%%%%%%%%%%%%%%
 total number of charges    =         34
 total charge               =     -1.0000000

%%%% DENSITY %%%%%%%%%%%%%%%%%%%%%%%%%%%%%%%%%%%%%%%%%%%%%%%%%%%%%%%%%%%%%%%%%%%
 density label              = vsoftcavity                                                                     
 integral of density        =      33.99991560    

%%%% ELECTRONS %%%%%%%%%%%%%%%%%%%%%%%%%%%%%%%%%%%%%%%%%%%%%%%%%%%%%%%%%%%%%%%%%
 number of electrons        =         24
 total electronic charge    =     24.0000000

%%%% BOUNDARY %%%%%%%%%%%%%%%%%%%%%%%%%%%%%%%%%%%%%%%%%%%%%%%%%%%%%%%%%%%%%%%%%%
 boundary label             = solvent              
 boundary mode              = full                 
 boundary is built as a function of a smooth density
 function type              =  2 
 using the modified SCCS function with parameters 
 rhomax                     =      0.0050000 
 rhomin                     =      0.0001000 
 volume of the QM region    =    716.3827048 
 surface of the QM region   =    413.0188023 

%%%% DIELECTRIC %%%%%%%%%%%%%%%%%%%%%%%%%%%%%%%%%%%%%%%%%%%%%%%%%%%%%%%%%%%%%%%%%
 dielectric build on homogeneous background
 environment bulk permitt.  =    100.0000000 
 dielectric flags
 need gradient              =  F 
 need factor depend. sqrt   =  T 
 total dielectric charge    =     -0.0003357

%%%% DENSITY %%%%%%%%%%%%%%%%%%%%%%%%%%%%%%%%%%%%%%%%%%%%%%%%%%%%%%%%%%%%%%%%%%%
 density label              = vreference                                                                      
 integral of density        =    -0.6460675616E-13

%%%% DENSITY %%%%%%%%%%%%%%%%%%%%%%%%%%%%%%%%%%%%%%%%%%%%%%%%%%%%%%%%%%%%%%%%%%%
 density label              = velectrostatic                                                                  
 integral of density        =    -0.9650223008E-12

%%%% CHARGES %%%%%%%%%%%%%%%%%%%%%%%%%%%%%%%%%%%%%%%%%%%%%%%%%%%%%%%%%%%%%%%%%%%
 total number of charges    =         34
 total charge               =     -1.0000000

%%%% DENSITY %%%%%%%%%%%%%%%%%%%%%%%%%%%%%%%%%%%%%%%%%%%%%%%%%%%%%%%%%%%%%%%%%%%
 density label              = vsoftcavity                                                                     
 integral of density        =      33.99991560    
