
     Program PWSCF v.6.1 (svn rev. 13369) starts on 14Nov2017 at 14:48: 9 

     This program is part of the open-source Quantum ESPRESSO suite
     for quantum simulation of materials; please cite
         "P. Giannozzi et al., J. Phys.:Condens. Matter 21 395502 (2009);
          URL http://www.quantum-espresso.org", 
     in publications or presentations arising from this work. More details at
     http://www.quantum-espresso.org/quote

     Parallel version (MPI), running on     1 processors
     Reading input from isolated.in

     Current dimensions of program PWSCF are:
     Max number of different atomic species (ntypx) = 10
     Max number of k-points (npk) =  40000
     Max angular momentum in pseudopotentials (lmaxx) =  3
               file C.pbe-rrkjus.UPF: wavefunction(s)  2S 2P renormalized
               file H.pbe-rrkjus.UPF: wavefunction(s)  1S renormalized
               file N.pbe-rrkjus.UPF: wavefunction(s)  2S renormalized
               file O.pbe-rrkjus.UPF: wavefunction(s)  2S renormalized

     gamma-point specific algorithms are used

     Subspace diagonalization in iterative solution of the eigenvalue problem:
     a serial algorithm will be used

 
     G-vector sticks info
     --------------------
     sticks:   dense  smooth     PW     G-vecs:    dense   smooth      PW
     Sum        9549    3809    949               701475   177509   22119
 


     bravais-lattice index     =            1
     lattice parameter (alat)  =      20.0000  a.u.
     unit-cell volume          =    8000.0000 (a.u.)^3
     number of atoms/cell      =           10
     number of atomic types    =            4
     number of electrons       =        24.00
     number of Kohn-Sham states=           12
     kinetic-energy cutoff     =      30.0000  Ry
     charge density cutoff     =     300.0000  Ry
     convergence threshold     =      5.0E-03
     mixing beta               =       0.7000
     number of iterations used =            8  plain     mixing
     Exchange-correlation      =  SLA  PW   PBE  PBE ( 1  4  3  4 0 0)
 

     Environ Module
     ==============

     Plese cite
         O. Andreussi, I. Dabo and N. Marzari, J. Chem. Phys. 136, 064102 (2012)         
     in publications or presentations arising from this work.

     compensation onset threshold      =               0.1000E+03 
     static permittivity               =                   100.00 
     epsilon calculation mode          =                     full 

     Electrostatic Setup
     -------------------
     electrostatic problem to solve    = generalized              
     numerical solver adopted          = cg                       
     type of auxiliary density adopted = none                     
     type of core tool for poisson     = fft                      
     type of core tool for s(r) deriv  = analytic                 



     celldm(1)=  20.000000  celldm(2)=   0.000000  celldm(3)=   0.000000
     celldm(4)=   0.000000  celldm(5)=   0.000000  celldm(6)=   0.000000

     crystal axes: (cart. coord. in units of alat)
               a(1) = (   1.000000   0.000000   0.000000 )  
               a(2) = (   0.000000   1.000000   0.000000 )  
               a(3) = (   0.000000   0.000000   1.000000 )  

     reciprocal axes: (cart. coord. in units 2 pi/alat)
               b(1) = (  1.000000  0.000000  0.000000 )  
               b(2) = (  0.000000  1.000000  0.000000 )  
               b(3) = (  0.000000  0.000000  1.000000 )  


     PseudoPot. # 1 for C  read from file:
     /home/andreo/PWSCF/espresso-6.1-Environ-1.0/Environ/tests/../..//pseudo/C.pbe-rrkjus.UPF
     MD5 check sum: 00fb224312de0c5b6853bd333518df6f
     Pseudo is Ultrasoft, Zval =  4.0
     Generated by new atomic code, or converted to UPF format
     Using radial grid of  627 points,  4 beta functions with: 
                l(1) =   0
                l(2) =   0
                l(3) =   1
                l(4) =   1
     Q(r) pseudized with 0 coefficients 


     PseudoPot. # 2 for H  read from file:
     /home/andreo/PWSCF/espresso-6.1-Environ-1.0/Environ/tests/../..//pseudo/H.pbe-rrkjus.UPF
     MD5 check sum: 7cc9d459525c9a0585f487a71c3c9563
     Pseudo is Ultrasoft, Zval =  1.0
     Generated by new atomic code, or converted to UPF format
     Using radial grid of 1061 points,  2 beta functions with: 
                l(1) =   0
                l(2) =   0
     Q(r) pseudized with 0 coefficients 


     PseudoPot. # 3 for N  read from file:
     /home/andreo/PWSCF/espresso-6.1-Environ-1.0/Environ/tests/../..//pseudo/N.pbe-rrkjus.UPF
     MD5 check sum: 0c3fbe5807a93f9ba59d5a7019aa238b
     Pseudo is Ultrasoft, Zval =  5.0
     Generated by new atomic code, or converted to UPF format
     Using radial grid of 1257 points,  4 beta functions with: 
                l(1) =   0
                l(2) =   0
                l(3) =   1
                l(4) =   1
     Q(r) pseudized with 0 coefficients 


     PseudoPot. # 4 for O  read from file:
     /home/andreo/PWSCF/espresso-6.1-Environ-1.0/Environ/tests/../..//pseudo/O.pbe-rrkjus.UPF
     MD5 check sum: 390ba29e75625707450f3bd3f0eb6be9
     Pseudo is Ultrasoft, Zval =  6.0
     Generated by new atomic code, or converted to UPF format
     Using radial grid of 1269 points,  4 beta functions with: 
                l(1) =   0
                l(2) =   0
                l(3) =   1
                l(4) =   1
     Q(r) pseudized with 0 coefficients 


     atomic species   valence    mass     pseudopotential
        C              4.00    12.00000     C ( 1.00)
        H              1.00     1.00000     H ( 1.00)
        N              5.00    14.00000     N ( 1.00)
        O              6.00    16.00000     O ( 1.00)

     No symmetry found



   Cartesian axes

     site n.     atom                  positions (alat units)
         1           C   tau(   1) = (   0.0000000   0.0000000   0.0000000  )
         2           C   tau(   2) = (   0.0000000   0.0000000   0.1455089  )
         3           N   tau(   3) = (   0.1170969   0.0000000  -0.0545024  )
         4           H   tau(   4) = (   0.0476617  -0.0825466   0.1792090  )
         5           H   tau(   5) = (  -0.0953183  -0.0000030   0.1792090  )
         6           H   tau(   6) = (   0.0476566   0.0825496   0.1792090  )
         7           O   tau(   7) = (  -0.0984002  -0.0000019  -0.0641310  )
         8           H   tau(   8) = (   0.1263131  -0.0000015  -0.1475548  )
         9           H   tau(   9) = (   0.1944645   0.0000134  -0.0025716  )
        10           H   tau(  10) = (  -0.0770366  -0.0000045  -0.1522861  )

     number of k points=     1
                       cart. coord. in units 2pi/alat
        k(    1) = (   0.0000000   0.0000000   0.0000000), wk =   2.0000000

     Dense  grid:   350738 G-vectors     FFT dimensions: ( 120, 120, 120)

     Smooth grid:    88755 G-vectors     FFT dimensions: (  72,  72,  72)

     Estimated max dynamical RAM per process >     298.98MB

     Initial potential from superposition of free atoms
     Check: negative starting charge=   -0.000452

     starting charge   24.42266, renormalised to   24.00000

     negative rho (up, down):  4.438E-04 0.000E+00
     Starting wfc are   22 randomized atomic wfcs

     total cpu time spent up to now is        4.2 secs

     per-process dynamical memory:   611.0 Mb

     Self-consistent Calculation

     iteration #  1     ecut=    30.00 Ry     beta=0.70
     Davidson diagonalization with overlap
     ethr =  1.00E-02,  avg # of iterations =  2.0

     negative rho (up, down):  1.277E-04 0.000E+00

     add environment contribution to local potential
     polarization accuracy = 9.6E-06, # of iterations =  13

     total cpu time spent up to now is        8.6 secs

     total energy              =     -80.23908089 Ry
     Harris-Foulkes estimate   =     -83.01879009 Ry
     estimated scf accuracy    <       3.73442311 Ry
     electrostatic embedding   =      -0.00004909 Ry
     correction to one-el term =       0.00000000 Ry

     iteration #  2     ecut=    30.00 Ry     beta=0.70
     Davidson diagonalization with overlap
     ethr =  1.00E-02,  avg # of iterations =  4.0

     negative rho (up, down):  6.918E-04 0.000E+00

     add environment contribution to local potential
     polarization accuracy = 5.7E-06, # of iterations =  16

     total cpu time spent up to now is       13.4 secs

     total energy              =     -81.00526004 Ry
     Harris-Foulkes estimate   =     -76.57348503 Ry
     estimated scf accuracy    <       1.54046315 Ry
     electrostatic embedding   =      -0.17833585 Ry
     correction to one-el term =      -5.07823152 Ry

     iteration #  3     ecut=    30.00 Ry     beta=0.70
     Davidson diagonalization with overlap
     ethr =  6.42E-03,  avg # of iterations =  3.0

     negative rho (up, down):  3.235E-04 0.000E+00

     add environment contribution to local potential
     polarization accuracy = 5.4E-06, # of iterations =  17

     total cpu time spent up to now is       18.2 secs

     total energy              =     -81.34657388 Ry
     Harris-Foulkes estimate   =     -76.99195250 Ry
     estimated scf accuracy    <       0.24184257 Ry
     electrostatic embedding   =      -0.15220473 Ry
     correction to one-el term =      -4.33142000 Ry

     iteration #  4     ecut=    30.00 Ry     beta=0.70
     Davidson diagonalization with overlap
     ethr =  1.01E-03,  avg # of iterations =  4.0

     negative rho (up, down):  8.726E-05 0.000E+00

     add environment contribution to local potential
     polarization accuracy = 7.1E-06, # of iterations =  19

     total cpu time spent up to now is       23.1 secs

     total energy              =     -81.39623604 Ry
     Harris-Foulkes estimate   =     -77.19318434 Ry
     estimated scf accuracy    <       0.02099235 Ry
     electrostatic embedding   =      -0.13922330 Ry
     correction to one-el term =      -4.07448484 Ry

     iteration #  5     ecut=    30.00 Ry     beta=0.70
     Davidson diagonalization with overlap
     ethr =  8.75E-05,  avg # of iterations =  4.0

     negative rho (up, down):  2.754E-04 0.000E+00

     total cpu time spent up to now is       25.5 secs

     End of self-consistent calculation

          k = 0.0000 0.0000 0.0000 ( 11060 PWs)   bands (ev):

   -28.9328 -23.1933 -18.6721 -16.0066 -14.7130 -13.4382 -11.6997 -10.9569
    -9.5955  -9.5821  -9.3469  -7.4352

     highest occupied level (ev):    -7.4352

!    total energy              =     -81.40044889 Ry
     Harris-Foulkes estimate   =     -77.42639355 Ry
     estimated scf accuracy    <       0.00246707 Ry

     The total energy is the sum of the following terms:

     one-electron contribution =    -241.91812364 Ry
     hartree contribution      =     123.12987214 Ry
     xc contribution           =     -22.94414200 Ry
     ewald contribution        =      64.30784006 Ry
     electrostatic embedding   =      -0.13856141 Ry
     correction to one-el term =      -3.83733403 Ry

     convergence has been achieved in   5 iterations
 WARNING: Unphysical forces due to core electrons are non-negligible 
 atom type   4 is subject to a spurious force of     0.000011 
 WARNING: Unphysical forces due to core electrons are non-negligible 
 atom type   6 is subject to a spurious force of     0.000011 
 WARNING: Unphysical forces due to core electrons are non-negligible 
 atom type   8 is subject to a spurious force of     0.000399 
 WARNING: Unphysical forces due to core electrons are non-negligible 
 atom type   9 is subject to a spurious force of     0.000394 
 WARNING: Unphysical forces due to core electrons are non-negligible 
 atom type  10 is subject to a spurious force of     0.002746 

     Forces acting on atoms (cartesian axes, Ry/au):

     atom    1 type  1   force =     0.21826172    0.00001080    0.10001580
     atom    2 type  1   force =    -0.03331147   -0.00000530   -0.08031534
     atom    3 type  3   force =    -0.13829642   -0.00000250    0.04431381
     atom    4 type  2   force =     0.01790051   -0.02880004    0.00856941
     atom    5 type  2   force =    -0.03315649   -0.00000147    0.01190135
     atom    6 type  2   force =     0.01790377    0.02880768    0.00857066
     atom    7 type  4   force =    -0.08462646   -0.00003299   -0.01099137
     atom    8 type  2   force =     0.00537835    0.00000696   -0.04741372
     atom    9 type  2   force =     0.03874813    0.00001138    0.03881998
     atom   10 type  2   force =    -0.00880164    0.00000548   -0.07347057

     Total force =     0.328668     Total SCF correction =     0.120793
     SCF correction compared to forces is large: reduce conv_thr to get better values

     Writing output data file pwscf.save
 
     init_run     :      3.96s CPU      4.05s WALL (       1 calls)
     electrons    :     20.48s CPU     23.85s WALL (       1 calls)
     forces       :      2.60s CPU      2.70s WALL (       1 calls)

     Called by init_run:
     wfcinit      :      0.13s CPU      0.13s WALL (       1 calls)
     potinit      :      0.94s CPU      0.95s WALL (       1 calls)

     Called by electrons:
     c_bands      :      1.14s CPU      1.15s WALL (       5 calls)
     sum_band     :      3.24s CPU      3.40s WALL (       5 calls)
     v_of_rho     :      3.70s CPU      3.78s WALL (       6 calls)
     newd         :      1.71s CPU      1.89s WALL (       6 calls)
     mix_rho      :      0.35s CPU      0.35s WALL (       5 calls)

     Called by c_bands:
     init_us_2    :      0.04s CPU      0.04s WALL (      11 calls)
     regterg      :      1.08s CPU      1.08s WALL (       5 calls)

     Called by sum_band:
     sum_band:bec :      0.00s CPU      0.00s WALL (       5 calls)
     addusdens    :      2.47s CPU      2.63s WALL (       5 calls)

     Called by *egterg:
     h_psi        :      1.06s CPU      1.06s WALL (      23 calls)
     s_psi        :      0.03s CPU      0.03s WALL (      23 calls)
     g_psi        :      0.02s CPU      0.01s WALL (      17 calls)
     rdiaghg      :      0.00s CPU      0.01s WALL (      22 calls)

     Called by h_psi:
     h_psi:pot    :      1.06s CPU      1.05s WALL (      23 calls)
     h_psi:calbec :      0.05s CPU      0.03s WALL (      23 calls)
     vloc_psi     :      0.98s CPU      0.99s WALL (      23 calls)
     add_vuspsi   :      0.04s CPU      0.03s WALL (      23 calls)

     General routines
     calbec       :      0.08s CPU      0.06s WALL (      32 calls)
     fft          :      8.01s CPU      8.31s WALL (     293 calls)
     ffts         :      0.05s CPU      0.06s WALL (      11 calls)
     fftw         :      0.84s CPU      0.87s WALL (     244 calls)
     interpolate  :      0.42s CPU      0.44s WALL (      11 calls)
     davcio       :      0.00s CPU      0.00s WALL (       1 calls)
 
     Parallel routines
     fft_scatter  :      1.71s CPU      1.85s WALL (     548 calls)
 
     Environ routines
     calc_eelect  :      0.01s CPU      0.01s WALL (      10 calls)
     calc_velect  :      7.12s CPU      7.61s WALL (       8 calls)
     dielectric   :      0.28s CPU      0.29s WALL (       7 calls)
     calc_felect  :      0.32s CPU      0.33s WALL (       1 calls)
 
     PWSCF        :    27.30s CPU        34.57s WALL

 
   This run was terminated on:  14:48:43  14Nov2017            

=------------------------------------------------------------------------------=
   JOB DONE.
=------------------------------------------------------------------------------=

%%%% IONS %%%%%%%%%%%%%%%%%%%%%%%%%%%%%%%%%%%%%%%%%%%%%%%%%%%%%%%%%%%%%%%%%%%%%%
 number of ions             =         10
 ionic center of charge     =      0.0095530    -0.0000002     0.0063981
 total ionic charge         =    -25.0000000
 ionic dipole               =      0.0000000     0.0000000     0.0000000
 ionic quadrupole (pc)      =    -79.0828058    -5.4513517  -105.8059629
 ionic quadrupole (gauss)   =    -82.2078058    -8.5763517  -108.9309629
 ion   1 type =  1 coordinates =      0.0000000     0.0000000     0.0000000
 ion   2 type =  1 coordinates =      0.0000000     0.0000000     2.9101782
 ion   3 type =  3 coordinates =      2.3419379     0.0000000    -1.0900479
 ion   4 type =  2 coordinates =      0.9532347    -1.6509323     3.5841800
 ion   5 type =  2 coordinates =     -1.9063663    -0.0000596     3.5841809
 ion   6 type =  2 coordinates =      0.9531315     1.6509919     3.5841800
 ion   7 type =  4 coordinates =     -1.9680045    -0.0000375    -1.2826193
 ion   8 type =  2 coordinates =      2.5262613    -0.0000303    -2.9510950
 ion   9 type =  2 coordinates =      3.8892907     0.0002681    -0.0514326
 ion  10 type =  2 coordinates =     -1.5407317    -0.0000890    -3.0457220

%%%% SYSTEM %%%%%%%%%%%%%%%%%%%%%%%%%%%%%%%%%%%%%%%%%%%%%%%%%%%%%%%%%%%%%%%%%%%%
 system is built from all present ionic types
 system defined dimension   =  0 
 system defined axis        =  3 
 system center              =      0.0095530    -0.0000002     0.0063981 
 system width               =      0.5223840 

%%%% ELECTRONS %%%%%%%%%%%%%%%%%%%%%%%%%%%%%%%%%%%%%%%%%%%%%%%%%%%%%%%%%%%%%%%%%
 number of electrons        =         24
 total electronic charge    =     24.0000000
 number of spin components  =  1

%%%% BOUNDARY %%%%%%%%%%%%%%%%%%%%%%%%%%%%%%%%%%%%%%%%%%%%%%%%%%%%%%%%%%%%%%%%%%
 boundary mode              = full                 
 boundary is built as a function of a smooth density
 function type              =  2 
 using the modified SCCS function with parameters 
 rhomax                     =      0.0050000 
 rhomin                     =      0.0001000 
 volume of the QM region    =    989.6664417 
 surface of the QM region   =    490.3840558 

%%%% DIELECTRIC %%%%%%%%%%%%%%%%%%%%%%%%%%%%%%%%%%%%%%%%%%%%%%%%%%%%%%%%%%%%%%%%%
 dielectric build on homogeneous background
 environment bulk permitt.  =    100.0000000 
 dielectric flags
 need gradient              =  F 
 need factor depend. sqrt   =  T 
 need gradient of logarithm =  T 

%%%% COMPUTE ELECTROSTATIC POTENTIAL %%%%%%%%%%%%%%%%%%%%%%%%%%%%%%%%%%%%%%%%%%%
 Iteration #          1
  pAp =    92.1544794689522       rzold =    89.1335652119924       alpha = 
  0.967219018821786     
 delta_qm =   0.149133E-01 delta_en =   0.384317E+03 tol =   0.100000E-04
 Iteration #          2
  pAp =    137.577133790164       rzold =    18.3097005203176       alpha = 
  0.133086800225421     
 delta_qm =   0.295188E-02 delta_en =   0.150571E+02 tol =   0.100000E-04
 Iteration #          3
  pAp =   0.949570910645012       rzold =   0.205759803415668       alpha = 
  0.216687138484374     
 delta_qm =   0.144406E-02 delta_en =   0.360339E+01 tol =   0.100000E-04
 Iteration #          4
  pAp =   0.109879164894533       rzold =   2.417230726381535E-002  alpha = 
  0.219989906976606     
 delta_qm =   0.100944E-02 delta_en =   0.176077E+01 tol =   0.100000E-04
 Iteration #          5
  pAp =   1.166354334707590E-002  rzold =   4.117384213356278E-003  alpha = 
  0.353013153107415     
 delta_qm =   0.565510E-03 delta_en =   0.552617E+00 tol =   0.100000E-04
 Iteration #          6
  pAp =   3.128531676243694E-003  rzold =   1.261983650949306E-003  alpha = 
  0.403378895132211     
 delta_qm =   0.241247E-03 delta_en =   0.100570E+00 tol =   0.100000E-04
 Iteration #          7
  pAp =   4.185552403026182E-004  rzold =   1.764980985753236E-004  alpha = 
  0.421684120948323     
 delta_qm =   0.146977E-03 delta_en =   0.373286E-01 tol =   0.100000E-04
 Iteration #          8
  pAp =   2.983332018008424E-004  rzold =   8.997417838006377E-005  alpha = 
  0.301589557705775     
 delta_qm =   0.800488E-04 delta_en =   0.110727E-01 tol =   0.100000E-04
 Iteration #          9
  pAp =   1.133307819221201E-004  rzold =   4.307780553575635E-005  alpha = 
  0.380106841276001     
 delta_qm =   0.347444E-04 delta_en =   0.208599E-02 tol =   0.100000E-04
 Iteration #         10
  pAp =   2.305468551652501E-005  rzold =   9.594253879878114E-006  alpha = 
  0.416152017037977     
 delta_qm =   0.157750E-04 delta_en =   0.430016E-03 tol =   0.100000E-04
 Iteration #         11
  pAp =   1.599238326774813E-006  rzold =   8.243455787829170E-007  alpha = 
  0.515461369941888     
 delta_qm =   0.856984E-05 delta_en =   0.126908E-03 tol =   0.100000E-04
 Iteration #         12
  pAp =   2.500649585227350E-007  rzold =   1.553724699297389E-007  alpha = 
  0.621328437409246     
 delta_qm =   0.429201E-05 delta_en =   0.318322E-04 tol =   0.100000E-04
 Iteration #         13
  pAp =   1.627207101173686E-007  rzold =   7.110388897308025E-008  alpha = 
  0.436968895488434     
 delta_qm =   0.235502E-05 delta_en =   0.958368E-05 tol =   0.100000E-04
 Charges are converged, EXIT

%%%% ELECTRONS %%%%%%%%%%%%%%%%%%%%%%%%%%%%%%%%%%%%%%%%%%%%%%%%%%%%%%%%%%%%%%%%%
 number of electrons        =         24
 total electronic charge    =     24.0000000
 number of spin components  =  1

%%%% BOUNDARY %%%%%%%%%%%%%%%%%%%%%%%%%%%%%%%%%%%%%%%%%%%%%%%%%%%%%%%%%%%%%%%%%%
 boundary mode              = full                 
 boundary is built as a function of a smooth density
 function type              =  2 
 using the modified SCCS function with parameters 
 rhomax                     =      0.0050000 
 rhomin                     =      0.0001000 
 volume of the QM region    =    837.5112451 
 surface of the QM region   =    448.9150184 

%%%% DIELECTRIC %%%%%%%%%%%%%%%%%%%%%%%%%%%%%%%%%%%%%%%%%%%%%%%%%%%%%%%%%%%%%%%%%
 dielectric build on homogeneous background
 environment bulk permitt.  =    100.0000000 
 dielectric flags
 need gradient              =  F 
 need factor depend. sqrt   =  T 
 need gradient of logarithm =  T 

%%%% COMPUTE ELECTROSTATIC POTENTIAL %%%%%%%%%%%%%%%%%%%%%%%%%%%%%%%%%%%%%%%%%%%
 Warning: bad guess with residual norm =   0.140635E+04, reset to no guess
 Iteration #          1
  pAp =    95.6010838555007       rzold =    92.7432226536081       alpha = 
  0.970106393289304     
 delta_qm =   0.210046E-01 delta_en =   0.762380E+03 tol =   0.100000E-04
 Iteration #          2
  pAp =    176.236771835614       rzold =    20.4572920656721       alpha = 
  0.116078454300977     
 delta_qm =   0.411320E-02 delta_en =   0.292350E+02 tol =   0.100000E-04
 Iteration #          3
  pAp =    1.23672194890278       rzold =   0.217334397992638       alpha = 
  0.175734245022057     
 delta_qm =   0.215517E-02 delta_en =   0.802611E+01 tol =   0.100000E-04
 Iteration #          4
  pAp =   0.124278700056640       rzold =   2.392154303543122E-002  alpha = 
  0.192483048378595     
 delta_qm =   0.156702E-02 delta_en =   0.424317E+01 tol =   0.100000E-04
 Iteration #          5
  pAp =   1.250098325884713E-002  rzold =   4.694009543750797E-003  alpha = 
  0.375491227094379     
 delta_qm =   0.922444E-03 delta_en =   0.147036E+01 tol =   0.100000E-04
 Iteration #          6
  pAp =   5.303499136176289E-003  rzold =   1.923755486193291E-003  alpha = 
  0.362733251537829     
 delta_qm =   0.464971E-03 delta_en =   0.373590E+00 tol =   0.100000E-04
 Iteration #          7
  pAp =   8.386039814162410E-004  rzold =   4.054121391795928E-004  alpha = 
  0.483436935864447     
 delta_qm =   0.288633E-03 delta_en =   0.143958E+00 tol =   0.100000E-04
 Iteration #          8
  pAp =   4.939086521963373E-004  rzold =   2.309410304983755E-004  alpha = 
  0.467578426641071     
 delta_qm =   0.119233E-03 delta_en =   0.245660E-01 tol =   0.100000E-04
 Iteration #          9
  pAp =   6.413872881540593E-004  rzold =   1.432702290872896E-004  alpha = 
  0.223375535707338     
 delta_qm =   0.799201E-04 delta_en =   0.110371E-01 tol =   0.100000E-04
 Iteration #         10
  pAp =   1.524479952384306E-004  rzold =   4.681392378900519E-005  alpha = 
  0.307081268702731     
 delta_qm =   0.337536E-04 delta_en =   0.196872E-02 tol =   0.100000E-04
 Iteration #         11
  pAp =   7.479086324170725E-006  rzold =   3.241158441705554E-006  alpha = 
  0.433362887018814     
 delta_qm =   0.194364E-04 delta_en =   0.652794E-03 tol =   0.100000E-04
 Iteration #         12
  pAp =   1.820328052447682E-006  rzold =   7.246489799548126E-007  alpha = 
  0.398087025566860     
 delta_qm =   0.125321E-04 delta_en =   0.271387E-03 tol =   0.100000E-04
 Iteration #         13
  pAp =   5.625553067809218E-007  rzold =   2.682028797580389E-007  alpha = 
  0.476758243189920     
 delta_qm =   0.766031E-05 delta_en =   0.101400E-03 tol =   0.100000E-04
 Iteration #         14
  pAp =   3.280473532527956E-007  rzold =   1.313169289167801E-007  alpha = 
  0.400298699607512     
 delta_qm =   0.527585E-05 delta_en =   0.480981E-04 tol =   0.100000E-04
 Iteration #         15
  pAp =   1.276404261142419E-007  rzold =   5.089450624130772E-008  alpha = 
  0.398733440420793     
 delta_qm =   0.337267E-05 delta_en =   0.196558E-04 tol =   0.100000E-04
 Iteration #         16
  pAp =   6.022864716505401E-008  rzold =   2.284046080577015E-008  alpha = 
  0.379229185460149     
 delta_qm =   0.181727E-05 delta_en =   0.570670E-05 tol =   0.100000E-04
 Charges are converged, EXIT

%%%% ELECTRONS %%%%%%%%%%%%%%%%%%%%%%%%%%%%%%%%%%%%%%%%%%%%%%%%%%%%%%%%%%%%%%%%%
 number of electrons        =         24
 total electronic charge    =     24.0000000
 number of spin components  =  1

%%%% BOUNDARY %%%%%%%%%%%%%%%%%%%%%%%%%%%%%%%%%%%%%%%%%%%%%%%%%%%%%%%%%%%%%%%%%%
 boundary mode              = full                 
 boundary is built as a function of a smooth density
 function type              =  2 
 using the modified SCCS function with parameters 
 rhomax                     =      0.0050000 
 rhomin                     =      0.0001000 
 volume of the QM region    =    756.8639240 
 surface of the QM region   =    424.0597231 

%%%% DIELECTRIC %%%%%%%%%%%%%%%%%%%%%%%%%%%%%%%%%%%%%%%%%%%%%%%%%%%%%%%%%%%%%%%%%
 dielectric build on homogeneous background
 environment bulk permitt.  =    100.0000000 
 dielectric flags
 need gradient              =  F 
 need factor depend. sqrt   =  T 
 need gradient of logarithm =  T 

%%%% COMPUTE ELECTROSTATIC POTENTIAL %%%%%%%%%%%%%%%%%%%%%%%%%%%%%%%%%%%%%%%%%%%
 Warning: bad guess with residual norm =   0.160691E+04, reset to no guess
 Iteration #          1
  pAp =    96.0908041343550       rzold =    93.3999676121973       alpha = 
  0.971996940327450     
 delta_qm =   0.234782E-01 delta_en =   0.952515E+03 tol =   0.100000E-04
 Iteration #          2
  pAp =    221.855589437090       rzold =    22.4533012216021       alpha = 
  0.101206831338225     
 delta_qm =   0.431287E-02 delta_en =   0.321422E+02 tol =   0.100000E-04
 Iteration #          3
  pAp =    1.31642609222392       rzold =   0.238194246128692       alpha = 
  0.180940082801227     
 delta_qm =   0.202409E-02 delta_en =   0.707952E+01 tol =   0.100000E-04
 Iteration #          4
  pAp =   0.103910997955461       rzold =   1.942310964157716E-002  alpha = 
  0.186920634232601     
 delta_qm =   0.155412E-02 delta_en =   0.417362E+01 tol =   0.100000E-04
 Iteration #          5
  pAp =   1.993592959987505E-002  rzold =   5.523867464002059E-003  alpha = 
  0.277081007751787     
 delta_qm =   0.105735E-02 delta_en =   0.193189E+01 tol =   0.100000E-04
 Iteration #          6
  pAp =   7.247105042500818E-003  rzold =   2.474779002781245E-003  alpha = 
  0.341485184534769     
 delta_qm =   0.572478E-03 delta_en =   0.566320E+00 tol =   0.100000E-04
 Iteration #          7
  pAp =   1.640079903697330E-003  rzold =   6.968632755503804E-004  alpha = 
  0.424895929752813     
 delta_qm =   0.385756E-03 delta_en =   0.257140E+00 tol =   0.100000E-04
 Iteration #          8
  pAp =   7.521708788938913E-004  rzold =   3.720856253264041E-004  alpha = 
  0.494682306597108     
 delta_qm =   0.193960E-03 delta_en =   0.650079E-01 tol =   0.100000E-04
 Iteration #          9
  pAp =   9.987648106346842E-004  rzold =   2.674419093307438E-004  alpha = 
  0.267772659271799     
 delta_qm =   0.142115E-03 delta_en =   0.349000E-01 tol =   0.100000E-04
 Iteration #         10
  pAp =   6.998761032383809E-004  rzold =   1.614515412709058E-004  alpha = 
  0.230685889293629     
 delta_qm =   0.576913E-04 delta_en =   0.575127E-02 tol =   0.100000E-04
 Iteration #         11
  pAp =   4.899761908000591E-005  rzold =   1.634523564140829E-005  alpha = 
  0.333592446904796     
 delta_qm =   0.356675E-04 delta_en =   0.219832E-02 tol =   0.100000E-04
 Iteration #         12
  pAp =   1.540514279724762E-005  rzold =   4.292126580674136E-006  alpha = 
  0.278616474846374     
 delta_qm =   0.236191E-04 delta_en =   0.963984E-03 tol =   0.100000E-04
 Iteration #         13
  pAp =   2.094058725456400E-006  rzold =   9.307693874559278E-007  alpha = 
  0.444481033956231     
 delta_qm =   0.138909E-04 delta_en =   0.333429E-03 tol =   0.100000E-04
 Iteration #         14
  pAp =   1.006365126821922E-006  rzold =   4.362567177499363E-007  alpha = 
  0.433497451494196     
 delta_qm =   0.992669E-05 delta_en =   0.170276E-03 tol =   0.100000E-04
 Iteration #         15
  pAp =   3.409935564061554E-007  rzold =   1.597830930456715E-007  alpha = 
  0.468580974754124     
 delta_qm =   0.601308E-05 delta_en =   0.624795E-04 tol =   0.100000E-04
 Iteration #         16
  pAp =   1.447890952556126E-007  rzold =   6.631898488041313E-008  alpha = 
  0.458038533657060     
 delta_qm =   0.341345E-05 delta_en =   0.201340E-04 tol =   0.100000E-04
 Iteration #         17
  pAp =   4.158500189321606E-008  rzold =   1.971213163712860E-008  alpha = 
  0.474020217379005     
 delta_qm =   0.177220E-05 delta_en =   0.542710E-05 tol =   0.100000E-04
 Charges are converged, EXIT

%%%% ELECTRONS %%%%%%%%%%%%%%%%%%%%%%%%%%%%%%%%%%%%%%%%%%%%%%%%%%%%%%%%%%%%%%%%%
 number of electrons        =         24
 total electronic charge    =     24.0000000
 number of spin components  =  1

%%%% BOUNDARY %%%%%%%%%%%%%%%%%%%%%%%%%%%%%%%%%%%%%%%%%%%%%%%%%%%%%%%%%%%%%%%%%%
 boundary mode              = full                 
 boundary is built as a function of a smooth density
 function type              =  2 
 using the modified SCCS function with parameters 
 rhomax                     =      0.0050000 
 rhomin                     =      0.0001000 
 volume of the QM region    =    716.8995777 
 surface of the QM region   =    412.3222326 

%%%% DIELECTRIC %%%%%%%%%%%%%%%%%%%%%%%%%%%%%%%%%%%%%%%%%%%%%%%%%%%%%%%%%%%%%%%%%
 dielectric build on homogeneous background
 environment bulk permitt.  =    100.0000000 
 dielectric flags
 need gradient              =  F 
 need factor depend. sqrt   =  T 
 need gradient of logarithm =  T 

%%%% COMPUTE ELECTROSTATIC POTENTIAL %%%%%%%%%%%%%%%%%%%%%%%%%%%%%%%%%%%%%%%%%%%
 Warning: bad guess with residual norm =   0.252820E+04, reset to no guess
 Iteration #          1
  pAp =    96.0040990917021       rzold =    93.2852565866346       alpha = 
  0.971679933140454     
 delta_qm =   0.289231E-01 delta_en =   0.144555E+04 tol =   0.100000E-04
 Iteration #          2
  pAp =    263.808332625638       rzold =    24.6701975014281       alpha = 
  9.351561133755676E-002
 delta_qm =   0.515705E-02 delta_en =   0.459565E+02 tol =   0.100000E-04
 Iteration #          3
  pAp =    1.84070337554500       rzold =   0.304403716087072       alpha = 
  0.165373584973703     
 delta_qm =   0.234128E-02 delta_en =   0.947215E+01 tol =   0.100000E-04
 Iteration #          4
  pAp =   0.140022019011700       rzold =   2.418638770667870E-002  alpha = 
  0.172732745016752     
 delta_qm =   0.185544E-02 delta_en =   0.594890E+01 tol =   0.100000E-04
 Iteration #          5
  pAp =   2.627569514012864E-002  rzold =   6.538447367535381E-003  alpha = 
  0.248840128973401     
 delta_qm =   0.131245E-02 delta_en =   0.297652E+01 tol =   0.100000E-04
 Iteration #          6
  pAp =   8.593646038654977E-003  rzold =   2.838291285646000E-003  alpha = 
  0.330277890534369     
 delta_qm =   0.763033E-03 delta_en =   0.100608E+01 tol =   0.100000E-04
 Iteration #          7
  pAp =   2.431663508407554E-003  rzold =   9.290532001302576E-004  alpha = 
  0.382064869139183     
 delta_qm =   0.561654E-03 delta_en =   0.545107E+00 tol =   0.100000E-04
 Iteration #          8
  pAp =   1.201391589431282E-003  rzold =   4.932371730508308E-004  alpha = 
  0.410554874355597     
 delta_qm =   0.310555E-03 delta_en =   0.166656E+00 tol =   0.100000E-04
 Iteration #          9
  pAp =   2.213114318696806E-003  rzold =   5.291393128103592E-004  alpha = 
  0.239092625419343     
 delta_qm =   0.256392E-03 delta_en =   0.113594E+00 tol =   0.100000E-04
 Iteration #         10
  pAp =   9.084485955969025E-004  rzold =   2.867900879983680E-004  alpha = 
  0.315692147457095     
 delta_qm =   0.999808E-04 delta_en =   0.172734E-01 tol =   0.100000E-04
 Iteration #         11
  pAp =   1.285942938451315E-004  rzold =   4.210325016648656E-005  alpha = 
  0.327411496323408     
 delta_qm =   0.636358E-04 delta_en =   0.699756E-02 tol =   0.100000E-04
 Iteration #         12
  pAp =   4.156587848631749E-005  rzold =   1.102827625612200E-005  alpha = 
  0.265320418038374     
 delta_qm =   0.451258E-04 delta_en =   0.351879E-02 tol =   0.100000E-04
 Iteration #         13
  pAp =   6.364013482989346E-006  rzold =   2.571241000811223E-006  alpha = 
  0.404028213906838     
 delta_qm =   0.287948E-04 delta_en =   0.143275E-02 tol =   0.100000E-04
 Iteration #         14
  pAp =   3.245568678961477E-006  rzold =   1.369498360256312E-006  alpha = 
  0.421959445546081     
 delta_qm =   0.210088E-04 delta_en =   0.762686E-03 tol =   0.100000E-04
 Iteration #         15
  pAp =   1.285321467284632E-006  rzold =   5.760336672939698E-007  alpha = 
  0.448163110907108     
 delta_qm =   0.128401E-04 delta_en =   0.284894E-03 tol =   0.100000E-04
 Iteration #         16
  pAp =   5.951567061575256E-007  rzold =   2.540222842868718E-007  alpha = 
  0.426815797686126     
 delta_qm =   0.789283E-05 delta_en =   0.107649E-03 tol =   0.100000E-04
 Iteration #         17
  pAp =   1.880314020266523E-007  rzold =   7.850858921368038E-008  alpha = 
  0.417529138045528     
 delta_qm =   0.454812E-05 delta_en =   0.357443E-04 tol =   0.100000E-04
 Iteration #         18
  pAp =   2.083638867523250E-007  rzold =   4.508464028911292E-008  alpha = 
  0.216374540674140     
 delta_qm =   0.313385E-05 delta_en =   0.169707E-04 tol =   0.100000E-04
 Iteration #         19
  pAp =   2.857220021285904E-008  rzold =   1.236179156894035E-008  alpha = 
  0.432651020112090     
 delta_qm =   0.202368E-05 delta_en =   0.707665E-05 tol =   0.100000E-04
 Charges are converged, EXIT

%%%% ELECTRONS %%%%%%%%%%%%%%%%%%%%%%%%%%%%%%%%%%%%%%%%%%%%%%%%%%%%%%%%%%%%%%%%%
 number of electrons        =         24
 total electronic charge    =     24.0000000
 number of spin components  =  1

%%%% BOUNDARY %%%%%%%%%%%%%%%%%%%%%%%%%%%%%%%%%%%%%%%%%%%%%%%%%%%%%%%%%%%%%%%%%%
 boundary mode              = full                 
 boundary is built as a function of a smooth density
 function type              =  2 
 using the modified SCCS function with parameters 
 rhomax                     =      0.0050000 
 rhomin                     =      0.0001000 
 volume of the QM region    =    716.8995777 
 surface of the QM region   =    412.3222326 

%%%% DIELECTRIC %%%%%%%%%%%%%%%%%%%%%%%%%%%%%%%%%%%%%%%%%%%%%%%%%%%%%%%%%%%%%%%%%
 dielectric build on homogeneous background
 environment bulk permitt.  =    100.0000000 
 dielectric flags
 need gradient              =  F 
 need factor depend. sqrt   =  T 
 need gradient of logarithm =  T 
