
     Program PWSCF v.6.7MaX starts on  1Oct2021 at 20:41: 7 

     This program is part of the open-source Quantum ESPRESSO suite
     for quantum simulation of materials; please cite
         "P. Giannozzi et al., J. Phys.:Condens. Matter 21 395502 (2009);
         "P. Giannozzi et al., J. Phys.:Condens. Matter 29 465901 (2017);
          URL http://www.quantum-espresso.org", 
     in publications or presentations arising from this work. More details at
     http://www.quantum-espresso.org/quote

     Parallel version (MPI), running on     1 processors

     MPI processes distributed on     1 nodes
     Reading input from slab.in

     Current dimensions of program PWSCF are:
     Max number of different atomic species (ntypx) = 10
     Max number of k-points (npk) =  40000
     Max angular momentum in pseudopotentials (lmaxx) =  3

     Reading input from environ.in

     ================================================================================

     Reading ENVIRON namelist

     Reading BOUNDARY namelist

     Checking boundary derivatives
     derivatives               = chain          ! SCCS default

     Reading ELECTROSTATIC namelist

     Setting up electrostatic problem
     problem                   = generalized    
     solver                    = cg             

     Checking PBC correction
     pbc_correction            = none           ! default

     Reading EXTERNAL_CHARGES card

     ================================================================================
 
     file C.pbe-rrkjus.UPF: wavefunction(s)  2S 2P renormalized
     file O.pbe-rrkjus.UPF: wavefunction(s)  2S renormalized

     gamma-point specific algorithms are used

     Subspace diagonalization in iterative solution of the eigenvalue problem:
     a serial algorithm will be used

 
     G-vector sticks info
     --------------------
     sticks:   dense  smooth     PW     G-vecs:    dense   smooth      PW
     Sum        2357    1099    269               366833   116965   14571
 


     bravais-lattice index     =            8
     lattice parameter (alat)  =      10.6881  a.u.
     unit-cell volume          =    4181.1215 (a.u.)^3
     number of atoms/cell      =           10
     number of atomic types    =            3
     number of electrons       =        89.00
     number of Kohn-Sham states=           80
     kinetic-energy cutoff     =      35.0000  Ry
     charge density cutoff     =     300.0000  Ry
     scf convergence threshold =      5.0E-06
     mixing beta               =       0.7000
     number of iterations used =            8  plain     mixing
     Exchange-correlation= PBE
                           (   1   4   3   4   0   0   0)
 

     Environ Module
     ==============

     Please cite
         O. Andreussi, I. Dabo and N. Marzari, J. Chem. Phys. 136, 064102 (2012)         
     in publications or presentations arising from this work.

     compensation onset threshold      =               0.1000E+03
     static permittivity               =                   100.00
     epsilon calculation mode          =                     full

     Electrostatic Setup
     -------------------
     electrostatic problem to solve    = generalized             
     numerical solver adopted          = cg                      
     type of auxiliary density adopted = none                    
     type of core tool for poisson     = fft                     



     celldm(1)=  10.688100  celldm(2)=   0.866025  celldm(3)=   3.954220
     celldm(4)=   0.000000  celldm(5)=   0.000000  celldm(6)=   0.000000

     crystal axes: (cart. coord. in units of alat)
               a(1) = (   1.000000   0.000000   0.000000 )  
               a(2) = (   0.000000   0.866025   0.000000 )  
               a(3) = (   0.000000   0.000000   3.954220 )  

     reciprocal axes: (cart. coord. in units 2 pi/alat)
               b(1) = (  1.000000  0.000000  0.000000 )  
               b(2) = (  0.000000  1.154701  0.000000 )  
               b(3) = (  0.000000  0.000000  0.252894 )  


     PseudoPot. # 1 for C  read from file:
     /home/simplogic86/Work/QE1/Environ/tests/../..//pseudo/C.pbe-rrkjus.UPF
     MD5 check sum: c9ac5a99bc85b198593446162950cd17
     Pseudo is Ultrasoft, Zval =  4.0
     Generated by new atomic code, or converted to UPF format
     Using radial grid of  627 points,  4 beta functions with: 
                l(1) =   0
                l(2) =   0
                l(3) =   1
                l(4) =   1
     Q(r) pseudized with 0 coefficients 


     PseudoPot. # 2 for O  read from file:
     /home/simplogic86/Work/QE1/Environ/tests/../..//pseudo/O.pbe-rrkjus.UPF
     MD5 check sum: fadcf19ee70a498d3030e2e79cf929a4
     Pseudo is Ultrasoft, Zval =  6.0
     Generated by new atomic code, or converted to UPF format
     Using radial grid of 1269 points,  4 beta functions with: 
                l(1) =   0
                l(2) =   0
                l(3) =   1
                l(4) =   1
     Q(r) pseudized with 0 coefficients 


     PseudoPot. # 3 for Pt read from file:
     /home/simplogic86/Work/QE1/Environ/tests/../..//pseudo/Pt.pbe-n-rrkjus_psl.0.1.UPF
     MD5 check sum: 957548fe13c2a9232dd96292d902c87c
     Pseudo is Ultrasoft + core correction, Zval = 10.0
     Generated using "atomic" code by A. Dal Corso  v.5.0.2 svn rev. 9415
     Using radial grid of 1277 points,  6 beta functions with: 
                l(1) =   0
                l(2) =   0
                l(3) =   1
                l(4) =   1
                l(5) =   2
                l(6) =   2
     Q(r) pseudized with 0 coefficients 


     atomic species   valence    mass     pseudopotential
        C              4.00     1.00000     C ( 1.00)
        O              6.00     1.00000     O ( 1.00)
        Pt            10.00     1.00000     Pt( 1.00)

     No symmetry found



   Cartesian axes

     site n.     atom                  positions (alat units)
         1           C   tau(   1) = (   0.4991611   0.4347567   0.7762281  )
         2           O   tau(   2) = (   0.4991542   0.4322212   0.9800832  )
         3           Pt  tau(   3) = (   0.7542339   0.0091745   0.4105048  )
         4           Pt  tau(   4) = (   0.2441023   0.0091745   0.4105046  )
         5           Pt  tau(   5) = (   0.0000034   0.4416918   0.4083168  )
         6           Pt  tau(   6) = (   0.4991682   0.4417635   0.4468119  )
         7           Pt  tau(   7) = (   0.0000038   0.7300598   0.0000000  )
         8           Pt  tau(   8) = (   0.4991683   0.7202168   0.0139279  )
         9           Pt  tau(   9) = (   0.2524172   0.2949237   0.0078392  )
        10           Pt  tau(  10) = (   0.7459196   0.2949237   0.0078394  )

     number of k points=     1  Marzari-Vanderbilt smearing, width (Ry)=  0.0300
                       cart. coord. in units 2pi/alat
        k(    1) = (   0.0000000   0.0000000   0.0000000), wk =   2.0000000

     Dense  grid:   183417 G-vectors     FFT dimensions: (  60,  54, 240)

     Smooth grid:    58483 G-vectors     FFT dimensions: (  45,  36, 160)

     Estimated max dynamical RAM per process >     754.41 MB

     Initial potential from superposition of free atoms

     starting charge   89.99859, renormalised to   89.00000

     negative rho (up, down):  3.049E-03 0.000E+00
     Starting wfcs are   80 randomized atomic wfcs

     total cpu time spent up to now is        5.3 secs

     Self-consistent Calculation

     iteration #  1     ecut=    35.00 Ry     beta= 0.70
     Davidson diagonalization with overlap
     ethr =  1.00E-02,  avg # of iterations = 10.0

     negative rho (up, down):  2.862E-03 0.000E+00

     add environment contribution to local potential
     Polarization accuracy = 4.1E-06, # of iterations =  25

     total cpu time spent up to now is        9.4 secs

     total energy              =    -622.70871708 Ry
     estimated scf accuracy    <       1.83045832 Ry
     electrostatic embedding   =       0.03381190 Ry
     correction to one-el term =       0.00000000 Ry

     iteration #  2     ecut=    35.00 Ry     beta= 0.70
     Davidson diagonalization with overlap
     ethr =  2.06E-03,  avg # of iterations =  9.0

     negative rho (up, down):  2.038E-02 0.000E+00

     add environment contribution to local potential
     Polarization accuracy = 6.0E-06, # of iterations =  50

     total cpu time spent up to now is       15.8 secs

     total energy              =    -618.15695304 Ry
     estimated scf accuracy    <      45.50756710 Ry
     electrostatic embedding   =       0.00272582 Ry
     correction to one-el term =     -19.48581847 Ry

     iteration #  3     ecut=    35.00 Ry     beta= 0.70
     Davidson diagonalization with overlap
     ethr =  2.06E-03,  avg # of iterations =  5.0

     negative rho (up, down):  7.643E-03 0.000E+00

     add environment contribution to local potential
     Polarization accuracy = 4.7E-06, # of iterations =  30

     total cpu time spent up to now is       20.9 secs

     total energy              =    -623.84767745 Ry
     estimated scf accuracy    <       0.45725069 Ry
     electrostatic embedding   =       0.26348648 Ry
     correction to one-el term =     -22.26972623 Ry

     iteration #  4     ecut=    35.00 Ry     beta= 0.70
     Davidson diagonalization with overlap
     ethr =  5.14E-04,  avg # of iterations =  5.0

     negative rho (up, down):  8.341E-03 0.000E+00

     add environment contribution to local potential
     Polarization accuracy = 7.0E-06, # of iterations =  29

     total cpu time spent up to now is       25.6 secs

     total energy              =    -623.59964295 Ry
     estimated scf accuracy    <       0.89418410 Ry
     electrostatic embedding   =       0.21807438 Ry
     correction to one-el term =     -21.78799289 Ry

     iteration #  5     ecut=    35.00 Ry     beta= 0.70
     Davidson diagonalization with overlap
     ethr =  5.14E-04,  avg # of iterations =  2.0

     negative rho (up, down):  4.506E-03 0.000E+00

     add environment contribution to local potential
     Polarization accuracy = 9.9E-06, # of iterations =  29

     total cpu time spent up to now is       30.9 secs

     total energy              =    -623.68544113 Ry
     estimated scf accuracy    <       0.08934611 Ry
     electrostatic embedding   =       0.20994123 Ry
     correction to one-el term =     -21.95105892 Ry

     iteration #  6     ecut=    35.00 Ry     beta= 0.70
     Davidson diagonalization with overlap
     ethr =  1.00E-04,  avg # of iterations = 11.0

     negative rho (up, down):  4.668E-03 0.000E+00

     add environment contribution to local potential
     Polarization accuracy = 3.5E-06, # of iterations =  30

     total cpu time spent up to now is       35.1 secs

     total energy              =    -623.68790880 Ry
     estimated scf accuracy    <       0.27353327 Ry
     electrostatic embedding   =       0.19705222 Ry
     correction to one-el term =     -22.51231145 Ry

     iteration #  7     ecut=    35.00 Ry     beta= 0.70
     Davidson diagonalization with overlap
     ethr =  1.00E-04,  avg # of iterations =  1.0

     negative rho (up, down):  4.053E-03 0.000E+00

     add environment contribution to local potential
     Polarization accuracy = 6.6E-06, # of iterations =  29

     total cpu time spent up to now is       39.5 secs

     total energy              =    -623.70035774 Ry
     estimated scf accuracy    <       0.04213116 Ry
     electrostatic embedding   =       0.19879334 Ry
     correction to one-el term =     -22.68792258 Ry

     iteration #  8     ecut=    35.00 Ry     beta= 0.70
     Davidson diagonalization with overlap
     ethr =  4.73E-05,  avg # of iterations =  2.0

     negative rho (up, down):  3.821E-03 0.000E+00

     add environment contribution to local potential
     Polarization accuracy = 6.8E-06, # of iterations =  29

     total cpu time spent up to now is       44.8 secs

     total energy              =    -623.70479946 Ry
     estimated scf accuracy    <       0.01499557 Ry
     electrostatic embedding   =       0.19430317 Ry
     correction to one-el term =     -22.89097821 Ry

     iteration #  9     ecut=    35.00 Ry     beta= 0.70
     Davidson diagonalization with overlap
     ethr =  1.68E-05,  avg # of iterations =  7.0

     negative rho (up, down):  3.955E-03 0.000E+00

     add environment contribution to local potential
     Polarization accuracy = 6.1E-06, # of iterations =  29

     total cpu time spent up to now is       48.7 secs

     total energy              =    -623.70577208 Ry
     estimated scf accuracy    <       0.01630109 Ry
     electrostatic embedding   =       0.19322024 Ry
     correction to one-el term =     -22.91023517 Ry

     iteration # 10     ecut=    35.00 Ry     beta= 0.70
     Davidson diagonalization with overlap
     ethr =  1.68E-05,  avg # of iterations =  1.0

     negative rho (up, down):  3.657E-03 0.000E+00

     add environment contribution to local potential
     Polarization accuracy = 7.7E-06, # of iterations =  29

     total cpu time spent up to now is       53.4 secs

     total energy              =    -623.70740461 Ry
     estimated scf accuracy    <       0.00168860 Ry
     electrostatic embedding   =       0.19096382 Ry
     correction to one-el term =     -22.95869566 Ry

     iteration # 11     ecut=    35.00 Ry     beta= 0.70
     Davidson diagonalization with overlap
     ethr =  1.90E-06,  avg # of iterations = 10.0

     negative rho (up, down):  3.603E-03 0.000E+00

     add environment contribution to local potential
     Polarization accuracy = 8.5E-06, # of iterations =  29

     total cpu time spent up to now is       59.3 secs

     total energy              =    -623.70686420 Ry
     estimated scf accuracy    <       0.00075126 Ry
     electrostatic embedding   =       0.19075105 Ry
     correction to one-el term =     -23.03219206 Ry

     iteration # 12     ecut=    35.00 Ry     beta= 0.70
     Davidson diagonalization with overlap
     ethr =  8.44E-07,  avg # of iterations =  1.0

     negative rho (up, down):  3.585E-03 0.000E+00

     add environment contribution to local potential
     Polarization accuracy = 9.9E-06, # of iterations =  28

     total cpu time spent up to now is       64.0 secs

     total energy              =    -623.70667939 Ry
     estimated scf accuracy    <       0.00089715 Ry
     electrostatic embedding   =       0.19051727 Ry
     correction to one-el term =     -23.04525432 Ry

     iteration # 13     ecut=    35.00 Ry     beta= 0.70
     Davidson diagonalization with overlap
     ethr =  8.44E-07,  avg # of iterations =  1.0

     negative rho (up, down):  3.571E-03 0.000E+00

     add environment contribution to local potential
     Polarization accuracy = 8.9E-06, # of iterations =  29

     total cpu time spent up to now is       67.9 secs

     total energy              =    -623.70665950 Ry
     estimated scf accuracy    <       0.00022071 Ry
     electrostatic embedding   =       0.19056550 Ry
     correction to one-el term =     -23.03194647 Ry

     iteration # 14     ecut=    35.00 Ry     beta= 0.70
     Davidson diagonalization with overlap
     ethr =  2.48E-07,  avg # of iterations =  1.0

     negative rho (up, down):  3.571E-03 0.000E+00

     add environment contribution to local potential
     Polarization accuracy = 9.0E-06, # of iterations =  29

     total cpu time spent up to now is       72.4 secs

     total energy              =    -623.70659398 Ry
     estimated scf accuracy    <       0.00007304 Ry
     electrostatic embedding   =       0.19083617 Ry
     correction to one-el term =     -23.02729182 Ry

     iteration # 15     ecut=    35.00 Ry     beta= 0.70
     Davidson diagonalization with overlap
     ethr =  8.21E-08,  avg # of iterations =  1.0

     negative rho (up, down):  3.570E-03 0.000E+00

     add environment contribution to local potential
     Polarization accuracy = 9.4E-06, # of iterations =  29

     total cpu time spent up to now is       77.7 secs

     total energy              =    -623.70659435 Ry
     estimated scf accuracy    <       0.00016248 Ry
     electrostatic embedding   =       0.19086870 Ry
     correction to one-el term =     -23.02863776 Ry

     iteration # 16     ecut=    35.00 Ry     beta= 0.70
     Davidson diagonalization with overlap
     ethr =  8.21E-08,  avg # of iterations =  1.0

     negative rho (up, down):  3.570E-03 0.000E+00

     add environment contribution to local potential
     Polarization accuracy = 9.4E-06, # of iterations =  29

     total cpu time spent up to now is       82.6 secs

     total energy              =    -623.70653244 Ry
     estimated scf accuracy    <       0.00023203 Ry
     electrostatic embedding   =       0.19098301 Ry
     correction to one-el term =     -23.02707737 Ry

     iteration # 17     ecut=    35.00 Ry     beta= 0.70
     Davidson diagonalization with overlap
     ethr =  8.21E-08,  avg # of iterations =  1.0

     negative rho (up, down):  3.569E-03 0.000E+00

     add environment contribution to local potential
     Polarization accuracy = 9.4E-06, # of iterations =  29

     total cpu time spent up to now is       86.4 secs

     total energy              =    -623.70653370 Ry
     estimated scf accuracy    <       0.00000619 Ry
     electrostatic embedding   =       0.19097411 Ry
     correction to one-el term =     -23.03355836 Ry

     iteration # 18     ecut=    35.00 Ry     beta= 0.70
     Davidson diagonalization with overlap
     ethr =  6.95E-09,  avg # of iterations =  1.0

     negative rho (up, down):  3.569E-03 0.000E+00

     add environment contribution to local potential
     Polarization accuracy = 4.6E-06, # of iterations =  29

     total cpu time spent up to now is       91.4 secs

     total energy              =    -623.70652677 Ry
     estimated scf accuracy    <       0.00001004 Ry
     electrostatic embedding   =       0.19091759 Ry
     correction to one-el term =     -23.03888398 Ry

     iteration # 19     ecut=    35.00 Ry     beta= 0.70
     Davidson diagonalization with overlap
     ethr =  6.95E-09,  avg # of iterations =  1.0

     negative rho (up, down):  3.568E-03 0.000E+00

     add environment contribution to local potential
     Polarization accuracy = 9.5E-06, # of iterations =  29

     total cpu time spent up to now is       96.3 secs

     total energy              =    -623.70652171 Ry
     estimated scf accuracy    <       0.00000684 Ry
     electrostatic embedding   =       0.19090607 Ry
     correction to one-el term =     -23.03931163 Ry

     iteration # 20     ecut=    35.00 Ry     beta= 0.70
     Davidson diagonalization with overlap
     ethr =  6.95E-09,  avg # of iterations =  1.0

     negative rho (up, down):  3.568E-03 0.000E+00

     the potential shift due to the Gaussian-smeared nuclei is    -0.4600 ev

     total cpu time spent up to now is       98.5 secs

     End of self-consistent calculation

          k = 0.0000 0.0000 0.0000 (  7286 PWs)   bands (ev):

   -24.8106 -11.3352  -9.6939  -8.4683  -8.2334  -7.6663  -7.6660  -7.5219
    -7.3512  -6.5071  -6.3782  -6.2641  -6.0395  -5.9992  -5.9261  -5.7921
    -5.1094  -5.0657  -5.0133  -4.8133  -4.7657  -4.7208  -4.6813  -4.6388
    -4.6271  -4.4411  -4.4233  -4.3303  -4.2190  -3.9882  -3.8725  -3.1311
    -3.0005  -2.7339  -2.4903  -2.4570  -2.3894  -2.2288  -2.0608  -1.9417
    -1.7566  -1.7547  -1.5486  -1.5155  -1.4710  -1.3058  -1.1594  -0.0764
     0.2382   0.3124   0.9035   1.5936   1.7267   2.7027   3.0164   3.0933
     4.4286   4.6318   4.7090   5.0347   5.5145   5.8768   6.1183   6.1381
     6.9920   7.1892   7.4265   7.5634   7.7144   8.0402   8.9275   9.3223
     9.3256   9.3772   9.6768   9.9824  10.0700  10.1757  10.3143  10.3648

     the Fermi energy is    -1.3835 ev

!    total energy              =    -623.70648749 Ry
     estimated scf accuracy    <       0.00000127 Ry
     smearing contrib. (-TS)   =      -0.00169258 Ry
     internal energy E=F+TS    =    -623.70479490 Ry

     The total energy is F=E-TS. E is the sum of the following terms:
     one-electron contribution =   -3916.52328619 Ry
     hartree contribution      =    2005.23256281 Ry
     xc contribution           =    -262.77000305 Ry
     ewald contribution        =    1573.20467954 Ry
     electrostatic embedding   =       0.19095385 Ry
     correction to one-el term =     -23.03970185 Ry

     convergence has been achieved in  20 iterations

     negative rho (up, down):  3.568E-03 0.000E+00

     Forces acting on atoms (cartesian axes, Ry/au):

     atom    1 type  1   force =    -0.00001147   -0.00432115    0.07648320
     atom    2 type  2   force =    -0.00009992    0.00125353   -0.05611371
     atom    3 type  3   force =     0.00158917    0.01299102    0.04593524
     atom    4 type  3   force =    -0.00061538    0.01319979    0.04642945
     atom    5 type  3   force =    -0.00168955    0.01127981    0.01038368
     atom    6 type  3   force =     0.00072189    0.00841983    0.06062285
     atom    7 type  3   force =    -0.00140323   -0.01218972   -0.05255609
     atom    8 type  3   force =     0.00045988   -0.02045294   -0.03463395
     atom    9 type  3   force =     0.01911733   -0.00525932   -0.04845719
     atom   10 type  3   force =    -0.01806871   -0.00492085   -0.04809348

     Total force =     0.165983     Total SCF correction =     0.005500

     Writing output data file /home/simplogic86/Work/QE1/Environ/tests/../..//tempdir/pwscf.save/
 
     init_run     :      5.02s CPU      5.22s WALL (       1 calls)
     electrons    :     86.81s CPU     93.20s WALL (       1 calls)
     forces       :      3.33s CPU      3.47s WALL (       1 calls)

     Called by init_run:
     wfcinit      :      0.28s CPU      0.32s WALL (       1 calls)
     potinit      :      1.04s CPU      1.05s WALL (       1 calls)
     hinit0       :      3.05s CPU      3.06s WALL (       1 calls)

     Called by electrons:
     c_bands      :     17.66s CPU     18.25s WALL (      20 calls)
     sum_band     :     15.36s CPU     17.50s WALL (      20 calls)
     v_of_rho     :      6.11s CPU      7.02s WALL (      21 calls)
     newd         :      9.62s CPU     11.95s WALL (      21 calls)
     mix_rho      :      0.66s CPU      0.66s WALL (      20 calls)

     Called by c_bands:
     init_us_2    :      0.18s CPU      0.18s WALL (      41 calls)
     regterg      :     16.26s CPU     16.86s WALL (      20 calls)

     Called by *egterg:
     rdiaghg      :      0.46s CPU      0.47s WALL (      92 calls)
     h_psi        :     12.98s CPU     13.47s WALL (      93 calls)
     s_psi        :      0.62s CPU      0.62s WALL (      93 calls)
     g_psi        :      0.04s CPU      0.04s WALL (      72 calls)

     Called by h_psi:
     h_psi:calbec :      0.59s CPU      0.60s WALL (      93 calls)
     vloc_psi     :     11.73s CPU     12.20s WALL (      93 calls)
     add_vuspsi   :      0.61s CPU      0.61s WALL (      93 calls)

     General routines
     calbec       :      0.86s CPU      0.88s WALL (     117 calls)
     fft          :      1.96s CPU      2.03s WALL (     238 calls)
     ffts         :      0.11s CPU      0.12s WALL (      41 calls)
     fftw         :     11.63s CPU     12.06s WALL (    4592 calls)
     interpolate  :      0.29s CPU      0.31s WALL (      21 calls)
 
     Parallel routines
 
     Environ routines
 
     PWSCF        :   1m35.26s CPU   1m42.02s WALL

 
   This run was terminated on:  20:42:49   1Oct2021            

=------------------------------------------------------------------------------=
   JOB DONE.
=------------------------------------------------------------------------------=

%%%% CELL %%%%%%%%%%%%%%%%%%%%%%%%%%%%%%%%%%%%%%%%%%%%%%%%%%%%%%%%%%%%%%%%%%%%%%

 cell label                 = system         

 cell volume                =    4181.121453

%%%% IONS %%%%%%%%%%%%%%%%%%%%%%%%%%%%%%%%%%%%%%%%%%%%%%%%%%%%%%%%%%%%%%%%%%%%%%

 total charge               =    -90.0000000
 center of charge           =      4.1495643     4.0082320     3.0927629
 dipole                     =      0.0000000     0.0000000     0.0000000
 quadrupole (pc)            =   -730.5101255  -614.6110457  -876.7220256
 quadrupole (gauss)         =   -741.7601255  -625.8610457  -887.9720256

   i | type | coordinates
 -----------------------------------------------------------------------
   1 |    1 |                      5.3350841     4.6467234     8.2964034
   2 |    2 |                      5.3350096     4.6196233    10.4752278
   3 |    3 |                      8.0613271     0.0980580     4.3875164
   4 |    3 |                      2.6089894     0.0980583     4.3875141
   5 |    3 |                      0.0000366     4.7208463     4.3641304
   6 |    3 |                      5.3351596     4.7216127     4.7755699
   7 |    3 |                      0.0000411     7.8029520     0.0000000
   8 |    3 |                      5.3351612     7.6977491     0.1488629
   9 |    3 |                      2.6978606     3.1521739     0.0837858
  10 |    3 |                      7.9724637     3.1521745     0.0837887

%%%% SYSTEM %%%%%%%%%%%%%%%%%%%%%%%%%%%%%%%%%%%%%%%%%%%%%%%%%%%%%%%%%%%%%%%%%%%%

 system is built from all present ionic types

 system defined dimension   =              0
 system defined axis        =              3

 system center              =      4.1495643     4.0082320     3.0927629
 system width               =      7.5019909

%%%% IONS %%%%%%%%%%%%%%%%%%%%%%%%%%%%%%%%%%%%%%%%%%%%%%%%%%%%%%%%%%%%%%%%%%%%%%

 total charge               =    -90.0000000
 center of charge           =      4.1495643     4.0082320     3.0927629
 dipole                     =      0.0000000     0.0000000     0.0000000
 quadrupole (pc)            =   -730.5101255  -614.6110457  -876.7220256
 quadrupole (gauss)         =   -741.7601255  -625.8610457  -887.9720256

   i | type | coordinates
 -----------------------------------------------------------------------
   1 |    1 |                      5.3350841     4.6467234     8.2964034
   2 |    2 |                      5.3350096     4.6196233    10.4752278
   3 |    3 |                      8.0613271     0.0980580     4.3875164
   4 |    3 |                      2.6089894     0.0980583     4.3875141
   5 |    3 |                      0.0000366     4.7208463     4.3641304
   6 |    3 |                      5.3351596     4.7216127     4.7755699
   7 |    3 |                      0.0000411     7.8029520     0.0000000
   8 |    3 |                      5.3351612     7.6977491     0.1488629
   9 |    3 |                      2.6978606     3.1521739     0.0837858
  10 |    3 |                      7.9724637     3.1521745     0.0837887

%%%% SYSTEM %%%%%%%%%%%%%%%%%%%%%%%%%%%%%%%%%%%%%%%%%%%%%%%%%%%%%%%%%%%%%%%%%%%%

 system is built from all present ionic types

 system defined dimension   =              0
 system defined axis        =              3

 system center              =      4.1495643     4.0082320     3.0927629
 system width               =      7.5019909

%%%% EXTERNALS %%%%%%%%%%%%%%%%%%%%%%%%%%%%%%%%%%%%%%%%%%%%%%%%%%%%%%%%%%%%%%%%%

 number of external charges =              1

 total external charge      =      1.0000000

%%%% CHARGES %%%%%%%%%%%%%%%%%%%%%%%%%%%%%%%%%%%%%%%%%%%%%%%%%%%%%%%%%%%%%%%%%%%

 total number of charges    =             11

 total charge               =    -90.0000000

%%%% CHARGES %%%%%%%%%%%%%%%%%%%%%%%%%%%%%%%%%%%%%%%%%%%%%%%%%%%%%%%%%%%%%%%%%%%

 total number of charges    =             12

 total charge               =    -89.0000000

%%%% CELL %%%%%%%%%%%%%%%%%%%%%%%%%%%%%%%%%%%%%%%%%%%%%%%%%%%%%%%%%%%%%%%%%%%%%%

 cell label                 = system         

 cell volume                =    4181.121453

%%%% EXTERNALS %%%%%%%%%%%%%%%%%%%%%%%%%%%%%%%%%%%%%%%%%%%%%%%%%%%%%%%%%%%%%%%%%

 number of external charges =              1

 total external charge      =      1.0000000

%%%% ELECTRONS %%%%%%%%%%%%%%%%%%%%%%%%%%%%%%%%%%%%%%%%%%%%%%%%%%%%%%%%%%%%%%%%%

 number of electrons        =             89

 total electronic charge    =     89.0000000

%%%% ELECTRONS %%%%%%%%%%%%%%%%%%%%%%%%%%%%%%%%%%%%%%%%%%%%%%%%%%%%%%%%%%%%%%%%%

 number of electrons        =             89

 total electronic charge    =     89.0000000

%%%% CHARGES %%%%%%%%%%%%%%%%%%%%%%%%%%%%%%%%%%%%%%%%%%%%%%%%%%%%%%%%%%%%%%%%%%%

 total number of charges    =             99

 total charge               =     -1.0000000

%%%% CHARGES %%%%%%%%%%%%%%%%%%%%%%%%%%%%%%%%%%%%%%%%%%%%%%%%%%%%%%%%%%%%%%%%%%%

 total number of charges    =            100

 total charge               =     -0.0000000

%%%% BOUNDARY %%%%%%%%%%%%%%%%%%%%%%%%%%%%%%%%%%%%%%%%%%%%%%%%%%%%%%%%%%%%%%%%%%

 boundary label             = solvent             
 boundary mode              = full                

 boundary is built as a type-2 function of a smooth density

 using the modified SCCS function:
 rhomax                     =      0.0050000
 rhomin                     =      0.0001000

 volume of the QM region    =   1610.6630766

 surface of the QM region   =    255.0494111

%%%% DENSITY %%%%%%%%%%%%%%%%%%%%%%%%%%%%%%%%%%%%%%%%%%%%%%%%%%%%%%%%%%%%%%%%%%%

 density label              = dvtot                                             

 integral of density        =    0.000000000    

%%%% DENSITY %%%%%%%%%%%%%%%%%%%%%%%%%%%%%%%%%%%%%%%%%%%%%%%%%%%%%%%%%%%%%%%%%%%

 density label              = vreference                                        

 integral of density        =    0.000000000    

%%%% DENSITY %%%%%%%%%%%%%%%%%%%%%%%%%%%%%%%%%%%%%%%%%%%%%%%%%%%%%%%%%%%%%%%%%%%

 density label              = velectrostatic                                    

 integral of density        =    0.000000000    

%%%% CHARGES %%%%%%%%%%%%%%%%%%%%%%%%%%%%%%%%%%%%%%%%%%%%%%%%%%%%%%%%%%%%%%%%%%%

 total number of charges    =             99

 total charge               =     -1.0000000

%%%% DENSITY %%%%%%%%%%%%%%%%%%%%%%%%%%%%%%%%%%%%%%%%%%%%%%%%%%%%%%%%%%%%%%%%%%%

 density label              = vsoftcavity                                       

 integral of density        =    0.000000000    

%%%% ELECTRONS %%%%%%%%%%%%%%%%%%%%%%%%%%%%%%%%%%%%%%%%%%%%%%%%%%%%%%%%%%%%%%%%%

 number of electrons        =             89

 total electronic charge    =     89.0000000

%%%% ELECTRONS %%%%%%%%%%%%%%%%%%%%%%%%%%%%%%%%%%%%%%%%%%%%%%%%%%%%%%%%%%%%%%%%%

 number of electrons        =             89

 total electronic charge    =     89.0000000

%%%% CHARGES %%%%%%%%%%%%%%%%%%%%%%%%%%%%%%%%%%%%%%%%%%%%%%%%%%%%%%%%%%%%%%%%%%%

 total number of charges    =             99

 total charge               =     -1.0000000

%%%% CHARGES %%%%%%%%%%%%%%%%%%%%%%%%%%%%%%%%%%%%%%%%%%%%%%%%%%%%%%%%%%%%%%%%%%%

 total number of charges    =            100

 total charge               =      0.0000000

%%%% BOUNDARY %%%%%%%%%%%%%%%%%%%%%%%%%%%%%%%%%%%%%%%%%%%%%%%%%%%%%%%%%%%%%%%%%%

 boundary label             = solvent             
 boundary mode              = full                

 boundary is built as a type-2 function of a smooth density

 using the modified SCCS function:
 rhomax                     =      0.0050000
 rhomin                     =      0.0001000

 volume of the QM region    =   1500.5105329

 surface of the QM region   =    259.8059959

%%%% DENSITY %%%%%%%%%%%%%%%%%%%%%%%%%%%%%%%%%%%%%%%%%%%%%%%%%%%%%%%%%%%%%%%%%%%

 density label              = vreference                                        

 integral of density        =  -0.2207058436E-11

%%%% COMPUTE ELECTROSTATIC POTENTIAL %%%%%%%%%%%%%%%%%%%%%%%%%%%%%%%%%%%%%%%%%%%

   i |      alpha     |       pAp      |      rzold     |    delta_qm    |    delta_en    |       tol
 ---------------------------------------------------------------------------------------------------------
   1 |   0.991701E+00 |   0.128311E+04 |   0.127246E+04 |   0.184003E+00 |   0.263273E+05 |   0.100000E-04
   2 |   0.439348E-01 |   0.518667E+04 |   0.227875E+03 |   0.220621E-01 |   0.378485E+03 |   0.100000E-04
   3 |   0.102757E+00 |   0.115711E+02 |   0.118901E+01 |   0.337191E-01 |   0.884116E+03 |   0.100000E-04
   4 |   0.510765E+00 |   0.233506E+00 |   0.119267E+00 |   0.240174E-01 |   0.448547E+03 |   0.100000E-04
   5 |   0.926546E+00 |   0.118289E+00 |   0.109600E+00 |   0.144004E-01 |   0.161252E+03 |   0.100000E-04
   6 |   0.286156E+00 |   0.506086E+00 |   0.144820E+00 |   0.106986E-01 |   0.890043E+02 |   0.100000E-04
   7 |   0.488048E+00 |   0.112598E+00 |   0.549531E-01 |   0.956786E-02 |   0.711846E+02 |   0.100000E-04
   8 |   0.599352E+00 |   0.244829E-01 |   0.146739E-01 |   0.661190E-02 |   0.339945E+02 |   0.100000E-04
   9 |   0.807130E+00 |   0.926084E-02 |   0.747470E-02 |   0.475665E-02 |   0.175938E+02 |   0.100000E-04
  10 |   0.785267E+00 |   0.107866E-01 |   0.847040E-02 |   0.369501E-02 |   0.106167E+02 |   0.100000E-04
  11 |   0.467957E+00 |   0.133904E-01 |   0.626612E-02 |   0.415726E-02 |   0.134391E+02 |   0.100000E-04
  12 |   0.444279E+00 |   0.660157E-02 |   0.293294E-02 |   0.391671E-02 |   0.119288E+02 |   0.100000E-04
  13 |   0.176127E+01 |   0.876883E-03 |   0.154443E-02 |   0.235977E-02 |   0.433009E+01 |   0.100000E-04
  14 |   0.463268E+00 |   0.487233E-02 |   0.225720E-02 |   0.220434E-02 |   0.377846E+01 |   0.100000E-04
  15 |   0.708957E-01 |   0.245969E-01 |   0.174381E-02 |   0.199428E-02 |   0.309263E+01 |   0.100000E-04
  16 |   0.286129E+00 |   0.284345E-02 |   0.813596E-03 |   0.132218E-02 |   0.135938E+01 |   0.100000E-04
  17 |   0.336037E+00 |   0.782125E-03 |   0.262823E-03 |   0.700458E-03 |   0.381523E+00 |   0.100000E-04
  18 |   0.538582E+00 |   0.855516E-04 |   0.460765E-04 |   0.292604E-03 |   0.665758E-01 |   0.100000E-04
  19 |   0.608285E+00 |   0.171513E-04 |   0.104329E-04 |   0.149381E-03 |   0.173520E-01 |   0.100000E-04
  20 |   0.655625E+00 |   0.411082E-05 |   0.269516E-05 |   0.754026E-04 |   0.442108E-02 |   0.100000E-04
  21 |   0.509455E+00 |   0.134778E-05 |   0.686636E-06 |   0.396416E-04 |   0.122196E-02 |   0.100000E-04
  22 |   0.130170E+00 |   0.199600E-05 |   0.259819E-06 |   0.300825E-04 |   0.703697E-03 |   0.100000E-04
  23 |   0.526676E+00 |   0.131617E-06 |   0.693195E-07 |   0.120905E-04 |   0.113669E-03 |   0.100000E-04
  24 |   0.572036E+00 |   0.249168E-07 |   0.142533E-07 |   0.471237E-05 |   0.172677E-04 |   0.100000E-04
  25 |   0.583784E+00 |   0.471431E-08 |   0.275214E-08 |   0.230181E-05 |   0.411998E-05 |   0.100000E-04

 Charges are converged, EXIT

%%%% DENSITY %%%%%%%%%%%%%%%%%%%%%%%%%%%%%%%%%%%%%%%%%%%%%%%%%%%%%%%%%%%%%%%%%%%

 density label              = velectrostatic                                    

 integral of density        =   0.9311480534E-12

%%%% CHARGES %%%%%%%%%%%%%%%%%%%%%%%%%%%%%%%%%%%%%%%%%%%%%%%%%%%%%%%%%%%%%%%%%%%

 total number of charges    =            100

 total charge               =      0.0000000

%%%% DENSITY %%%%%%%%%%%%%%%%%%%%%%%%%%%%%%%%%%%%%%%%%%%%%%%%%%%%%%%%%%%%%%%%%%%

 density label              = vsoftcavity                                       

 integral of density        =    81.81832132    

%%%% DENSITY %%%%%%%%%%%%%%%%%%%%%%%%%%%%%%%%%%%%%%%%%%%%%%%%%%%%%%%%%%%%%%%%%%%

 density label              = dvtot                                             

 integral of density        =    81.81832132    

%%%% ELECTRONS %%%%%%%%%%%%%%%%%%%%%%%%%%%%%%%%%%%%%%%%%%%%%%%%%%%%%%%%%%%%%%%%%

 number of electrons        =             89

 total electronic charge    =     89.0000000

%%%% ELECTRONS %%%%%%%%%%%%%%%%%%%%%%%%%%%%%%%%%%%%%%%%%%%%%%%%%%%%%%%%%%%%%%%%%

 number of electrons        =             89

 total electronic charge    =     89.0000000

%%%% CHARGES %%%%%%%%%%%%%%%%%%%%%%%%%%%%%%%%%%%%%%%%%%%%%%%%%%%%%%%%%%%%%%%%%%%

 total number of charges    =             99

 total charge               =     -1.0000000

%%%% CHARGES %%%%%%%%%%%%%%%%%%%%%%%%%%%%%%%%%%%%%%%%%%%%%%%%%%%%%%%%%%%%%%%%%%%

 total number of charges    =            100

 total charge               =      0.0000000

%%%% BOUNDARY %%%%%%%%%%%%%%%%%%%%%%%%%%%%%%%%%%%%%%%%%%%%%%%%%%%%%%%%%%%%%%%%%%

 boundary label             = solvent             
 boundary mode              = full                

 boundary is built as a type-2 function of a smooth density

 using the modified SCCS function:
 rhomax                     =      0.0050000
 rhomin                     =      0.0001000

 volume of the QM region    =   1509.9214090

 surface of the QM region   =    347.5514228

%%%% DENSITY %%%%%%%%%%%%%%%%%%%%%%%%%%%%%%%%%%%%%%%%%%%%%%%%%%%%%%%%%%%%%%%%%%%

 density label              = vreference                                        

 integral of density        =   0.3229326187E-11

%%%% COMPUTE ELECTROSTATIC POTENTIAL %%%%%%%%%%%%%%%%%%%%%%%%%%%%%%%%%%%%%%%%%%%

 Warning: Bad guess with residual norm =   0.127569E+05, reset to no guess

   i |      alpha     |       pAp      |      rzold     |    delta_qm    |    delta_en    |       tol
 ---------------------------------------------------------------------------------------------------------
   1 |   0.998942E+00 |   0.127491E+04 |   0.127356E+04 |   0.127949E+00 |   0.127300E+05 |   0.100000E-04
   2 |   0.380987E-01 |   0.710726E+03 |   0.270777E+02 |   0.115851E+00 |   0.104366E+05 |   0.100000E-04
   3 |   0.122893E+00 |   0.171696E+02 |   0.211002E+01 |   0.716304E-01 |   0.398980E+04 |   0.100000E-04
   4 |   0.334276E+00 |   0.365540E+00 |   0.122191E+00 |   0.671777E-01 |   0.350919E+04 |   0.100000E-04
   5 |   0.229746E+00 |   0.121328E+01 |   0.278745E+00 |   0.288946E-01 |   0.649216E+03 |   0.100000E-04
   6 |   0.972427E+00 |   0.134883E+00 |   0.131164E+00 |   0.385783E-01 |   0.115729E+04 |   0.100000E-04
   7 |   0.589460E+00 |   0.343904E+00 |   0.202718E+00 |   0.465176E-01 |   0.168264E+04 |   0.100000E-04
   8 |   0.649697E+00 |   0.118960E+00 |   0.772881E-01 |   0.439366E-01 |   0.150110E+04 |   0.100000E-04
   9 |   0.152817E+01 |   0.428228E-01 |   0.654404E-01 |   0.529330E-01 |   0.217876E+04 |   0.100000E-04
  10 |   0.632585E+00 |   0.270529E+00 |   0.171132E+00 |   0.586946E-01 |   0.267887E+04 |   0.100000E-04
  11 |   0.608728E+00 |   0.257637E+00 |   0.156831E+00 |   0.505962E-01 |   0.199064E+04 |   0.100000E-04
  12 |   0.548383E+00 |   0.175419E+00 |   0.961969E-01 |   0.431313E-01 |   0.144657E+04 |   0.100000E-04
  13 |   0.677515E+00 |   0.970257E-01 |   0.657363E-01 |   0.415330E-01 |   0.134135E+04 |   0.100000E-04
  14 |   0.107667E+01 |   0.694369E-01 |   0.747603E-01 |   0.660102E-01 |   0.338827E+04 |   0.100000E-04
  15 |   0.698611E-01 |   0.422639E+01 |   0.295260E+00 |   0.643473E-01 |   0.321971E+04 |   0.100000E-04
  16 |   0.421567E+00 |   0.565028E+00 |   0.238197E+00 |   0.799426E-01 |   0.496950E+04 |   0.100000E-04
  17 |   0.263381E+01 |   0.859127E-01 |   0.226278E+00 |   0.205957E+00 |   0.329843E+05 |   0.100000E-04
  18 |   0.281424E+01 |   0.494083E+00 |   0.139047E+01 |   0.102496E+01 |   0.816897E+06 |   0.100000E-04
  19 |  -0.119662E+00 |  -0.400775E+03 |   0.479575E+02 |   0.170177E+00 |   0.225194E+05 |   0.100000E-04
  20 |   0.355708E+00 |   0.319053E+01 |   0.113490E+01 |   0.888343E-01 |   0.613646E+04 |   0.100000E-04
  21 |   0.534550E+00 |   0.614859E+00 |   0.328673E+00 |   0.505623E-01 |   0.198797E+04 |   0.100000E-04
  22 |   0.270038E+00 |   0.436587E+00 |   0.117895E+00 |   0.410109E-01 |   0.130784E+04 |   0.100000E-04
  23 |   0.158405E+00 |   0.988280E+00 |   0.156549E+00 |   0.301522E-01 |   0.706959E+03 |   0.100000E-04
  24 |   0.455544E+00 |   0.783132E-01 |   0.356751E-01 |   0.170326E-01 |   0.225588E+03 |   0.100000E-04
  25 |   0.568205E+00 |   0.200628E-01 |   0.113998E-01 |   0.127260E-01 |   0.125933E+03 |   0.100000E-04
  26 |   0.560659E+00 |   0.118898E-01 |   0.666612E-02 |   0.100253E-01 |   0.781538E+02 |   0.100000E-04
  27 |   0.557964E+00 |   0.627645E-02 |   0.350203E-02 |   0.738190E-02 |   0.423733E+02 |   0.100000E-04
  28 |   0.172997E+00 |   0.126849E-01 |   0.219445E-02 |   0.647138E-02 |   0.325650E+02 |   0.100000E-04
  29 |   0.110145E+00 |   0.531782E-01 |   0.585733E-02 |   0.484104E-02 |   0.182236E+02 |   0.100000E-04
  30 |   0.614496E+00 |   0.176582E-02 |   0.108509E-02 |   0.358671E-02 |   0.100034E+02 |   0.100000E-04
  31 |   0.810527E+00 |   0.457985E-03 |   0.371209E-03 |   0.237987E-02 |   0.440414E+01 |   0.100000E-04
  32 |   0.760317E+00 |   0.220800E-03 |   0.167878E-03 |   0.141680E-02 |   0.156089E+01 |   0.100000E-04
  33 |   0.656935E+00 |   0.111032E-03 |   0.729406E-04 |   0.901939E-03 |   0.632573E+00 |   0.100000E-04
  34 |   0.386271E+00 |   0.103242E-03 |   0.398794E-04 |   0.706332E-03 |   0.387948E+00 |   0.100000E-04
  35 |   0.317095E+00 |   0.124407E-03 |   0.394487E-04 |   0.582103E-03 |   0.263485E+00 |   0.100000E-04
  36 |   0.788705E+00 |   0.120466E-04 |   0.950124E-05 |   0.383049E-03 |   0.114094E+00 |   0.100000E-04
  37 |   0.648542E+00 |   0.973760E-05 |   0.631524E-05 |   0.295560E-03 |   0.679279E-01 |   0.100000E-04
  38 |   0.776555E+00 |   0.351568E-05 |   0.273012E-05 |   0.186886E-03 |   0.271587E-01 |   0.100000E-04
  39 |   0.566917E+00 |   0.190777E-05 |   0.108155E-05 |   0.122140E-03 |   0.116004E-01 |   0.100000E-04
  40 |   0.781340E-01 |   0.186016E-04 |   0.145342E-05 |   0.107020E-03 |   0.890601E-02 |   0.100000E-04
  41 |   0.111478E+00 |   0.829700E-05 |   0.924931E-06 |   0.977119E-04 |   0.742422E-02 |   0.100000E-04
  42 |   0.228392E+00 |   0.368524E-05 |   0.841679E-06 |   0.746710E-04 |   0.433571E-02 |   0.100000E-04
  43 |   0.800450E+00 |   0.243528E-06 |   0.194932E-06 |   0.618046E-04 |   0.297029E-02 |   0.100000E-04
  44 |   0.845274E+00 |   0.119006E-06 |   0.100593E-06 |   0.418986E-04 |   0.136507E-02 |   0.100000E-04
  45 |   0.944870E+00 |   0.653872E-07 |   0.617824E-07 |   0.324474E-04 |   0.818682E-03 |   0.100000E-04
  46 |   0.687124E+00 |   0.465199E-07 |   0.319649E-07 |   0.245156E-04 |   0.467347E-03 |   0.100000E-04
  47 |   0.658948E+00 |   0.302569E-07 |   0.199377E-07 |   0.154718E-04 |   0.186140E-03 |   0.100000E-04
  48 |   0.573548E+00 |   0.146968E-07 |   0.842930E-08 |   0.101431E-04 |   0.800016E-04 |   0.100000E-04
  49 |   0.710325E+00 |   0.462808E-08 |   0.328744E-08 |   0.554705E-05 |   0.239266E-04 |   0.100000E-04
  50 |   0.677379E+00 |   0.125436E-08 |   0.849678E-09 |   0.278640E-05 |   0.603730E-05 |   0.100000E-04

 Charges are converged, EXIT

%%%% DENSITY %%%%%%%%%%%%%%%%%%%%%%%%%%%%%%%%%%%%%%%%%%%%%%%%%%%%%%%%%%%%%%%%%%%

 density label              = velectrostatic                                    

 integral of density        =  -0.4681550520E-11

%%%% CHARGES %%%%%%%%%%%%%%%%%%%%%%%%%%%%%%%%%%%%%%%%%%%%%%%%%%%%%%%%%%%%%%%%%%%

 total number of charges    =            100

 total charge               =      0.0000000

%%%% DENSITY %%%%%%%%%%%%%%%%%%%%%%%%%%%%%%%%%%%%%%%%%%%%%%%%%%%%%%%%%%%%%%%%%%%

 density label              = vsoftcavity                                       

 integral of density        =    1543.128986    

%%%% DENSITY %%%%%%%%%%%%%%%%%%%%%%%%%%%%%%%%%%%%%%%%%%%%%%%%%%%%%%%%%%%%%%%%%%%

 density label              = dvtot                                             

 integral of density        =    1543.128986    

%%%% ELECTRONS %%%%%%%%%%%%%%%%%%%%%%%%%%%%%%%%%%%%%%%%%%%%%%%%%%%%%%%%%%%%%%%%%

 number of electrons        =             89

 total electronic charge    =     89.0000000

%%%% ELECTRONS %%%%%%%%%%%%%%%%%%%%%%%%%%%%%%%%%%%%%%%%%%%%%%%%%%%%%%%%%%%%%%%%%

 number of electrons        =             89

 total electronic charge    =     89.0000000

%%%% CHARGES %%%%%%%%%%%%%%%%%%%%%%%%%%%%%%%%%%%%%%%%%%%%%%%%%%%%%%%%%%%%%%%%%%%

 total number of charges    =             99

 total charge               =     -1.0000000

%%%% CHARGES %%%%%%%%%%%%%%%%%%%%%%%%%%%%%%%%%%%%%%%%%%%%%%%%%%%%%%%%%%%%%%%%%%%

 total number of charges    =            100

 total charge               =      0.0000000

%%%% BOUNDARY %%%%%%%%%%%%%%%%%%%%%%%%%%%%%%%%%%%%%%%%%%%%%%%%%%%%%%%%%%%%%%%%%%

 boundary label             = solvent             
 boundary mode              = full                

 boundary is built as a type-2 function of a smooth density

 using the modified SCCS function:
 rhomax                     =      0.0050000
 rhomin                     =      0.0001000

 volume of the QM region    =   1484.0734632

 surface of the QM region   =    274.7962825

%%%% DENSITY %%%%%%%%%%%%%%%%%%%%%%%%%%%%%%%%%%%%%%%%%%%%%%%%%%%%%%%%%%%%%%%%%%%

 density label              = vreference                                        

 integral of density        =  -0.5857251263E-11

%%%% COMPUTE ELECTROSTATIC POTENTIAL %%%%%%%%%%%%%%%%%%%%%%%%%%%%%%%%%%%%%%%%%%%

 Warning: Bad guess with residual norm =   0.372196E+04, reset to no guess

   i |      alpha     |       pAp      |      rzold     |    delta_qm    |    delta_en    |       tol
 ---------------------------------------------------------------------------------------------------------
   1 |   0.999310E+00 |   0.127225E+04 |   0.127137E+04 |   0.691369E-01 |   0.371686E+04 |   0.100000E-04
   2 |   0.466992E-01 |   0.306968E+03 |   0.143351E+02 |   0.620625E-01 |   0.299513E+04 |   0.100000E-04
   3 |   0.114728E+00 |   0.169781E+02 |   0.194787E+01 |   0.429516E-01 |   0.143455E+04 |   0.100000E-04
   4 |   0.149367E+01 |   0.519132E-01 |   0.775409E-01 |   0.159744E-01 |   0.198430E+03 |   0.100000E-04
   5 |   0.286254E+00 |   0.750566E+00 |   0.214853E+00 |   0.141187E-01 |   0.155005E+03 |   0.100000E-04
   6 |   0.198638E+00 |   0.131875E+01 |   0.261954E+00 |   0.150551E-01 |   0.176248E+03 |   0.100000E-04
   7 |   0.451057E+00 |   0.113765E+00 |   0.513145E-01 |   0.113116E-01 |   0.994950E+02 |   0.100000E-04
   8 |   0.600625E+00 |   0.294997E-01 |   0.177183E-01 |   0.936626E-02 |   0.682163E+02 |   0.100000E-04
   9 |   0.112295E+01 |   0.708515E-02 |   0.795624E-02 |   0.677698E-02 |   0.357132E+02 |   0.100000E-04
  10 |   0.587328E+00 |   0.169787E-01 |   0.997207E-02 |   0.477934E-02 |   0.177620E+02 |   0.100000E-04
  11 |   0.323107E+00 |   0.187017E-01 |   0.604264E-02 |   0.478566E-02 |   0.178090E+02 |   0.100000E-04
  12 |   0.609664E+00 |   0.256992E-02 |   0.156679E-02 |   0.432675E-02 |   0.145573E+02 |   0.100000E-04
  13 |   0.902875E+00 |   0.185986E-02 |   0.167922E-02 |   0.472252E-02 |   0.173422E+02 |   0.100000E-04
  14 |   0.617574E+00 |   0.420588E-02 |   0.259744E-02 |   0.562682E-02 |   0.246196E+02 |   0.100000E-04
  15 |   0.419173E+00 |   0.635502E-02 |   0.266385E-02 |   0.496012E-02 |   0.191311E+02 |   0.100000E-04
  16 |   0.104535E+00 |   0.148094E-01 |   0.154811E-02 |   0.439478E-02 |   0.150186E+02 |   0.100000E-04
  17 |   0.244304E+00 |   0.868083E-02 |   0.212076E-02 |   0.224433E-02 |   0.391679E+01 |   0.100000E-04
  18 |   0.528992E+00 |   0.787419E-03 |   0.416538E-03 |   0.110041E-02 |   0.941597E+00 |   0.100000E-04
  19 |   0.701901E+00 |   0.118492E-03 |   0.831699E-04 |   0.731093E-03 |   0.415625E+00 |   0.100000E-04
  20 |   0.580294E+00 |   0.492439E-04 |   0.285759E-04 |   0.354279E-03 |   0.975993E-01 |   0.100000E-04
  21 |   0.489941E+00 |   0.227787E-04 |   0.111602E-04 |   0.185222E-03 |   0.266774E-01 |   0.100000E-04
  22 |   0.565303E+00 |   0.427039E-05 |   0.241407E-05 |   0.906827E-04 |   0.639447E-02 |   0.100000E-04
  23 |   0.477049E+00 |   0.172383E-05 |   0.822351E-06 |   0.471770E-04 |   0.173068E-02 |   0.100000E-04
  24 |   0.160269E+00 |   0.197207E-05 |   0.316063E-06 |   0.395313E-04 |   0.121517E-02 |   0.100000E-04
  25 |   0.316404E+00 |   0.610908E-06 |   0.193294E-06 |   0.245161E-04 |   0.467367E-03 |   0.100000E-04
  26 |   0.529138E+00 |   0.841124E-07 |   0.445071E-07 |   0.126034E-04 |   0.123519E-03 |   0.100000E-04
  27 |   0.675039E+00 |   0.224206E-07 |   0.151348E-07 |   0.653626E-05 |   0.332211E-04 |   0.100000E-04
  28 |   0.356320E+00 |   0.107495E-07 |   0.383025E-08 |   0.564000E-05 |   0.247352E-04 |   0.100000E-04
  29 |   0.745923E-01 |   0.190498E-06 |   0.142097E-07 |   0.419065E-05 |   0.136559E-04 |   0.100000E-04
  30 |   0.685133E+00 |   0.196280E-08 |   0.134478E-08 |   0.245618E-05 |   0.469113E-05 |   0.100000E-04

 Charges are converged, EXIT

%%%% DENSITY %%%%%%%%%%%%%%%%%%%%%%%%%%%%%%%%%%%%%%%%%%%%%%%%%%%%%%%%%%%%%%%%%%%

 density label              = velectrostatic                                    

 integral of density        =   0.6016154217E-11

%%%% CHARGES %%%%%%%%%%%%%%%%%%%%%%%%%%%%%%%%%%%%%%%%%%%%%%%%%%%%%%%%%%%%%%%%%%%

 total number of charges    =            100

 total charge               =      0.0000000

%%%% DENSITY %%%%%%%%%%%%%%%%%%%%%%%%%%%%%%%%%%%%%%%%%%%%%%%%%%%%%%%%%%%%%%%%%%%

 density label              = vsoftcavity                                       

 integral of density        =    72.42822438    

%%%% DENSITY %%%%%%%%%%%%%%%%%%%%%%%%%%%%%%%%%%%%%%%%%%%%%%%%%%%%%%%%%%%%%%%%%%%

 density label              = dvtot                                             

 integral of density        =    72.42822438    

%%%% ELECTRONS %%%%%%%%%%%%%%%%%%%%%%%%%%%%%%%%%%%%%%%%%%%%%%%%%%%%%%%%%%%%%%%%%

 number of electrons        =             89

 total electronic charge    =     89.0000000

%%%% ELECTRONS %%%%%%%%%%%%%%%%%%%%%%%%%%%%%%%%%%%%%%%%%%%%%%%%%%%%%%%%%%%%%%%%%

 number of electrons        =             89

 total electronic charge    =     89.0000000

%%%% CHARGES %%%%%%%%%%%%%%%%%%%%%%%%%%%%%%%%%%%%%%%%%%%%%%%%%%%%%%%%%%%%%%%%%%%

 total number of charges    =             99

 total charge               =     -1.0000000

%%%% CHARGES %%%%%%%%%%%%%%%%%%%%%%%%%%%%%%%%%%%%%%%%%%%%%%%%%%%%%%%%%%%%%%%%%%%

 total number of charges    =            100

 total charge               =      0.0000000

%%%% BOUNDARY %%%%%%%%%%%%%%%%%%%%%%%%%%%%%%%%%%%%%%%%%%%%%%%%%%%%%%%%%%%%%%%%%%

 boundary label             = solvent             
 boundary mode              = full                

 boundary is built as a type-2 function of a smooth density

 using the modified SCCS function:
 rhomax                     =      0.0050000
 rhomin                     =      0.0001000

 volume of the QM region    =   1475.9435386

 surface of the QM region   =    278.9750132

%%%% DENSITY %%%%%%%%%%%%%%%%%%%%%%%%%%%%%%%%%%%%%%%%%%%%%%%%%%%%%%%%%%%%%%%%%%%

 density label              = vreference                                        

 integral of density        =   0.2003404815E-11

%%%% COMPUTE ELECTROSTATIC POTENTIAL %%%%%%%%%%%%%%%%%%%%%%%%%%%%%%%%%%%%%%%%%%%

 Warning: Bad guess with residual norm =   0.370622E+04, reset to no guess

   i |      alpha     |       pAp      |      rzold     |    delta_qm    |    delta_en    |       tol
 ---------------------------------------------------------------------------------------------------------
   1 |   0.999334E+00 |   0.127120E+04 |   0.127036E+04 |   0.689922E-01 |   0.370132E+04 |   0.100000E-04
   2 |   0.479533E-01 |   0.269670E+03 |   0.129316E+02 |   0.626060E-01 |   0.304781E+04 |   0.100000E-04
   3 |   0.105997E+00 |   0.210731E+02 |   0.223368E+01 |   0.429828E-01 |   0.143663E+04 |   0.100000E-04
   4 |   0.101964E+01 |   0.790224E-01 |   0.805744E-01 |   0.177282E-01 |   0.244390E+03 |   0.100000E-04
   5 |   0.191581E+00 |   0.167896E+01 |   0.321657E+00 |   0.177156E-01 |   0.244043E+03 |   0.100000E-04
   6 |   0.370457E+00 |   0.585308E+00 |   0.216831E+00 |   0.124430E-01 |   0.120394E+03 |   0.100000E-04
   7 |   0.460847E+00 |   0.118188E+00 |   0.544665E-01 |   0.101490E-01 |   0.800949E+02 |   0.100000E-04
   8 |   0.554329E+00 |   0.327803E-01 |   0.181711E-01 |   0.924137E-02 |   0.664093E+02 |   0.100000E-04
   9 |   0.877190E+00 |   0.793262E-02 |   0.695841E-02 |   0.677685E-02 |   0.357119E+02 |   0.100000E-04
  10 |   0.597996E+00 |   0.132665E-01 |   0.793333E-02 |   0.382939E-02 |   0.114029E+02 |   0.100000E-04
  11 |   0.338879E+00 |   0.114120E-01 |   0.386728E-02 |   0.301339E-02 |   0.706102E+01 |   0.100000E-04
  12 |   0.345977E+00 |   0.304478E-02 |   0.105342E-02 |   0.254793E-02 |   0.504813E+01 |   0.100000E-04
  13 |   0.767963E+00 |   0.452006E-03 |   0.347124E-03 |   0.180551E-02 |   0.253486E+01 |   0.100000E-04
  14 |   0.615504E+00 |   0.666274E-03 |   0.410094E-03 |   0.219415E-02 |   0.374359E+01 |   0.100000E-04
  15 |   0.475301E+00 |   0.118819E-02 |   0.564747E-03 |   0.260431E-02 |   0.527402E+01 |   0.100000E-04
  16 |   0.631483E-01 |   0.287347E-01 |   0.181455E-02 |   0.288077E-02 |   0.645317E+01 |   0.100000E-04
  17 |   0.570819E+00 |   0.843915E-03 |   0.481723E-03 |   0.209343E-02 |   0.340780E+01 |   0.100000E-04
  18 |   0.610944E+00 |   0.573059E-03 |   0.350107E-03 |   0.954131E-03 |   0.707900E+00 |   0.100000E-04
  19 |   0.632910E+00 |   0.164488E-03 |   0.104106E-03 |   0.699265E-03 |   0.380224E+00 |   0.100000E-04
  20 |   0.550201E+00 |   0.796393E-04 |   0.438176E-04 |   0.464005E-03 |   0.167418E+00 |   0.100000E-04
  21 |   0.661610E+00 |   0.170803E-04 |   0.113005E-04 |   0.198602E-03 |   0.306707E-01 |   0.100000E-04
  22 |   0.591670E+00 |   0.427996E-05 |   0.253232E-05 |   0.800213E-04 |   0.497929E-02 |   0.100000E-04
  23 |   0.286416E+00 |   0.284670E-05 |   0.815341E-06 |   0.611580E-04 |   0.290846E-02 |   0.100000E-04
  24 |   0.163222E+00 |   0.604031E-05 |   0.985910E-06 |   0.393503E-04 |   0.120407E-02 |   0.100000E-04
  25 |   0.558776E+00 |   0.186294E-06 |   0.104096E-06 |   0.203628E-04 |   0.322425E-03 |   0.100000E-04
  26 |   0.509815E+00 |   0.538862E-07 |   0.274720E-07 |   0.107296E-04 |   0.895211E-04 |   0.100000E-04
  27 |   0.468685E+00 |   0.245577E-07 |   0.115098E-07 |   0.561155E-05 |   0.244862E-04 |   0.100000E-04
  28 |   0.626962E-01 |   0.108700E-06 |   0.681509E-08 |   0.569182E-05 |   0.251918E-04 |   0.100000E-04
  29 |   0.360082E+00 |   0.102506E-07 |   0.369105E-08 |   0.300055E-05 |   0.700097E-05 |   0.100000E-04

 Charges are converged, EXIT

%%%% DENSITY %%%%%%%%%%%%%%%%%%%%%%%%%%%%%%%%%%%%%%%%%%%%%%%%%%%%%%%%%%%%%%%%%%%

 density label              = velectrostatic                                    

 integral of density        =   0.6613623736E-11

%%%% CHARGES %%%%%%%%%%%%%%%%%%%%%%%%%%%%%%%%%%%%%%%%%%%%%%%%%%%%%%%%%%%%%%%%%%%

 total number of charges    =            100

 total charge               =      0.0000000

%%%% DENSITY %%%%%%%%%%%%%%%%%%%%%%%%%%%%%%%%%%%%%%%%%%%%%%%%%%%%%%%%%%%%%%%%%%%

 density label              = vsoftcavity                                       

 integral of density        =    67.54356020    

%%%% DENSITY %%%%%%%%%%%%%%%%%%%%%%%%%%%%%%%%%%%%%%%%%%%%%%%%%%%%%%%%%%%%%%%%%%%

 density label              = dvtot                                             

 integral of density        =    67.54356020    

%%%% ELECTRONS %%%%%%%%%%%%%%%%%%%%%%%%%%%%%%%%%%%%%%%%%%%%%%%%%%%%%%%%%%%%%%%%%

 number of electrons        =             89

 total electronic charge    =     89.0000000

%%%% ELECTRONS %%%%%%%%%%%%%%%%%%%%%%%%%%%%%%%%%%%%%%%%%%%%%%%%%%%%%%%%%%%%%%%%%

 number of electrons        =             89

 total electronic charge    =     89.0000000

%%%% CHARGES %%%%%%%%%%%%%%%%%%%%%%%%%%%%%%%%%%%%%%%%%%%%%%%%%%%%%%%%%%%%%%%%%%%

 total number of charges    =             99

 total charge               =     -1.0000000

%%%% CHARGES %%%%%%%%%%%%%%%%%%%%%%%%%%%%%%%%%%%%%%%%%%%%%%%%%%%%%%%%%%%%%%%%%%%

 total number of charges    =            100

 total charge               =      0.0000000

%%%% BOUNDARY %%%%%%%%%%%%%%%%%%%%%%%%%%%%%%%%%%%%%%%%%%%%%%%%%%%%%%%%%%%%%%%%%%

 boundary label             = solvent             
 boundary mode              = full                

 boundary is built as a type-2 function of a smooth density

 using the modified SCCS function:
 rhomax                     =      0.0050000
 rhomin                     =      0.0001000

 volume of the QM region    =   1465.7694757

 surface of the QM region   =    269.8992654

%%%% DENSITY %%%%%%%%%%%%%%%%%%%%%%%%%%%%%%%%%%%%%%%%%%%%%%%%%%%%%%%%%%%%%%%%%%%

 density label              = vreference                                        

 integral of density        =  -0.5868108809E-11

%%%% COMPUTE ELECTROSTATIC POTENTIAL %%%%%%%%%%%%%%%%%%%%%%%%%%%%%%%%%%%%%%%%%%%

 Warning: Bad guess with residual norm =   0.301842E+04, reset to no guess

   i |      alpha     |       pAp      |      rzold     |    delta_qm    |    delta_en    |       tol
 ---------------------------------------------------------------------------------------------------------
   1 |   0.999214E+00 |   0.127034E+04 |   0.126934E+04 |   0.622549E-01 |   0.301372E+04 |   0.100000E-04
   2 |   0.464497E-01 |   0.349148E+03 |   0.162178E+02 |   0.472971E-01 |   0.173950E+04 |   0.100000E-04
   3 |   0.108273E+00 |   0.209853E+02 |   0.227213E+01 |   0.347942E-01 |   0.941392E+03 |   0.100000E-04
   4 |   0.274602E+00 |   0.372681E+00 |   0.102339E+00 |   0.237323E-01 |   0.437961E+03 |   0.100000E-04
   5 |   0.519698E+00 |   0.373856E+00 |   0.194293E+00 |   0.153433E-01 |   0.183060E+03 |   0.100000E-04
   6 |   0.479062E+00 |   0.350958E+00 |   0.168131E+00 |   0.790442E-02 |   0.485844E+02 |   0.100000E-04
   7 |   0.432732E+00 |   0.101443E+00 |   0.438974E-01 |   0.778453E-02 |   0.471217E+02 |   0.100000E-04
   8 |   0.613341E+00 |   0.224021E-01 |   0.137401E-01 |   0.700173E-02 |   0.381213E+02 |   0.100000E-04
   9 |   0.868601E+00 |   0.732170E-02 |   0.635963E-02 |   0.527919E-02 |   0.216716E+02 |   0.100000E-04
  10 |   0.688407E+00 |   0.999416E-02 |   0.688005E-02 |   0.293340E-02 |   0.669114E+01 |   0.100000E-04
  11 |   0.446300E+00 |   0.824883E-02 |   0.368146E-02 |   0.280496E-02 |   0.611801E+01 |   0.100000E-04
  12 |   0.422598E+00 |   0.279824E-02 |   0.118253E-02 |   0.265680E-02 |   0.548875E+01 |   0.100000E-04
  13 |   0.833962E+00 |   0.106026E-02 |   0.884218E-03 |   0.219888E-02 |   0.375976E+01 |   0.100000E-04
  14 |   0.945700E+00 |   0.129919E-02 |   0.122864E-02 |   0.254956E-02 |   0.505462E+01 |   0.100000E-04
  15 |   0.899787E-01 |   0.223990E-01 |   0.201543E-02 |   0.244927E-02 |   0.466477E+01 |   0.100000E-04
  16 |   0.216639E+00 |   0.979648E-02 |   0.212230E-02 |   0.217424E-02 |   0.367595E+01 |   0.100000E-04
  17 |   0.475276E+00 |   0.777348E-03 |   0.369455E-03 |   0.131722E-02 |   0.134919E+01 |   0.100000E-04
  18 |   0.350996E+00 |   0.781984E-03 |   0.274473E-03 |   0.666196E-03 |   0.345112E+00 |   0.100000E-04
  19 |   0.555961E+00 |   0.129346E-03 |   0.719112E-04 |   0.433278E-03 |   0.145979E+00 |   0.100000E-04
  20 |   0.558999E+00 |   0.433485E-04 |   0.242318E-04 |   0.305190E-03 |   0.724266E-01 |   0.100000E-04
  21 |   0.627636E+00 |   0.101692E-04 |   0.638256E-05 |   0.118182E-03 |   0.108608E-01 |   0.100000E-04
  22 |   0.434198E+00 |   0.286362E-05 |   0.124338E-05 |   0.548835E-04 |   0.234229E-02 |   0.100000E-04
  23 |   0.221673E+00 |   0.219441E-05 |   0.486443E-06 |   0.396173E-04 |   0.122047E-02 |   0.100000E-04
  24 |   0.217857E+00 |   0.219739E-05 |   0.478715E-06 |   0.249685E-04 |   0.484777E-03 |   0.100000E-04
  25 |   0.627248E+00 |   0.158923E-06 |   0.996841E-07 |   0.204688E-04 |   0.325792E-03 |   0.100000E-04
  26 |   0.636130E+00 |   0.646052E-07 |   0.410973E-07 |   0.136305E-04 |   0.144471E-03 |   0.100000E-04
  27 |   0.599193E+00 |   0.313227E-07 |   0.187684E-07 |   0.712172E-05 |   0.394390E-04 |   0.100000E-04
  28 |   0.505636E-01 |   0.100049E-05 |   0.505882E-07 |   0.581445E-05 |   0.262890E-04 |   0.100000E-04
  29 |   0.541354E+00 |   0.888161E-08 |   0.480810E-08 |   0.356618E-05 |   0.988925E-05 |   0.100000E-04

 Charges are converged, EXIT

%%%% DENSITY %%%%%%%%%%%%%%%%%%%%%%%%%%%%%%%%%%%%%%%%%%%%%%%%%%%%%%%%%%%%%%%%%%%

 density label              = velectrostatic                                    

 integral of density        =   0.1670767383E-11

%%%% CHARGES %%%%%%%%%%%%%%%%%%%%%%%%%%%%%%%%%%%%%%%%%%%%%%%%%%%%%%%%%%%%%%%%%%%

 total number of charges    =            100

 total charge               =      0.0000000

%%%% DENSITY %%%%%%%%%%%%%%%%%%%%%%%%%%%%%%%%%%%%%%%%%%%%%%%%%%%%%%%%%%%%%%%%%%%

 density label              = vsoftcavity                                       

 integral of density        =    57.35461208    

%%%% DENSITY %%%%%%%%%%%%%%%%%%%%%%%%%%%%%%%%%%%%%%%%%%%%%%%%%%%%%%%%%%%%%%%%%%%

 density label              = dvtot                                             

 integral of density        =    57.35461208    

%%%% ELECTRONS %%%%%%%%%%%%%%%%%%%%%%%%%%%%%%%%%%%%%%%%%%%%%%%%%%%%%%%%%%%%%%%%%

 number of electrons        =             89

 total electronic charge    =     89.0000000

%%%% ELECTRONS %%%%%%%%%%%%%%%%%%%%%%%%%%%%%%%%%%%%%%%%%%%%%%%%%%%%%%%%%%%%%%%%%

 number of electrons        =             89

 total electronic charge    =     89.0000000

%%%% CHARGES %%%%%%%%%%%%%%%%%%%%%%%%%%%%%%%%%%%%%%%%%%%%%%%%%%%%%%%%%%%%%%%%%%%

 total number of charges    =             99

 total charge               =     -1.0000000

%%%% CHARGES %%%%%%%%%%%%%%%%%%%%%%%%%%%%%%%%%%%%%%%%%%%%%%%%%%%%%%%%%%%%%%%%%%%

 total number of charges    =            100

 total charge               =      0.0000000

%%%% BOUNDARY %%%%%%%%%%%%%%%%%%%%%%%%%%%%%%%%%%%%%%%%%%%%%%%%%%%%%%%%%%%%%%%%%%

 boundary label             = solvent             
 boundary mode              = full                

 boundary is built as a type-2 function of a smooth density

 using the modified SCCS function:
 rhomax                     =      0.0050000
 rhomin                     =      0.0001000

 volume of the QM region    =   1467.8984980

 surface of the QM region   =    270.3297443

%%%% DENSITY %%%%%%%%%%%%%%%%%%%%%%%%%%%%%%%%%%%%%%%%%%%%%%%%%%%%%%%%%%%%%%%%%%%

 density label              = vreference                                        

 integral of density        =   0.2868660788E-11

%%%% COMPUTE ELECTROSTATIC POTENTIAL %%%%%%%%%%%%%%%%%%%%%%%%%%%%%%%%%%%%%%%%%%%

 Warning: Bad guess with residual norm =   0.343226E+04, reset to no guess

   i |      alpha     |       pAp      |      rzold     |    delta_qm    |    delta_en    |       tol
 ---------------------------------------------------------------------------------------------------------
   1 |   0.999053E+00 |   0.127104E+04 |   0.126983E+04 |   0.663750E-01 |   0.342583E+04 |   0.100000E-04
   2 |   0.443977E-01 |   0.479163E+03 |   0.212737E+02 |   0.483368E-01 |   0.181682E+04 |   0.100000E-04
   3 |   0.114674E+00 |   0.192777E+02 |   0.221065E+01 |   0.360459E-01 |   0.101034E+04 |   0.100000E-04
   4 |   0.260034E+00 |   0.404945E+00 |   0.105299E+00 |   0.247015E-01 |   0.474465E+03 |   0.100000E-04
   5 |   0.575222E+00 |   0.325719E+00 |   0.187361E+00 |   0.147562E-01 |   0.169320E+03 |   0.100000E-04
   6 |   0.472262E+00 |   0.347019E+00 |   0.163884E+00 |   0.879246E-02 |   0.601142E+02 |   0.100000E-04
   7 |   0.440391E+00 |   0.975558E-01 |   0.429627E-01 |   0.853179E-02 |   0.566027E+02 |   0.100000E-04
   8 |   0.634025E+00 |   0.225221E-01 |   0.142796E-01 |   0.757903E-02 |   0.446667E+02 |   0.100000E-04
   9 |   0.933778E+00 |   0.782518E-02 |   0.730698E-02 |   0.575290E-02 |   0.257353E+02 |   0.100000E-04
  10 |   0.699800E+00 |   0.121879E-01 |   0.852907E-02 |   0.346777E-02 |   0.935098E+01 |   0.100000E-04
  11 |   0.467451E+00 |   0.949466E-02 |   0.443829E-02 |   0.364909E-02 |   0.103544E+02 |   0.100000E-04
  12 |   0.491730E+00 |   0.319305E-02 |   0.157012E-02 |   0.339038E-02 |   0.893827E+01 |   0.100000E-04
  13 |   0.784640E+00 |   0.207233E-02 |   0.162603E-02 |   0.283234E-02 |   0.623803E+01 |   0.100000E-04
  14 |   0.792012E+00 |   0.273957E-02 |   0.216977E-02 |   0.304859E-02 |   0.722696E+01 |   0.100000E-04
  15 |   0.188426E+00 |   0.108635E-01 |   0.204695E-02 |   0.286381E-02 |   0.637742E+01 |   0.100000E-04
  16 |   0.884000E-01 |   0.478696E-01 |   0.423167E-02 |   0.253676E-02 |   0.500397E+01 |   0.100000E-04
  17 |   0.384501E+00 |   0.154409E-02 |   0.593705E-03 |   0.164906E-02 |   0.211460E+01 |   0.100000E-04
  18 |   0.479423E+00 |   0.612884E-03 |   0.293830E-03 |   0.693763E-03 |   0.374264E+00 |   0.100000E-04
  19 |   0.577473E+00 |   0.135494E-03 |   0.782442E-04 |   0.464563E-03 |   0.167821E+00 |   0.100000E-04
  20 |   0.569926E+00 |   0.472261E-04 |   0.269154E-04 |   0.325246E-03 |   0.822586E-01 |   0.100000E-04
  21 |   0.650062E+00 |   0.109993E-04 |   0.715021E-05 |   0.124350E-03 |   0.120240E-01 |   0.100000E-04
  22 |   0.583824E+00 |   0.227959E-05 |   0.133088E-05 |   0.554050E-04 |   0.238701E-02 |   0.100000E-04
  23 |   0.607674E+00 |   0.745752E-06 |   0.453174E-06 |   0.434055E-04 |   0.146503E-02 |   0.100000E-04
  24 |   0.152600E+00 |   0.259023E-05 |   0.395268E-06 |   0.374291E-04 |   0.108937E-02 |   0.100000E-04
  25 |   0.470894E+00 |   0.503080E-06 |   0.236897E-06 |   0.283021E-04 |   0.622863E-03 |   0.100000E-04
  26 |   0.673830E+00 |   0.930537E-07 |   0.627024E-07 |   0.139283E-04 |   0.150852E-03 |   0.100000E-04
  27 |   0.457290E+00 |   0.649377E-07 |   0.296953E-07 |   0.702435E-05 |   0.383680E-04 |   0.100000E-04
  28 |   0.261331E+00 |   0.264840E-07 |   0.692111E-08 |   0.543334E-05 |   0.229557E-04 |   0.100000E-04
  29 |   0.762677E-01 |   0.248760E-06 |   0.189724E-07 |   0.430124E-05 |   0.143861E-04 |   0.100000E-04
  30 |   0.499044E+00 |   0.324470E-08 |   0.161925E-08 |   0.211146E-05 |   0.346675E-05 |   0.100000E-04

 Charges are converged, EXIT

%%%% DENSITY %%%%%%%%%%%%%%%%%%%%%%%%%%%%%%%%%%%%%%%%%%%%%%%%%%%%%%%%%%%%%%%%%%%

 density label              = velectrostatic                                    

 integral of density        =   0.5391650671E-11

%%%% CHARGES %%%%%%%%%%%%%%%%%%%%%%%%%%%%%%%%%%%%%%%%%%%%%%%%%%%%%%%%%%%%%%%%%%%

 total number of charges    =            100

 total charge               =      0.0000000

%%%% DENSITY %%%%%%%%%%%%%%%%%%%%%%%%%%%%%%%%%%%%%%%%%%%%%%%%%%%%%%%%%%%%%%%%%%%

 density label              = vsoftcavity                                       

 integral of density        =    60.24478002    

%%%% DENSITY %%%%%%%%%%%%%%%%%%%%%%%%%%%%%%%%%%%%%%%%%%%%%%%%%%%%%%%%%%%%%%%%%%%

 density label              = dvtot                                             

 integral of density        =    60.24478002    

%%%% ELECTRONS %%%%%%%%%%%%%%%%%%%%%%%%%%%%%%%%%%%%%%%%%%%%%%%%%%%%%%%%%%%%%%%%%

 number of electrons        =             89

 total electronic charge    =     89.0000000

%%%% ELECTRONS %%%%%%%%%%%%%%%%%%%%%%%%%%%%%%%%%%%%%%%%%%%%%%%%%%%%%%%%%%%%%%%%%

 number of electrons        =             89

 total electronic charge    =     89.0000000

%%%% CHARGES %%%%%%%%%%%%%%%%%%%%%%%%%%%%%%%%%%%%%%%%%%%%%%%%%%%%%%%%%%%%%%%%%%%

 total number of charges    =             99

 total charge               =     -1.0000000

%%%% CHARGES %%%%%%%%%%%%%%%%%%%%%%%%%%%%%%%%%%%%%%%%%%%%%%%%%%%%%%%%%%%%%%%%%%%

 total number of charges    =            100

 total charge               =      0.0000000

%%%% BOUNDARY %%%%%%%%%%%%%%%%%%%%%%%%%%%%%%%%%%%%%%%%%%%%%%%%%%%%%%%%%%%%%%%%%%

 boundary label             = solvent             
 boundary mode              = full                

 boundary is built as a type-2 function of a smooth density

 using the modified SCCS function:
 rhomax                     =      0.0050000
 rhomin                     =      0.0001000

 volume of the QM region    =   1469.3401910

 surface of the QM region   =    270.2239095

%%%% DENSITY %%%%%%%%%%%%%%%%%%%%%%%%%%%%%%%%%%%%%%%%%%%%%%%%%%%%%%%%%%%%%%%%%%%

 density label              = vreference                                        

 integral of density        =  -0.9556754353E-12

%%%% COMPUTE ELECTROSTATIC POTENTIAL %%%%%%%%%%%%%%%%%%%%%%%%%%%%%%%%%%%%%%%%%%%

 Warning: Bad guess with residual norm =   0.350556E+04, reset to no guess

   i |      alpha     |       pAp      |      rzold     |    delta_qm    |    delta_en    |       tol
 ---------------------------------------------------------------------------------------------------------
   1 |   0.998972E+00 |   0.127142E+04 |   0.127011E+04 |   0.670747E-01 |   0.349844E+04 |   0.100000E-04
   2 |   0.442361E-01 |   0.529365E+03 |   0.234171E+02 |   0.467952E-01 |   0.170278E+04 |   0.100000E-04
   3 |   0.116584E+00 |   0.191087E+02 |   0.222778E+01 |   0.352427E-01 |   0.965818E+03 |   0.100000E-04
   4 |   0.235190E+00 |   0.479208E+00 |   0.112705E+00 |   0.247259E-01 |   0.475400E+03 |   0.100000E-04
   5 |   0.626042E+00 |   0.274070E+00 |   0.171579E+00 |   0.146980E-01 |   0.167986E+03 |   0.100000E-04
   6 |   0.478741E+00 |   0.338191E+00 |   0.161906E+00 |   0.818392E-02 |   0.520810E+02 |   0.100000E-04
   7 |   0.433292E+00 |   0.955407E-01 |   0.413971E-01 |   0.801810E-02 |   0.499918E+02 |   0.100000E-04
   8 |   0.640137E+00 |   0.206755E-01 |   0.132352E-01 |   0.712084E-02 |   0.394293E+02 |   0.100000E-04
   9 |   0.879820E+00 |   0.790585E-02 |   0.695573E-02 |   0.531271E-02 |   0.219477E+02 |   0.100000E-04
  10 |   0.655582E+00 |   0.117505E-01 |   0.770342E-02 |   0.316925E-02 |   0.781034E+01 |   0.100000E-04
  11 |   0.389436E+00 |   0.123950E-01 |   0.482705E-02 |   0.316224E-02 |   0.777583E+01 |   0.100000E-04
  12 |   0.437176E+00 |   0.417795E-02 |   0.182650E-02 |   0.316881E-02 |   0.780818E+01 |   0.100000E-04
  13 |   0.108448E+01 |   0.977858E-03 |   0.106047E-02 |   0.250211E-02 |   0.486821E+01 |   0.100000E-04
  14 |   0.792616E+00 |   0.218897E-02 |   0.173502E-02 |   0.248638E-02 |   0.480720E+01 |   0.100000E-04
  15 |   0.253590E+00 |   0.740024E-02 |   0.187663E-02 |   0.241634E-02 |   0.454017E+01 |   0.100000E-04
  16 |   0.630774E-01 |   0.493663E-01 |   0.311390E-02 |   0.221101E-02 |   0.380136E+01 |   0.100000E-04
  17 |   0.376952E+00 |   0.147842E-02 |   0.557293E-03 |   0.147067E-02 |   0.168185E+01 |   0.100000E-04
  18 |   0.556545E+00 |   0.391027E-03 |   0.217624E-03 |   0.621877E-03 |   0.300722E+00 |   0.100000E-04
  19 |   0.587472E+00 |   0.111896E-03 |   0.657359E-04 |   0.418246E-03 |   0.136025E+00 |   0.100000E-04
  20 |   0.570776E+00 |   0.380604E-04 |   0.217240E-04 |   0.286743E-03 |   0.639356E-01 |   0.100000E-04
  21 |   0.652534E+00 |   0.851006E-05 |   0.555310E-05 |   0.106580E-03 |   0.883295E-02 |   0.100000E-04
  22 |   0.564818E+00 |   0.192725E-05 |   0.108855E-05 |   0.505012E-04 |   0.198317E-02 |   0.100000E-04
  23 |   0.212558E+00 |   0.258102E-05 |   0.548615E-06 |   0.455848E-04 |   0.161583E-02 |   0.100000E-04
  24 |   0.317923E+00 |   0.189368E-05 |   0.602044E-06 |   0.381442E-04 |   0.113140E-02 |   0.100000E-04
  25 |   0.724711E+00 |   0.214464E-06 |   0.155424E-06 |   0.261077E-04 |   0.530023E-03 |   0.100000E-04
  26 |   0.692110E+00 |   0.720126E-07 |   0.498407E-07 |   0.108714E-04 |   0.919023E-04 |   0.100000E-04
  27 |   0.477224E+00 |   0.374676E-07 |   0.178804E-07 |   0.500576E-05 |   0.194848E-04 |   0.100000E-04
  28 |   0.608856E-01 |   0.150319E-06 |   0.915224E-08 |   0.459681E-05 |   0.164312E-04 |   0.100000E-04
  29 |   0.330538E+00 |   0.128605E-07 |   0.425090E-08 |   0.291507E-05 |   0.660777E-05 |   0.100000E-04

 Charges are converged, EXIT

%%%% DENSITY %%%%%%%%%%%%%%%%%%%%%%%%%%%%%%%%%%%%%%%%%%%%%%%%%%%%%%%%%%%%%%%%%%%

 density label              = velectrostatic                                    

 integral of density        =   0.3019780550E-11

%%%% CHARGES %%%%%%%%%%%%%%%%%%%%%%%%%%%%%%%%%%%%%%%%%%%%%%%%%%%%%%%%%%%%%%%%%%%

 total number of charges    =            100

 total charge               =      0.0000000

%%%% DENSITY %%%%%%%%%%%%%%%%%%%%%%%%%%%%%%%%%%%%%%%%%%%%%%%%%%%%%%%%%%%%%%%%%%%

 density label              = vsoftcavity                                       

 integral of density        =    59.85074459    

%%%% DENSITY %%%%%%%%%%%%%%%%%%%%%%%%%%%%%%%%%%%%%%%%%%%%%%%%%%%%%%%%%%%%%%%%%%%

 density label              = dvtot                                             

 integral of density        =    59.85074459    

%%%% ELECTRONS %%%%%%%%%%%%%%%%%%%%%%%%%%%%%%%%%%%%%%%%%%%%%%%%%%%%%%%%%%%%%%%%%

 number of electrons        =             89

 total electronic charge    =     89.0000000

%%%% ELECTRONS %%%%%%%%%%%%%%%%%%%%%%%%%%%%%%%%%%%%%%%%%%%%%%%%%%%%%%%%%%%%%%%%%

 number of electrons        =             89

 total electronic charge    =     89.0000000

%%%% CHARGES %%%%%%%%%%%%%%%%%%%%%%%%%%%%%%%%%%%%%%%%%%%%%%%%%%%%%%%%%%%%%%%%%%%

 total number of charges    =             99

 total charge               =     -1.0000000

%%%% CHARGES %%%%%%%%%%%%%%%%%%%%%%%%%%%%%%%%%%%%%%%%%%%%%%%%%%%%%%%%%%%%%%%%%%%

 total number of charges    =            100

 total charge               =     -0.0000000

%%%% BOUNDARY %%%%%%%%%%%%%%%%%%%%%%%%%%%%%%%%%%%%%%%%%%%%%%%%%%%%%%%%%%%%%%%%%%

 boundary label             = solvent             
 boundary mode              = full                

 boundary is built as a type-2 function of a smooth density

 using the modified SCCS function:
 rhomax                     =      0.0050000
 rhomin                     =      0.0001000

 volume of the QM region    =   1469.8014786

 surface of the QM region   =    270.5271335

%%%% DENSITY %%%%%%%%%%%%%%%%%%%%%%%%%%%%%%%%%%%%%%%%%%%%%%%%%%%%%%%%%%%%%%%%%%%

 density label              = vreference                                        

 integral of density        =  -0.1222521077E-11

%%%% COMPUTE ELECTROSTATIC POTENTIAL %%%%%%%%%%%%%%%%%%%%%%%%%%%%%%%%%%%%%%%%%%%

 Warning: Bad guess with residual norm =   0.349512E+04, reset to no guess

   i |      alpha     |       pAp      |      rzold     |    delta_qm    |    delta_en    |       tol
 ---------------------------------------------------------------------------------------------------------
   1 |   0.998945E+00 |   0.127137E+04 |   0.127003E+04 |   0.669729E-01 |   0.348783E+04 |   0.100000E-04
   2 |   0.441230E-01 |   0.550783E+03 |   0.243022E+02 |   0.457106E-01 |   0.162476E+04 |   0.100000E-04
   3 |   0.117388E+00 |   0.186346E+02 |   0.218747E+01 |   0.349204E-01 |   0.948230E+03 |   0.100000E-04
   4 |   0.216045E+00 |   0.551467E+00 |   0.119142E+00 |   0.248330E-01 |   0.479530E+03 |   0.100000E-04
   5 |   0.675167E+00 |   0.234322E+00 |   0.158206E+00 |   0.145655E-01 |   0.164970E+03 |   0.100000E-04
   6 |   0.482748E+00 |   0.331704E+00 |   0.160129E+00 |   0.812065E-02 |   0.512787E+02 |   0.100000E-04
   7 |   0.433279E+00 |   0.943843E-01 |   0.408947E-01 |   0.799116E-02 |   0.496565E+02 |   0.100000E-04
   8 |   0.648855E+00 |   0.200398E-01 |   0.130029E-01 |   0.705799E-02 |   0.387364E+02 |   0.100000E-04
   9 |   0.865888E+00 |   0.827083E-02 |   0.716161E-02 |   0.533866E-02 |   0.221626E+02 |   0.100000E-04
  10 |   0.630603E+00 |   0.130954E-01 |   0.825798E-02 |   0.330258E-02 |   0.848133E+01 |   0.100000E-04
  11 |   0.390256E+00 |   0.143177E-01 |   0.558758E-02 |   0.325098E-02 |   0.821837E+01 |   0.100000E-04
  12 |   0.465018E+00 |   0.440032E-02 |   0.204623E-02 |   0.327573E-02 |   0.834396E+01 |   0.100000E-04
  13 |   0.114767E+01 |   0.100131E-02 |   0.114918E-02 |   0.254402E-02 |   0.503264E+01 |   0.100000E-04
  14 |   0.793298E+00 |   0.234170E-02 |   0.185767E-02 |   0.257451E-02 |   0.515400E+01 |   0.100000E-04
  15 |   0.589229E-01 |   0.748878E-01 |   0.441261E-02 |   0.245126E-02 |   0.467235E+01 |   0.100000E-04
  16 |   0.319104E+00 |   0.457216E-02 |   0.145899E-02 |   0.200831E-02 |   0.313629E+01 |   0.100000E-04
  17 |   0.383325E+00 |   0.107678E-02 |   0.412757E-03 |   0.131836E-02 |   0.135153E+01 |   0.100000E-04
  18 |   0.453900E+00 |   0.502201E-03 |   0.227949E-03 |   0.599834E-03 |   0.279781E+00 |   0.100000E-04
  19 |   0.576747E+00 |   0.113288E-03 |   0.653385E-04 |   0.408003E-03 |   0.129444E+00 |   0.100000E-04
  20 |   0.570148E+00 |   0.371849E-04 |   0.212009E-04 |   0.280104E-03 |   0.610092E-01 |   0.100000E-04
  21 |   0.659682E+00 |   0.817291E-05 |   0.539153E-05 |   0.106195E-03 |   0.876936E-02 |   0.100000E-04
  22 |   0.585526E+00 |   0.194178E-05 |   0.113696E-05 |   0.532122E-04 |   0.220180E-02 |   0.100000E-04
  23 |   0.234556E+00 |   0.254810E-05 |   0.597673E-06 |   0.505396E-04 |   0.198618E-02 |   0.100000E-04
  24 |   0.295914E+00 |   0.252157E-05 |   0.746168E-06 |   0.421760E-04 |   0.138321E-02 |   0.100000E-04
  25 |   0.700930E+00 |   0.261355E-06 |   0.183191E-06 |   0.267644E-04 |   0.557023E-03 |   0.100000E-04
  26 |   0.642964E+00 |   0.815006E-07 |   0.524019E-07 |   0.110050E-04 |   0.941747E-04 |   0.100000E-04
  27 |   0.235096E+00 |   0.876728E-07 |   0.206115E-07 |   0.762151E-05 |   0.451688E-04 |   0.100000E-04
  28 |   0.813314E-01 |   0.645226E-06 |   0.524771E-07 |   0.481456E-05 |   0.180248E-04 |   0.100000E-04
  29 |   0.461282E+00 |   0.740794E-08 |   0.341715E-08 |   0.294991E-05 |   0.676664E-05 |   0.100000E-04

 Charges are converged, EXIT

%%%% DENSITY %%%%%%%%%%%%%%%%%%%%%%%%%%%%%%%%%%%%%%%%%%%%%%%%%%%%%%%%%%%%%%%%%%%

 density label              = velectrostatic                                    

 integral of density        =  -0.2308077557E-11

%%%% CHARGES %%%%%%%%%%%%%%%%%%%%%%%%%%%%%%%%%%%%%%%%%%%%%%%%%%%%%%%%%%%%%%%%%%%

 total number of charges    =            100

 total charge               =     -0.0000000

%%%% DENSITY %%%%%%%%%%%%%%%%%%%%%%%%%%%%%%%%%%%%%%%%%%%%%%%%%%%%%%%%%%%%%%%%%%%

 density label              = vsoftcavity                                       

 integral of density        =    59.84696397    

%%%% DENSITY %%%%%%%%%%%%%%%%%%%%%%%%%%%%%%%%%%%%%%%%%%%%%%%%%%%%%%%%%%%%%%%%%%%

 density label              = dvtot                                             

 integral of density        =    59.84696397    

%%%% ELECTRONS %%%%%%%%%%%%%%%%%%%%%%%%%%%%%%%%%%%%%%%%%%%%%%%%%%%%%%%%%%%%%%%%%

 number of electrons        =             89

 total electronic charge    =     89.0000000

%%%% ELECTRONS %%%%%%%%%%%%%%%%%%%%%%%%%%%%%%%%%%%%%%%%%%%%%%%%%%%%%%%%%%%%%%%%%

 number of electrons        =             89

 total electronic charge    =     89.0000000

%%%% CHARGES %%%%%%%%%%%%%%%%%%%%%%%%%%%%%%%%%%%%%%%%%%%%%%%%%%%%%%%%%%%%%%%%%%%

 total number of charges    =             99

 total charge               =     -1.0000000

%%%% CHARGES %%%%%%%%%%%%%%%%%%%%%%%%%%%%%%%%%%%%%%%%%%%%%%%%%%%%%%%%%%%%%%%%%%%

 total number of charges    =            100

 total charge               =     -0.0000000

%%%% BOUNDARY %%%%%%%%%%%%%%%%%%%%%%%%%%%%%%%%%%%%%%%%%%%%%%%%%%%%%%%%%%%%%%%%%%

 boundary label             = solvent             
 boundary mode              = full                

 boundary is built as a type-2 function of a smooth density

 using the modified SCCS function:
 rhomax                     =      0.0050000
 rhomin                     =      0.0001000

 volume of the QM region    =   1470.0426811

 surface of the QM region   =    271.4330248

%%%% DENSITY %%%%%%%%%%%%%%%%%%%%%%%%%%%%%%%%%%%%%%%%%%%%%%%%%%%%%%%%%%%%%%%%%%%

 density label              = vreference                                        

 integral of density        =   0.3171767102E-12

%%%% COMPUTE ELECTROSTATIC POTENTIAL %%%%%%%%%%%%%%%%%%%%%%%%%%%%%%%%%%%%%%%%%%%

 Warning: Bad guess with residual norm =   0.354971E+04, reset to no guess

   i |      alpha     |       pAp      |      rzold     |    delta_qm    |    delta_en    |       tol
 ---------------------------------------------------------------------------------------------------------
   1 |   0.998930E+00 |   0.127127E+04 |   0.126991E+04 |   0.674929E-01 |   0.354220E+04 |   0.100000E-04
   2 |   0.441288E-01 |   0.558386E+03 |   0.246409E+02 |   0.459602E-01 |   0.164256E+04 |   0.100000E-04
   3 |   0.117011E+00 |   0.188434E+02 |   0.220490E+01 |   0.353903E-01 |   0.973921E+03 |   0.100000E-04
   4 |   0.203444E+00 |   0.614806E+00 |   0.125079E+00 |   0.254242E-01 |   0.502631E+03 |   0.100000E-04
   5 |   0.703627E+00 |   0.212608E+00 |   0.149596E+00 |   0.149207E-01 |   0.173114E+03 |   0.100000E-04
[...]

 density label              = velectrostatic                                    

 integral of density        =  -0.1023234830E-10

%%%% CHARGES %%%%%%%%%%%%%%%%%%%%%%%%%%%%%%%%%%%%%%%%%%%%%%%%%%%%%%%%%%%%%%%%%%%

 total number of charges    =            100

 total charge               =      0.0000000

%%%% DENSITY %%%%%%%%%%%%%%%%%%%%%%%%%%%%%%%%%%%%%%%%%%%%%%%%%%%%%%%%%%%%%%%%%%%

 density label              = vsoftcavity                                       

 integral of density        =    60.54556832    

%%%% DENSITY %%%%%%%%%%%%%%%%%%%%%%%%%%%%%%%%%%%%%%%%%%%%%%%%%%%%%%%%%%%%%%%%%%%

 density label              = dvtot                                             

 integral of density        =    60.54556832    

%%%% ELECTRONS %%%%%%%%%%%%%%%%%%%%%%%%%%%%%%%%%%%%%%%%%%%%%%%%%%%%%%%%%%%%%%%%%

 number of electrons        =             89

 total electronic charge    =     89.0000000

%%%% ELECTRONS %%%%%%%%%%%%%%%%%%%%%%%%%%%%%%%%%%%%%%%%%%%%%%%%%%%%%%%%%%%%%%%%%

 number of electrons        =             89

 total electronic charge    =     89.0000000

%%%% CHARGES %%%%%%%%%%%%%%%%%%%%%%%%%%%%%%%%%%%%%%%%%%%%%%%%%%%%%%%%%%%%%%%%%%%

 total number of charges    =             99

 total charge               =     -1.0000000

%%%% CHARGES %%%%%%%%%%%%%%%%%%%%%%%%%%%%%%%%%%%%%%%%%%%%%%%%%%%%%%%%%%%%%%%%%%%

 total number of charges    =            100

 total charge               =     -0.0000000

%%%% BOUNDARY %%%%%%%%%%%%%%%%%%%%%%%%%%%%%%%%%%%%%%%%%%%%%%%%%%%%%%%%%%%%%%%%%%

 boundary label             = solvent             
 boundary mode              = full                

 boundary is built as a type-2 function of a smooth density

 using the modified SCCS function:
 rhomax                     =      0.0050000
 rhomin                     =      0.0001000

 volume of the QM region    =   1470.9322928

 surface of the QM region   =    271.4287952

%%%% DENSITY %%%%%%%%%%%%%%%%%%%%%%%%%%%%%%%%%%%%%%%%%%%%%%%%%%%%%%%%%%%%%%%%%%%

 density label              = vreference                                        

 integral of density        =  -0.6618750447E-11

%%%% COMPUTE ELECTROSTATIC POTENTIAL %%%%%%%%%%%%%%%%%%%%%%%%%%%%%%%%%%%%%%%%%%%

 Warning: Bad guess with residual norm =   0.359156E+04, reset to no guess

   i |      alpha     |       pAp      |      rzold     |    delta_qm    |    delta_en    |       tol
 ---------------------------------------------------------------------------------------------------------
   1 |   0.998883E+00 |   0.127128E+04 |   0.126986E+04 |   0.678865E-01 |   0.358363E+04 |   0.100000E-04
   2 |   0.440454E-01 |   0.587747E+03 |   0.258876E+02 |   0.454245E-01 |   0.160449E+04 |   0.100000E-04
   3 |   0.117262E+00 |   0.189741E+02 |   0.222495E+01 |   0.352838E-01 |   0.968071E+03 |   0.100000E-04
   4 |   0.194713E+00 |   0.678257E+00 |   0.132066E+00 |   0.254468E-01 |   0.503526E+03 |   0.100000E-04
   5 |   0.718774E+00 |   0.199576E+00 |   0.143450E+00 |   0.151076E-01 |   0.177479E+03 |   0.100000E-04
   6 |   0.499646E+00 |   0.321099E+00 |   0.160436E+00 |   0.803697E-02 |   0.502275E+02 |   0.100000E-04
   7 |   0.424694E+00 |   0.100019E+00 |   0.424774E-01 |   0.795677E-02 |   0.492300E+02 |   0.100000E-04
   8 |   0.648871E+00 |   0.200071E-01 |   0.129820E-01 |   0.699512E-02 |   0.380493E+02 |   0.100000E-04
   9 |   0.825544E+00 |   0.896248E-02 |   0.739892E-02 |   0.538526E-02 |   0.225512E+02 |   0.100000E-04
  10 |   0.582049E+00 |   0.152262E-01 |   0.886240E-02 |   0.347001E-02 |   0.936304E+01 |   0.100000E-04
  11 |   0.410853E+00 |   0.160333E-01 |   0.658733E-02 |   0.326000E-02 |   0.826400E+01 |   0.100000E-04
  12 |   0.509107E+00 |   0.435468E-02 |   0.221700E-02 |   0.337181E-02 |   0.884061E+01 |   0.100000E-04
  13 |   0.111475E+01 |   0.107418E-02 |   0.119744E-02 |   0.267605E-02 |   0.556859E+01 |   0.100000E-04
  14 |   0.729367E+00 |   0.267974E-02 |   0.195451E-02 |   0.226850E-02 |   0.400158E+01 |   0.100000E-04
  15 |   0.596009E-01 |   0.989728E-01 |   0.589887E-02 |   0.243827E-02 |   0.462297E+01 |   0.100000E-04
  16 |   0.296255E+00 |   0.557673E-02 |   0.165213E-02 |   0.205108E-02 |   0.327131E+01 |   0.100000E-04
  17 |   0.375039E+00 |   0.137120E-02 |   0.514255E-03 |   0.141099E-02 |   0.154813E+01 |   0.100000E-04
  18 |   0.552944E+00 |   0.386286E-03 |   0.213594E-03 |   0.623748E-03 |   0.302535E+00 |   0.100000E-04
  19 |   0.607608E+00 |   0.113525E-03 |   0.689785E-04 |   0.410225E-03 |   0.130858E+00 |   0.100000E-04
  20 |   0.580919E+00 |   0.366396E-04 |   0.212846E-04 |   0.281341E-03 |   0.615490E-01 |   0.100000E-04
  21 |   0.665386E+00 |   0.819318E-05 |   0.545163E-05 |   0.106554E-03 |   0.882871E-02 |   0.100000E-04
  22 |   0.638169E+00 |   0.188258E-05 |   0.120140E-05 |   0.588274E-04 |   0.269101E-02 |   0.100000E-04
  23 |   0.480088E+00 |   0.113402E-05 |   0.544428E-06 |   0.551973E-04 |   0.236915E-02 |   0.100000E-04
  24 |   0.154684E+00 |   0.603562E-05 |   0.933616E-06 |   0.450582E-04 |   0.157871E-02 |   0.100000E-04
  25 |   0.546083E+00 |   0.461820E-06 |   0.252192E-06 |   0.293444E-04 |   0.669587E-03 |   0.100000E-04
  26 |   0.502570E+00 |   0.145219E-06 |   0.729829E-07 |   0.148393E-04 |   0.171231E-03 |   0.100000E-04
  27 |   0.114904E+00 |   0.307415E-06 |   0.353233E-07 |   0.122049E-04 |   0.115830E-03 |   0.100000E-04
  28 |   0.185577E+00 |   0.285582E-06 |   0.529974E-07 |   0.535121E-05 |   0.222670E-04 |   0.100000E-04
  29 |   0.501415E+00 |   0.902355E-08 |   0.452454E-08 |   0.347818E-05 |   0.940718E-05 |   0.100000E-04

 Charges are converged, EXIT

%%%% DENSITY %%%%%%%%%%%%%%%%%%%%%%%%%%%%%%%%%%%%%%%%%%%%%%%%%%%%%%%%%%%%%%%%%%%

 density label              = velectrostatic                                    

 integral of density        =  -0.1445499555E-11

%%%% CHARGES %%%%%%%%%%%%%%%%%%%%%%%%%%%%%%%%%%%%%%%%%%%%%%%%%%%%%%%%%%%%%%%%%%%

 total number of charges    =            100

 total charge               =     -0.0000000

%%%% DENSITY %%%%%%%%%%%%%%%%%%%%%%%%%%%%%%%%%%%%%%%%%%%%%%%%%%%%%%%%%%%%%%%%%%%

 density label              = vsoftcavity                                       

 integral of density        =    60.57668378    

%%%% DENSITY %%%%%%%%%%%%%%%%%%%%%%%%%%%%%%%%%%%%%%%%%%%%%%%%%%%%%%%%%%%%%%%%%%%

 density label              = dvtot                                             

 integral of density        =    60.57668378    

%%%% ELECTRONS %%%%%%%%%%%%%%%%%%%%%%%%%%%%%%%%%%%%%%%%%%%%%%%%%%%%%%%%%%%%%%%%%

 number of electrons        =             89

 total electronic charge    =     89.0000000

%%%% ELECTRONS %%%%%%%%%%%%%%%%%%%%%%%%%%%%%%%%%%%%%%%%%%%%%%%%%%%%%%%%%%%%%%%%%

 number of electrons        =             89

 total electronic charge    =     89.0000000

%%%% CHARGES %%%%%%%%%%%%%%%%%%%%%%%%%%%%%%%%%%%%%%%%%%%%%%%%%%%%%%%%%%%%%%%%%%%

 total number of charges    =             99

 total charge               =     -1.0000000

%%%% CHARGES %%%%%%%%%%%%%%%%%%%%%%%%%%%%%%%%%%%%%%%%%%%%%%%%%%%%%%%%%%%%%%%%%%%

 total number of charges    =            100

 total charge               =     -0.0000000

%%%% BOUNDARY %%%%%%%%%%%%%%%%%%%%%%%%%%%%%%%%%%%%%%%%%%%%%%%%%%%%%%%%%%%%%%%%%%

 boundary label             = solvent             
 boundary mode              = full                

 boundary is built as a type-2 function of a smooth density

 using the modified SCCS function:
 rhomax                     =      0.0050000
 rhomin                     =      0.0001000

 volume of the QM region    =   1470.9189891

 surface of the QM region   =    271.4401238

%%%% DENSITY %%%%%%%%%%%%%%%%%%%%%%%%%%%%%%%%%%%%%%%%%%%%%%%%%%%%%%%%%%%%%%%%%%%

 density label              = vreference                                        

 integral of density        =   0.8503197430E-11

%%%% COMPUTE ELECTROSTATIC POTENTIAL %%%%%%%%%%%%%%%%%%%%%%%%%%%%%%%%%%%%%%%%%%%

 Warning: Bad guess with residual norm =   0.358765E+04, reset to no guess

   i |      alpha     |       pAp      |      rzold     |    delta_qm    |    delta_en    |       tol
 ---------------------------------------------------------------------------------------------------------
   1 |   0.998885E+00 |   0.127128E+04 |   0.126986E+04 |   0.678497E-01 |   0.357974E+04 |   0.100000E-04
   2 |   0.440556E-01 |   0.586649E+03 |   0.258452E+02 |   0.454241E-01 |   0.160446E+04 |   0.100000E-04
   3 |   0.117217E+00 |   0.189949E+02 |   0.222652E+01 |   0.352807E-01 |   0.967903E+03 |   0.100000E-04
   4 |   0.194600E+00 |   0.679033E+00 |   0.132140E+00 |   0.254459E-01 |   0.503491E+03 |   0.100000E-04
   5 |   0.718431E+00 |   0.199575E+00 |   0.143381E+00 |   0.151207E-01 |   0.177787E+03 |   0.100000E-04
   6 |   0.499963E+00 |   0.320957E+00 |   0.160467E+00 |   0.803622E-02 |   0.502180E+02 |   0.100000E-04
   7 |   0.424620E+00 |   0.100111E+00 |   0.425092E-01 |   0.795675E-02 |   0.492298E+02 |   0.100000E-04
   8 |   0.648745E+00 |   0.200184E-01 |   0.129868E-01 |   0.699646E-02 |   0.380639E+02 |   0.100000E-04
   9 |   0.824982E+00 |   0.897260E-02 |   0.740224E-02 |   0.538748E-02 |   0.225698E+02 |   0.100000E-04
  10 |   0.582163E+00 |   0.152228E-01 |   0.886216E-02 |   0.347140E-02 |   0.937057E+01 |   0.100000E-04
  11 |   0.410906E+00 |   0.160380E-01 |   0.659011E-02 |   0.325896E-02 |   0.825876E+01 |   0.100000E-04
  12 |   0.509055E+00 |   0.435843E-02 |   0.221868E-02 |   0.337283E-02 |   0.884596E+01 |   0.100000E-04
  13 |   0.111457E+01 |   0.107404E-02 |   0.119709E-02 |   0.265234E-02 |   0.547035E+01 |   0.100000E-04
  14 |   0.842448E+00 |   0.230252E-02 |   0.193976E-02 |   0.243434E-02 |   0.460806E+01 |   0.100000E-04
  15 |   0.356661E+00 |   0.460281E-02 |   0.164164E-02 |   0.213777E-02 |   0.355367E+01 |   0.100000E-04
  16 |   0.342012E+00 |   0.175151E-02 |   0.599036E-03 |   0.155916E-02 |   0.189033E+01 |   0.100000E-04
  17 |   0.655313E-01 |   0.919839E-02 |   0.602783E-03 |   0.139383E-02 |   0.151069E+01 |   0.100000E-04
  18 |   0.397108E+00 |   0.728696E-03 |   0.289371E-03 |   0.624739E-03 |   0.303496E+00 |   0.100000E-04
  19 |   0.607366E+00 |   0.113937E-03 |   0.692015E-04 |   0.410658E-03 |   0.131135E+00 |   0.100000E-04
  20 |   0.580869E+00 |   0.367224E-04 |   0.213309E-04 |   0.281434E-03 |   0.615897E-01 |   0.100000E-04
  21 |   0.665005E+00 |   0.821155E-05 |   0.546072E-05 |   0.107188E-03 |   0.893405E-02 |   0.100000E-04
  22 |   0.602425E+00 |   0.201442E-05 |   0.121354E-05 |   0.623497E-04 |   0.302291E-02 |   0.100000E-04
  23 |   0.173191E+00 |   0.526138E-05 |   0.911222E-06 |   0.522611E-04 |   0.212380E-02 |   0.100000E-04
  24 |   0.408129E+00 |   0.169665E-05 |   0.692450E-06 |   0.468885E-04 |   0.170958E-02 |   0.100000E-04
  25 |   0.605315E+00 |   0.383370E-06 |   0.232059E-06 |   0.293604E-04 |   0.670319E-03 |   0.100000E-04
  26 |   0.508601E+00 |   0.144320E-06 |   0.734015E-07 |   0.146850E-04 |   0.167690E-03 |   0.100000E-04
  27 |   0.523163E+00 |   0.480933E-07 |   0.251607E-07 |   0.564465E-05 |   0.247760E-04 |   0.100000E-04
  28 |   0.498503E+00 |   0.103672E-07 |   0.516808E-08 |   0.365019E-05 |   0.103606E-04 |   0.100000E-04
  29 |   0.373264E+00 |   0.343178E-08 |   0.128096E-08 |   0.242998E-05 |   0.459158E-05 |   0.100000E-04

 Charges are converged, EXIT

%%%% DENSITY %%%%%%%%%%%%%%%%%%%%%%%%%%%%%%%%%%%%%%%%%%%%%%%%%%%%%%%%%%%%%%%%%%%

 density label              = velectrostatic                                    

 integral of density        =   0.1736168760E-11

%%%% CHARGES %%%%%%%%%%%%%%%%%%%%%%%%%%%%%%%%%%%%%%%%%%%%%%%%%%%%%%%%%%%%%%%%%%%

 total number of charges    =            100

 total charge               =     -0.0000000

%%%% DENSITY %%%%%%%%%%%%%%%%%%%%%%%%%%%%%%%%%%%%%%%%%%%%%%%%%%%%%%%%%%%%%%%%%%%

 density label              = vsoftcavity                                       

 integral of density        =    60.57740703    

%%%% DENSITY %%%%%%%%%%%%%%%%%%%%%%%%%%%%%%%%%%%%%%%%%%%%%%%%%%%%%%%%%%%%%%%%%%%

 density label              = dvtot                                             

 integral of density        =    60.57740703    

%%%% ELECTRONS %%%%%%%%%%%%%%%%%%%%%%%%%%%%%%%%%%%%%%%%%%%%%%%%%%%%%%%%%%%%%%%%%

 number of electrons        =             89

 total electronic charge    =     89.0000000

%%%% ELECTRONS %%%%%%%%%%%%%%%%%%%%%%%%%%%%%%%%%%%%%%%%%%%%%%%%%%%%%%%%%%%%%%%%%

 number of electrons        =             89

 total electronic charge    =     89.0000000

%%%% CHARGES %%%%%%%%%%%%%%%%%%%%%%%%%%%%%%%%%%%%%%%%%%%%%%%%%%%%%%%%%%%%%%%%%%%

 total number of charges    =             99

 total charge               =     -1.0000000

%%%% CHARGES %%%%%%%%%%%%%%%%%%%%%%%%%%%%%%%%%%%%%%%%%%%%%%%%%%%%%%%%%%%%%%%%%%%

 total number of charges    =            100

 total charge               =      0.0000000

%%%% BOUNDARY %%%%%%%%%%%%%%%%%%%%%%%%%%%%%%%%%%%%%%%%%%%%%%%%%%%%%%%%%%%%%%%%%%

 boundary label             = solvent             
 boundary mode              = full                

 boundary is built as a type-2 function of a smooth density

 using the modified SCCS function:
 rhomax                     =      0.0050000
 rhomin                     =      0.0001000

 volume of the QM region    =   1470.9269171

 surface of the QM region   =    271.4598248

%%%% DENSITY %%%%%%%%%%%%%%%%%%%%%%%%%%%%%%%%%%%%%%%%%%%%%%%%%%%%%%%%%%%%%%%%%%%

 density label              = vreference                                        

 integral of density        =   0.7251107626E-12

%%%% COMPUTE ELECTROSTATIC POTENTIAL %%%%%%%%%%%%%%%%%%%%%%%%%%%%%%%%%%%%%%%%%%%

 Warning: Bad guess with residual norm =   0.358219E+04, reset to no guess

   i |      alpha     |       pAp      |      rzold     |    delta_qm    |    delta_en    |       tol
 ---------------------------------------------------------------------------------------------------------
   1 |   0.998887E+00 |   0.127128E+04 |   0.126986E+04 |   0.677982E-01 |   0.357431E+04 |   0.100000E-04
   2 |   0.440753E-01 |   0.584732E+03 |   0.257723E+02 |   0.454399E-01 |   0.160558E+04 |   0.100000E-04
   3 |   0.117142E+00 |   0.190327E+02 |   0.222954E+01 |   0.352832E-01 |   0.968037E+03 |   0.100000E-04
   4 |   0.194613E+00 |   0.679171E+00 |   0.132176E+00 |   0.254469E-01 |   0.503530E+03 |   0.100000E-04
   5 |   0.717971E+00 |   0.199750E+00 |   0.143414E+00 |   0.151317E-01 |   0.178045E+03 |   0.100000E-04
   6 |   0.500146E+00 |   0.320968E+00 |   0.160531E+00 |   0.803579E-02 |   0.502127E+02 |   0.100000E-04
   7 |   0.424467E+00 |   0.100230E+00 |   0.425444E-01 |   0.795702E-02 |   0.492331E+02 |   0.100000E-04
   8 |   0.648614E+00 |   0.200333E-01 |   0.129938E-01 |   0.699812E-02 |   0.380819E+02 |   0.100000E-04
   9 |   0.824307E+00 |   0.898623E-02 |   0.740741E-02 |   0.539139E-02 |   0.226026E+02 |   0.100000E-04
  10 |   0.581428E+00 |   0.152645E-01 |   0.887520E-02 |   0.347596E-02 |   0.939520E+01 |   0.100000E-04
  11 |   0.411442E+00 |   0.160488E-01 |   0.660315E-02 |   0.326009E-02 |   0.826449E+01 |   0.100000E-04
  12 |   0.509659E+00 |   0.435673E-02 |   0.222045E-02 |   0.337494E-02 |   0.885705E+01 |   0.100000E-04
  13 |   0.111367E+01 |   0.107569E-02 |   0.119797E-02 |   0.264022E-02 |   0.542045E+01 |   0.100000E-04
  14 |   0.801199E+00 |   0.242868E-02 |   0.194585E-02 |   0.252253E-02 |   0.494799E+01 |   0.100000E-04
  15 |   0.718095E-01 |   0.474848E-01 |   0.340986E-02 |   0.236543E-02 |   0.435088E+01 |   0.100000E-04
  16 |   0.224642E+00 |   0.926088E-02 |   0.208039E-02 |   0.205395E-02 |   0.328047E+01 |   0.100000E-04
  17 |   0.374247E+00 |   0.138416E-02 |   0.518016E-03 |   0.141438E-02 |   0.155557E+01 |   0.100000E-04
  18 |   0.553284E+00 |   0.388244E-03 |   0.214809E-03 |   0.626461E-03 |   0.305172E+00 |   0.100000E-04
  19 |   0.608158E+00 |   0.114231E-03 |   0.694707E-04 |   0.411574E-03 |   0.131720E+00 |   0.100000E-04
  20 |   0.580993E+00 |   0.368580E-04 |   0.214142E-04 |   0.282265E-03 |   0.619543E-01 |   0.100000E-04
  21 |   0.665016E+00 |   0.825000E-05 |   0.548639E-05 |   0.106691E-03 |   0.885135E-02 |   0.100000E-04
  22 |   0.618190E+00 |   0.196668E-05 |   0.121578E-05 |   0.587983E-04 |   0.268835E-02 |   0.100000E-04
  23 |   0.212638E+00 |   0.357610E-05 |   0.760416E-06 |   0.576738E-04 |   0.258651E-02 |   0.100000E-04
  24 |   0.325248E+00 |   0.250592E-05 |   0.815045E-06 |   0.462763E-04 |   0.166522E-02 |   0.100000E-04
  25 |   0.597734E+00 |   0.395308E-06 |   0.236289E-06 |   0.295985E-04 |   0.681231E-03 |   0.100000E-04
  26 |   0.506859E+00 |   0.147523E-06 |   0.747735E-07 |   0.148233E-04 |   0.170862E-03 |   0.100000E-04
  27 |   0.481315E+00 |   0.530838E-07 |   0.255500E-07 |   0.639823E-05 |   0.318329E-04 |   0.100000E-04
  28 |   0.508760E-01 |   0.584491E-06 |   0.297366E-07 |   0.536046E-05 |   0.223440E-04 |   0.100000E-04
  29 |   0.436733E+00 |   0.119101E-07 |   0.520153E-08 |   0.349756E-05 |   0.951234E-05 |   0.100000E-04

 Charges are converged, EXIT

%%%% DENSITY %%%%%%%%%%%%%%%%%%%%%%%%%%%%%%%%%%%%%%%%%%%%%%%%%%%%%%%%%%%%%%%%%%%

 density label              = velectrostatic                                    

 integral of density        =  -0.1712252070E-11

%%%% CHARGES %%%%%%%%%%%%%%%%%%%%%%%%%%%%%%%%%%%%%%%%%%%%%%%%%%%%%%%%%%%%%%%%%%%

 total number of charges    =            100

 total charge               =      0.0000000

%%%% DENSITY %%%%%%%%%%%%%%%%%%%%%%%%%%%%%%%%%%%%%%%%%%%%%%%%%%%%%%%%%%%%%%%%%%%

 density label              = vsoftcavity                                       

 integral of density        =    60.59198462    

%%%% DENSITY %%%%%%%%%%%%%%%%%%%%%%%%%%%%%%%%%%%%%%%%%%%%%%%%%%%%%%%%%%%%%%%%%%%

 density label              = dvtot                                             

 integral of density        =    60.59198462    

%%%% ELECTRONS %%%%%%%%%%%%%%%%%%%%%%%%%%%%%%%%%%%%%%%%%%%%%%%%%%%%%%%%%%%%%%%%%

 number of electrons        =             89

 total electronic charge    =     89.0000000

%%%% ELECTRONS %%%%%%%%%%%%%%%%%%%%%%%%%%%%%%%%%%%%%%%%%%%%%%%%%%%%%%%%%%%%%%%%%

 number of electrons        =             89

 total electronic charge    =     89.0000000

%%%% CHARGES %%%%%%%%%%%%%%%%%%%%%%%%%%%%%%%%%%%%%%%%%%%%%%%%%%%%%%%%%%%%%%%%%%%

 total number of charges    =             99

 total charge               =     -1.0000000

%%%% CHARGES %%%%%%%%%%%%%%%%%%%%%%%%%%%%%%%%%%%%%%%%%%%%%%%%%%%%%%%%%%%%%%%%%%%

 total number of charges    =            100

 total charge               =      0.0000000

%%%% BOUNDARY %%%%%%%%%%%%%%%%%%%%%%%%%%%%%%%%%%%%%%%%%%%%%%%%%%%%%%%%%%%%%%%%%%

 boundary label             = solvent             
 boundary mode              = full                

 boundary is built as a type-2 function of a smooth density

 using the modified SCCS function:
 rhomax                     =      0.0050000
 rhomin                     =      0.0001000

 volume of the QM region    =   1470.9269171

 surface of the QM region   =    271.4598248

%%%% DENSITY %%%%%%%%%%%%%%%%%%%%%%%%%%%%%%%%%%%%%%%%%%%%%%%%%%%%%%%%%%%%%%%%%%%

 density label              = dvtot                                             

 integral of density        =    60.59198462    

%%%% DENSITY %%%%%%%%%%%%%%%%%%%%%%%%%%%%%%%%%%%%%%%%%%%%%%%%%%%%%%%%%%%%%%%%%%%

 density label              = vreference                                        

 integral of density        =   0.7251107626E-12

%%%% DENSITY %%%%%%%%%%%%%%%%%%%%%%%%%%%%%%%%%%%%%%%%%%%%%%%%%%%%%%%%%%%%%%%%%%%

 density label              = velectrostatic                                    

 integral of density        =  -0.1712252070E-11

%%%% CHARGES %%%%%%%%%%%%%%%%%%%%%%%%%%%%%%%%%%%%%%%%%%%%%%%%%%%%%%%%%%%%%%%%%%%

 total number of charges    =             99

 total charge               =     -1.0000000

%%%% DENSITY %%%%%%%%%%%%%%%%%%%%%%%%%%%%%%%%%%%%%%%%%%%%%%%%%%%%%%%%%%%%%%%%%%%

 density label              = vsoftcavity                                       

 integral of density        =    60.59198462    
