
     Program PWSCF v.6.7+ starts on 22Apr2021 at 11:31:37 

     This program is part of the open-source Quantum ESPRESSO suite
     for quantum simulation of materials; please cite
         "P. Giannozzi et al., J. Phys.:Condens. Matter 21 395502 (2009);
         "P. Giannozzi et al., J. Phys.:Condens. Matter 29 465901 (2017);
          URL http://www.quantum-espresso.org", 
     in publications or presentations arising from this work. More details at
     http://www.quantum-espresso.org/quote

     Parallel version (MPI), running on     1 processors

     MPI processes distributed on     1 nodes
     Reading input from neutral-dblcell.in

     Current dimensions of program PWSCF are:
     Max number of different atomic species (ntypx) = 10
     Max number of k-points (npk) =  40000
     Max angular momentum in pseudopotentials (lmaxx) =  3
     file C.pbe-rrkjus.UPF: wavefunction(s)  2S 2P renormalized
     file H.pbe-rrkjus.UPF: wavefunction(s)  1S renormalized
     file N.pbe-rrkjus.UPF: wavefunction(s)  2S renormalized
     file O.pbe-rrkjus.UPF: wavefunction(s)  2S renormalized

     gamma-point specific algorithms are used

     Subspace diagonalization in iterative solution of the eigenvalue problem:
     a serial algorithm will be used


     G-vector sticks info
     --------------------
     sticks:   dense  smooth     PW     G-vecs:    dense   smooth      PW
     Sum        2385     949    241                87655    22119    2777



     bravais-lattice index     =            1
     lattice parameter (alat)  =      10.0000  a.u.
     unit-cell volume          =    1000.0000 (a.u.)^3
     number of atoms/cell      =            9
     number of atomic types    =            4
     number of electrons       =        24.00
     number of Kohn-Sham states=           12
     kinetic-energy cutoff     =      30.0000  Ry
     charge density cutoff     =     300.0000  Ry
     scf convergence threshold =      1.0E-03
     mixing beta               =       0.7000
     number of iterations used =            8  plain     mixing
     Exchange-correlation= SLA  PW   PBE  PBE
                           (   1   4   3   4   0   0   0)


     Environ Module
     ==============

     Plese cite
         O. Andreussi, I. Dabo and N. Marzari, J. Chem. Phys. 136, 064102 (2012)         
     in publications or presentations arising from this work.

     compensation onset threshold      =               0.1000E+03 
     static permittivity               =                    78.30 
     epsilon calculation mode          =               electronic 
     surface tension in input (dyn/cm) =                    50.00 
     surface tension in internal units =               0.6423E-04 
     external pressure in input (GPa)  =                    -0.35 
     external pressure in inter. units =              -0.2379E-04 

     Electrostatic Setup
     -------------------
     electrostatic problem to solve    = generalized              
     numerical solver adopted          = cg                       
     type of auxiliary density adopted = none                     
     type of core tool for poisson     = fft                      



     celldm(1)=  10.000000  celldm(2)=   0.000000  celldm(3)=   0.000000
     celldm(4)=   0.000000  celldm(5)=   0.000000  celldm(6)=   0.000000

     crystal axes: (cart. coord. in units of alat)
               a(1) = (   1.000000   0.000000   0.000000 )  
               a(2) = (   0.000000   1.000000   0.000000 )  
               a(3) = (   0.000000   0.000000   1.000000 )  

     reciprocal axes: (cart. coord. in units 2 pi/alat)
               b(1) = (  1.000000  0.000000  0.000000 )  
               b(2) = (  0.000000  1.000000  0.000000 )  
               b(3) = (  0.000000  0.000000  1.000000 )  


     PseudoPot. # 1 for C  read from file:
     ../../../pseudo/C.pbe-rrkjus.UPF
     MD5 check sum: c9ac5a99bc85b198593446162950cd17
     Pseudo is Ultrasoft, Zval =  4.0
     Generated by new atomic code, or converted to UPF format
     Using radial grid of  627 points,  4 beta functions with: 
                l(1) =   0
                l(2) =   0
                l(3) =   1
                l(4) =   1
     Q(r) pseudized with 0 coefficients 


     PseudoPot. # 2 for H  read from file:
     ../../../pseudo/H.pbe-rrkjus.UPF
     MD5 check sum: 2d52a7f45632fd764c17cc6affed14c8
     Pseudo is Ultrasoft, Zval =  1.0
     Generated by new atomic code, or converted to UPF format
     Using radial grid of 1061 points,  2 beta functions with: 
                l(1) =   0
                l(2) =   0
     Q(r) pseudized with 0 coefficients 


     PseudoPot. # 3 for N  read from file:
     ../../../pseudo/N.pbe-rrkjus.UPF
     MD5 check sum: 28c76d763763edb36c62a6ca2be9aebd
     Pseudo is Ultrasoft, Zval =  5.0
     Generated by new atomic code, or converted to UPF format
     Using radial grid of 1257 points,  4 beta functions with: 
                l(1) =   0
                l(2) =   0
                l(3) =   1
                l(4) =   1
     Q(r) pseudized with 0 coefficients 


     PseudoPot. # 4 for O  read from file:
     ../../../pseudo/O.pbe-rrkjus.UPF
     MD5 check sum: fadcf19ee70a498d3030e2e79cf929a4
     Pseudo is Ultrasoft, Zval =  6.0
     Generated by new atomic code, or converted to UPF format
     Using radial grid of 1269 points,  4 beta functions with: 
                l(1) =   0
                l(2) =   0
                l(3) =   1
                l(4) =   1
     Q(r) pseudized with 0 coefficients 


     atomic species   valence    mass     pseudopotential
        C              4.00    12.00000     C ( 1.00)
        H              1.00     1.00000     H ( 1.00)
        N              5.00    14.00000     N ( 1.00)
        O              6.00    16.00000     O ( 1.00)

     No symmetry found



   Cartesian axes

     site n.     atom                  positions (alat units)
         1           C   tau(   1) = (   0.0000000   0.0000000   0.0000000  )
         2           C   tau(   2) = (   0.0000000   0.0000000   0.2910178  )
         3           N   tau(   3) = (   0.2341938   0.0000000  -0.1090048  )
         4           H   tau(   4) = (   0.0953235  -0.1650932   0.3584180  )
         5           H   tau(   5) = (  -0.1906366  -0.0000060   0.3584181  )
         6           H   tau(   6) = (   0.0953131   0.1650992   0.3584180  )
         7           O   tau(   7) = (  -0.1968004  -0.0000037  -0.1282619  )
         8           H   tau(   8) = (   0.2526261  -0.0000030  -0.2951095  )
         9           H   tau(   9) = (   0.3889291   0.0000268  -0.0051433  )

     number of k points=     1
                       cart. coord. in units 2pi/alat
        k(    1) = (   0.0000000   0.0000000   0.0000000), wk =   2.0000000

     Dense  grid:    43828 G-vectors     FFT dimensions: (  60,  60,  60)

     Smooth grid:    11060 G-vectors     FFT dimensions: (  36,  36,  36)

     Estimated max dynamical RAM per process >      77.34 MB

     Initial potential from superposition of free atoms

     starting charge   23.51886, renormalised to   24.00000
     Starting wfcs are   21 randomized atomic wfcs

     total cpu time spent up to now is       10.0 secs

     Self-consistent Calculation

     iteration #  1     ecut=    30.00 Ry     beta= 0.70
     Davidson diagonalization with overlap
     ethr =  1.00E-02,  avg # of iterations =  2.0

     add environment contribution to local potential
     polarization accuracy = 6.1E-06, # of iterations =  26

     total cpu time spent up to now is       31.3 secs

     total energy              =     -79.74479902 Ry
     estimated scf accuracy    <       2.43094544 Ry
     electrostatic embedding   =       0.00000000 Ry
     cavitation energy         =       0.00044005 Ry
     PV energy                 =      -0.02376569 Ry
     correction to one-el term =      -0.00000000 Ry

     iteration #  2     ecut=    30.00 Ry     beta= 0.70
     Davidson diagonalization with overlap
     ethr =  1.00E-02,  avg # of iterations =  4.0

     add environment contribution to local potential
     polarization accuracy = 6.2E-06, # of iterations =  24

     total cpu time spent up to now is       52.8 secs

     total energy              =     -80.26472850 Ry
     estimated scf accuracy    <       0.81162064 Ry
     electrostatic embedding   =      -0.00987815 Ry
     cavitation energy         =       0.00951917 Ry
     PV energy                 =      -0.02288733 Ry
     correction to one-el term =       3.83043074 Ry

     iteration #  3     ecut=    30.00 Ry     beta= 0.70
     Davidson diagonalization with overlap
     ethr =  3.38E-03,  avg # of iterations =  4.0

     add environment contribution to local potential
     polarization accuracy = 7.6E-06, # of iterations =  27

     total cpu time spent up to now is       74.8 secs

     total energy              =     -80.39826342 Ry
     estimated scf accuracy    <       0.08028367 Ry
     electrostatic embedding   =      -0.00298942 Ry
     cavitation energy         =       0.02351980 Ry
     PV energy                 =      -0.02107054 Ry
     correction to one-el term =       4.01984177 Ry

     iteration #  4     ecut=    30.00 Ry     beta= 0.70
     Davidson diagonalization with overlap
     ethr =  3.35E-04,  avg # of iterations =  4.0

     add environment contribution to local potential
     polarization accuracy = 8.7E-06, # of iterations =  23

     total cpu time spent up to now is       94.4 secs

     total energy              =     -80.40782116 Ry
     estimated scf accuracy    <       0.02324442 Ry
     electrostatic embedding   =      -0.00200610 Ry
     cavitation energy         =       0.02511116 Ry
     PV energy                 =      -0.01776017 Ry
     correction to one-el term =       4.00255534 Ry

     iteration #  5     ecut=    30.00 Ry     beta= 0.70
     Davidson diagonalization with overlap
     ethr =  9.69E-05,  avg # of iterations =  2.0

     add environment contribution to local potential
     polarization accuracy = 7.4E-06, # of iterations =  24

     total cpu time spent up to now is      114.6 secs

     total energy              =     -80.41383546 Ry
     estimated scf accuracy    <       0.00142029 Ry
     electrostatic embedding   =      -0.00421588 Ry
     cavitation energy         =       0.01884570 Ry
     PV energy                 =      -0.01611396 Ry
     correction to one-el term =       4.00506482 Ry

     iteration #  6     ecut=    30.00 Ry     beta= 0.70
     Davidson diagonalization with overlap
     ethr =  5.92E-06,  avg # of iterations =  4.0

     the potential shift due to the Gaussian-smeared nuclei is    -0.0190 ev

     total cpu time spent up to now is      119.2 secs

     End of self-consistent calculation

          k = 0.0000 0.0000 0.0000 (  1389 PWs)   bands (ev):

   -24.6607 -21.3725 -17.1638 -13.8157 -12.4227 -10.2759 -10.0284  -8.8979
    -8.3101  -7.8897  -5.3430  -4.4434

     highest occupied level (ev):    -4.4434

!    total energy              =     -80.41462330 Ry
     estimated scf accuracy    <       0.00013458 Ry

     The total energy is the sum of the following terms:
     one-electron contribution =    -115.86001424 Ry
     hartree contribution      =      62.13188107 Ry
     xc contribution           =     -22.82119138 Ry
     ewald contribution        =      -7.85503513 Ry
     electrostatic embedding   =      -0.00488684 Ry
     cavitation energy         =       0.01855635 Ry
     PV energy                 =      -0.01597583 Ry
     correction to one-el term =       3.99204268 Ry

     convergence has been achieved in   6 iterations
 forces lc
       1    0.0008   -0.0012    0.0303
       2   -0.0056   -0.0008   -0.0155
       3   -1.3713   -0.0154    0.7629
       4    0.0022   -0.0207   -0.0136
       5   -0.0025    0.0002   -0.0126
       6   -0.0061    0.0356   -0.0018
       7-6520.5046  -57.0101  193.9106
       8    0.0194   -0.0000   -0.0232
       9   -0.0305    0.0001   -0.0849

     Forces acting on atoms (cartesian axes, Ry/au):

     atom    1 type  1   force =   724.66039460    6.33354011  -21.59133284
     atom    2 type  1   force =   724.59881316    6.33402478  -21.70574744
     atom    3 type  3   force =   723.25988626    6.31925122  -20.79521941
     atom    4 type  2   force =   724.65773228    6.29482180  -21.62211947
     atom    5 type  2   force =   724.64602330    6.33493136  -21.60011293
     atom    6 type  2   force =   724.64937423    6.38941034  -21.61037658
     atom    7 type  4   force = -5795.82292099  -50.67546912  172.27460354
     atom    8 type  2   force =   724.69118745    6.33469407  -21.64359048
     atom    9 type  2   force =   724.65950971    6.33479545  -21.70610440

     Total force =  6150.348645     Total SCF correction =     0.016980

     Writing output data file ./tmp/pwscf.save/

     init_run     :      9.03s CPU      9.92s WALL (       1 calls)
     electrons    :    102.16s CPU    109.24s WALL (       1 calls)
     forces       :      1.34s CPU      1.50s WALL (       1 calls)

     Called by init_run:
     wfcinit      :      0.01s CPU      0.01s WALL (       1 calls)
     potinit      :      4.43s CPU      4.91s WALL (       1 calls)
     hinit0       :      4.02s CPU      4.22s WALL (       1 calls)

     Called by electrons:
     c_bands      :      0.15s CPU      0.22s WALL (       6 calls)
     sum_band     :      0.80s CPU      0.47s WALL (       6 calls)
     v_of_rho     :      0.53s CPU      0.64s WALL (       7 calls)
     newd         :      0.29s CPU      0.39s WALL (       7 calls)
     mix_rho      :      0.04s CPU      0.05s WALL (       6 calls)

     Called by c_bands:
     init_us_2    :      0.01s CPU      0.01s WALL (      13 calls)
     regterg      :      0.14s CPU      0.21s WALL (       6 calls)

     Called by *egterg:
     rdiaghg      :      0.00s CPU      0.00s WALL (      26 calls)
     h_psi        :      0.12s CPU      0.18s WALL (      27 calls)
     s_psi        :      0.01s CPU      0.01s WALL (      27 calls)
     g_psi        :      0.00s CPU      0.00s WALL (      20 calls)

     Called by h_psi:
     h_psi:calbec :      0.00s CPU      0.00s WALL (      27 calls)
     vloc_psi     :      0.10s CPU      0.10s WALL (      27 calls)
     add_vuspsi   :      0.01s CPU      0.08s WALL (      27 calls)

     General routines
     calbec       :      0.01s CPU      0.01s WALL (      37 calls)
     fft          :     65.11s CPU     67.81s WALL (     462 calls)
     ffts         :      0.01s CPU      0.01s WALL (      13 calls)
     fftw         :      0.09s CPU      0.09s WALL (     282 calls)
     interpolate  :      0.03s CPU      0.05s WALL (       7 calls)

     Parallel routines
     fft_scatt_xy :      7.15s CPU      7.18s WALL (     381 calls)
     fft_scatt_yz :      9.63s CPU      9.66s WALL (     381 calls)

     Environ routines
     calc_eelect  :      0.05s CPU      0.05s WALL (      12 calls)
     calc_velect  :     66.19s CPU     69.60s WALL (      10 calls)
     dielectric   :      1.31s CPU      1.55s WALL (       8 calls)
     calc_felect  :      1.22s CPU      1.37s WALL (       1 calls)

     PWSCF        :   1m52.62s CPU   2m 0.91s WALL


   This run was terminated on:  11:33:38  22Apr2021            

=------------------------------------------------------------------------------=
   JOB DONE.
=------------------------------------------------------------------------------=
 Calling electrostatic_initbase now
 electrolyte_distance:    0.0000000000000000     
 sc_distance:    0.0000000000000000     
 velectrostatic started
 vreference created

%%%% IONS %%%%%%%%%%%%%%%%%%%%%%%%%%%%%%%%%%%%%%%%%%%%%%%%%%%%%%%%%%%%%%%%%%%%%%
 number of ions             =          9
 ionic center of charge     =      0.0263217     0.0000001     0.0260199
 total ionic charge         =    -24.0000000
 ionic dipole               =      0.0000000     0.0000000     0.0000000
 ionic quadrupole (pc)      =    -75.9587425    -5.4513517   -95.3140140
 ionic quadrupole (gauss)   =    -78.9587425    -8.4513517   -98.3140140
 ion   1 type =  1 coordinates =      0.0000000     0.0000000     0.0000000
 ion   2 type =  1 coordinates =      0.0000000     0.0000000     2.9101782
 ion   3 type =  3 coordinates =      2.3419379     0.0000000    -1.0900479
 ion   4 type =  2 coordinates =      0.9532347    -1.6509323     3.5841800
 ion   5 type =  2 coordinates =     -1.9063663    -0.0000596     3.5841809
 ion   6 type =  2 coordinates =      0.9531315     1.6509919     3.5841800
 ion   7 type =  4 coordinates =     -1.9680045    -0.0000375    -1.2826193
 ion   8 type =  2 coordinates =      2.5262613    -0.0000303    -2.9510950
 ion   9 type =  2 coordinates =      3.8892907     0.0002681    -0.0514326

%%%% SYSTEM %%%%%%%%%%%%%%%%%%%%%%%%%%%%%%%%%%%%%%%%%%%%%%%%%%%%%%%%%%%%%%%%%%%%
 system is built from all present ionic types
 system defined dimension   =  0 
 system defined axis        =  3 
 system center              =      0.0263217     0.0000001     0.0260199 
 system width               =      0.3969377 

%%%% IONS %%%%%%%%%%%%%%%%%%%%%%%%%%%%%%%%%%%%%%%%%%%%%%%%%%%%%%%%%%%%%%%%%%%%%%
 number of ions             =          9
 ionic center of charge     =      0.0263217     0.0000001     0.0260199
 total ionic charge         =    -24.0000000
 ionic dipole               =      0.0000000     0.0000000     0.0000000
 ionic quadrupole (pc)      =    -75.9587425    -5.4513517   -95.3140140
 ionic quadrupole (gauss)   =    -78.9587425    -8.4513517   -98.3140140
 ion   1 type =  1 coordinates =      0.0000000     0.0000000     0.0000000
 ion   2 type =  1 coordinates =      0.0000000     0.0000000     2.9101782
 ion   3 type =  3 coordinates =      2.3419379     0.0000000    -1.0900479
 ion   4 type =  2 coordinates =      0.9532347    -1.6509323     3.5841800
 ion   5 type =  2 coordinates =     -1.9063663    -0.0000596     3.5841809
 ion   6 type =  2 coordinates =      0.9531315     1.6509919     3.5841800
 ion   7 type =  4 coordinates =     -1.9680045    -0.0000375    -1.2826193
 ion   8 type =  2 coordinates =      2.5262613    -0.0000303    -2.9510950
 ion   9 type =  2 coordinates =      3.8892907     0.0002681    -0.0514326

%%%% SYSTEM %%%%%%%%%%%%%%%%%%%%%%%%%%%%%%%%%%%%%%%%%%%%%%%%%%%%%%%%%%%%%%%%%%%%
 system is built from all present ionic types
 system defined dimension   =  0 
 system defined axis        =  3 
 system center              =      0.0263217     0.0000001     0.0260199 
 system width               =      0.3969377 

%%%% ELECTRONS %%%%%%%%%%%%%%%%%%%%%%%%%%%%%%%%%%%%%%%%%%%%%%%%%%%%%%%%%%%%%%%%%
 number of electrons        =         24
 total electronic charge    =     24.0000000

%%%% ELECTRONS %%%%%%%%%%%%%%%%%%%%%%%%%%%%%%%%%%%%%%%%%%%%%%%%%%%%%%%%%%%%%%%%%
 number of electrons        =         24
 total electronic charge    =     24.0000000

%%%% BOUNDARY %%%%%%%%%%%%%%%%%%%%%%%%%%%%%%%%%%%%%%%%%%%%%%%%%%%%%%%%%%%%%%%%%%
 boundary label             = solvent              
 boundary mode              = electronic           
 boundary is built as a function of a smooth density
 function type              =  2 
 using the modified SCCS function with parameters 
 rhomax                     =      0.0050000 
 rhomin                     =      0.0001000 
 volume of the QM region    =    998.8721231 
 surface of the QM region   =      6.8511541 

%%%% DIELECTRIC %%%%%%%%%%%%%%%%%%%%%%%%%%%%%%%%%%%%%%%%%%%%%%%%%%%%%%%%%%%%%%%%%
 dielectric build on homogeneous background
 environment bulk permitt.  =     78.3000000 
 dielectric flags
 need gradient              =  F 
 need factor depend. sqrt   =  T 
 total dielectric charge    =      0.0000000

%%%% DENSITY %%%%%%%%%%%%%%%%%%%%%%%%%%%%%%%%%%%%%%%%%%%%%%%%%%%%%%%%%%%%%%%%%%%
 density label              = dvtot                                                                           
 integral of density        =      0.000000000    

%%%% DENSITY %%%%%%%%%%%%%%%%%%%%%%%%%%%%%%%%%%%%%%%%%%%%%%%%%%%%%%%%%%%%%%%%%%%
 density label              = vreference                                                                      
 integral of density        =      0.000000000    

%%%% DENSITY %%%%%%%%%%%%%%%%%%%%%%%%%%%%%%%%%%%%%%%%%%%%%%%%%%%%%%%%%%%%%%%%%%%
 density label              = velectrostatic                                                                  
 integral of density        =      0.000000000    

%%%% CHARGES %%%%%%%%%%%%%%%%%%%%%%%%%%%%%%%%%%%%%%%%%%%%%%%%%%%%%%%%%%%%%%%%%%%
 total number of charges    =         33
 total charge               =     -0.0000000

%%%% DENSITY %%%%%%%%%%%%%%%%%%%%%%%%%%%%%%%%%%%%%%%%%%%%%%%%%%%%%%%%%%%%%%%%%%%
 density label              = vsoftcavity                                                                     
 integral of density        =      0.000000000    

%%%% ELECTRONS %%%%%%%%%%%%%%%%%%%%%%%%%%%%%%%%%%%%%%%%%%%%%%%%%%%%%%%%%%%%%%%%%
 number of electrons        =         24
 total electronic charge    =     24.0000000

%%%% ELECTRONS %%%%%%%%%%%%%%%%%%%%%%%%%%%%%%%%%%%%%%%%%%%%%%%%%%%%%%%%%%%%%%%%%
 number of electrons        =         24
 total electronic charge    =     24.0000000

%%%% BOUNDARY %%%%%%%%%%%%%%%%%%%%%%%%%%%%%%%%%%%%%%%%%%%%%%%%%%%%%%%%%%%%%%%%%%
 boundary label             = solvent              
 boundary mode              = electronic           
 boundary is built as a function of a smooth density
 function type              =  2 
 using the modified SCCS function with parameters 
 rhomax                     =      0.0050000 
 rhomin                     =      0.0001000 
 volume of the QM region    =    961.9548609 
 surface of the QM region   =    148.2032261 

%%%% DIELECTRIC %%%%%%%%%%%%%%%%%%%%%%%%%%%%%%%%%%%%%%%%%%%%%%%%%%%%%%%%%%%%%%%%%
 dielectric build on homogeneous background
 environment bulk permitt.  =     78.3000000 
 dielectric flags
 need gradient              =  F 
 need factor depend. sqrt   =  T 
 total dielectric charge    =      0.0000000

%%%% DENSITY %%%%%%%%%%%%%%%%%%%%%%%%%%%%%%%%%%%%%%%%%%%%%%%%%%%%%%%%%%%%%%%%%%%
 density label              = vreference                                                                      
 integral of density        =     0.1122558836E-13

%%%% COMPUTE ELECTROSTATIC POTENTIAL %%%%%%%%%%%%%%%%%%%%%%%%%%%%%%%%%%%%%%%%%%%
 Iteration #          1
  pAp =    91.050219449616407       rzold =    89.507441629095737       alpha =   0.98305574846665378     
 delta_qm =   0.312577E-01 delta_en =   0.569813E+04 tol =   0.100000E-04
 Iteration #          2
  pAp =    1356.9721291545850       rzold =    41.303089974555405       alpha =    3.0437684818396291E-002
 delta_qm =   0.102759E-01 delta_en =   0.615829E+03 tol =   0.100000E-04
 Iteration #          3
  pAp =    64.628891427687662       rzold =    2.4713476460190509       alpha =    3.8239053640339880E-002
 delta_qm =   0.598744E-02 delta_en =   0.209074E+03 tol =   0.100000E-04
 Iteration #          4
  pAp =    12.025824475588678       rzold =   0.75654434647276270       alpha =    6.2909977441337056E-002
 delta_qm =   0.327481E-02 delta_en =   0.625446E+02 tol =   0.100000E-04
 Iteration #          5
  pAp =    1.9643092216736884       rzold =   0.16044296258885341       alpha =    8.1679076195624686E-002
 delta_qm =   0.235029E-02 delta_en =   0.322152E+02 tol =   0.100000E-04
 Iteration #          6
  pAp =   0.82442048039599902       rzold =    7.0935626093447113E-002  alpha =    8.6043017829171550E-002
 delta_qm =   0.152025E-02 delta_en =   0.134787E+02 tol =   0.100000E-04
 Iteration #          7
  pAp =   0.50361333534577035       rzold =    3.3148398274266765E-002  alpha =    6.5821128925245331E-002
 delta_qm =   0.114042E-02 delta_en =   0.758479E+01 tol =   0.100000E-04
 Iteration #          8
  pAp =   0.12071830439881080       rzold =    1.3760617442946290E-002  alpha =   0.11398948578242163     
 delta_qm =   0.720235E-03 delta_en =   0.302528E+01 tol =   0.100000E-04
 Iteration #          9
  pAp =    5.6365458326319590E-002  rzold =    5.2422284221304372E-003  alpha =    9.3004272080629974E-002
 delta_qm =   0.514484E-03 delta_en =   0.154369E+01 tol =   0.100000E-04
 Iteration #         10
  pAp =    5.7139876088322834E-002  rzold =    3.2351457569973555E-003  alpha =    5.6618004421232777E-002
 delta_qm =   0.379940E-03 delta_en =   0.841873E+00 tol =   0.100000E-04
 Iteration #         11
  pAp =    1.4269064824437303E-002  rzold =    1.4496786082934948E-003  alpha =   0.10159590878098505     
 delta_qm =   0.233523E-03 delta_en =   0.318036E+00 tol =   0.100000E-04
 Iteration #         12
  pAp =    2.1868619410436540E-003  rzold =    3.1732976156987301E-004  alpha =   0.14510735936921154     
 delta_qm =   0.146030E-03 delta_en =   0.124366E+00 tol =   0.100000E-04
 Iteration #         13
  pAp =    1.4337401300186059E-003  rzold =    1.4947837741356441E-004  alpha =   0.10425765052110567     
 delta_qm =   0.104583E-03 delta_en =   0.637879E-01 tol =   0.100000E-04
 Iteration #         14
  pAp =    4.2897939805722885E-004  rzold =    5.6272664231309095E-005  alpha =   0.13117801107968810     
 delta_qm =   0.774886E-04 delta_en =   0.350181E-01 tol =   0.100000E-04
 Iteration #         15
  pAp =    4.5726371182637276E-004  rzold =    4.1127456120751223E-005  alpha =    8.9942532191068986E-002
 delta_qm =   0.509582E-04 delta_en =   0.151442E-01 tol =   0.100000E-04
 Iteration #         16
  pAp =    5.8876210216456211E-005  rzold =    1.0011020581848655E-005  alpha =   0.17003507095724246     
 delta_qm =   0.344566E-04 delta_en =   0.692410E-02 tol =   0.100000E-04
 Iteration #         17
  pAp =    2.8398624117170476E-005  rzold =    4.3903480406725712E-006  alpha =   0.15459720944783600     
 delta_qm =   0.228451E-04 delta_en =   0.304371E-02 tol =   0.100000E-04
 Iteration #         18
  pAp =    1.7309172666116786E-005  rzold =    1.9236687457154421E-006  alpha =   0.11113579966078217     
 delta_qm =   0.170094E-04 delta_en =   0.168731E-02 tol =   0.100000E-04
 Iteration #         19
  pAp =    1.0634715864623183E-005  rzold =    1.0571145868476347E-006  alpha =    9.9402240765469774E-002
 delta_qm =   0.128503E-04 delta_en =   0.963040E-03 tol =   0.100000E-04
 Iteration #         20
  pAp =    3.7051552741360067E-006  rzold =    4.8979808387138217E-007  alpha =   0.13219367277005595     
 delta_qm =   0.935475E-05 delta_en =   0.510366E-03 tol =   0.100000E-04
 Iteration #         21
  pAp =    9.7169427708505740E-007  rzold =    1.8748492142671394E-007  alpha =   0.19294640901780510     
 delta_qm =   0.620382E-05 delta_en =   0.224459E-03 tol =   0.100000E-04
 Iteration #         22
  pAp =    6.4253865389528060E-007  rzold =    8.7091934185735196E-008  alpha =   0.13554349401044630     
 delta_qm =   0.471393E-05 delta_en =   0.129594E-03 tol =   0.100000E-04
 Iteration #         23
  pAp =    4.0198692944843247E-007  rzold =    5.9432308010581120E-008  alpha =   0.14784636926411607     
 delta_qm =   0.316327E-05 delta_en =   0.583566E-04 tol =   0.100000E-04
 Iteration #         24
  pAp =    3.0980182036598554E-007  rzold =    2.8103686321460039E-008  alpha =    9.0715045793661395E-002
 delta_qm =   0.236323E-05 delta_en =   0.325708E-04 tol =   0.100000E-04
 Iteration #         25
  pAp =    8.3562554392869254E-007  rzold =    4.1352956077189410E-008  alpha =    4.9487424573892914E-002
 delta_qm =   0.180244E-05 delta_en =   0.189470E-04 tol =   0.100000E-04
 Iteration #         26
  pAp =    4.4999822523136146E-008  rzold =    8.5910592780673719E-009  alpha =   0.19091318134977925     
 delta_qm =   0.102089E-05 delta_en =   0.607819E-05 tol =   0.100000E-04
 Charges are converged, EXIT

%%%% DENSITY %%%%%%%%%%%%%%%%%%%%%%%%%%%%%%%%%%%%%%%%%%%%%%%%%%%%%%%%%%%%%%%%%%%
 density label              = velectrostatic                                                                  
 integral of density        =    -0.1245536765E-10

%%%% CHARGES %%%%%%%%%%%%%%%%%%%%%%%%%%%%%%%%%%%%%%%%%%%%%%%%%%%%%%%%%%%%%%%%%%%
 total number of charges    =         33
 total charge               =     -0.0000000

%%%% DENSITY %%%%%%%%%%%%%%%%%%%%%%%%%%%%%%%%%%%%%%%%%%%%%%%%%%%%%%%%%%%%%%%%%%%
 density label              = vsoftcavity                                                                     
 integral of density        =      14.01224142    

%%%% DENSITY %%%%%%%%%%%%%%%%%%%%%%%%%%%%%%%%%%%%%%%%%%%%%%%%%%%%%%%%%%%%%%%%%%%
 density label              = dvtot                                                                           
 integral of density        =     -161.1166926    

%%%% ELECTRONS %%%%%%%%%%%%%%%%%%%%%%%%%%%%%%%%%%%%%%%%%%%%%%%%%%%%%%%%%%%%%%%%%
 number of electrons        =         24
 total electronic charge    =     24.0000000

%%%% ELECTRONS %%%%%%%%%%%%%%%%%%%%%%%%%%%%%%%%%%%%%%%%%%%%%%%%%%%%%%%%%%%%%%%%%
 number of electrons        =         24
 total electronic charge    =     24.0000000

%%%% BOUNDARY %%%%%%%%%%%%%%%%%%%%%%%%%%%%%%%%%%%%%%%%%%%%%%%%%%%%%%%%%%%%%%%%%%
 boundary label             = solvent              
 boundary mode              = electronic           
 boundary is built as a function of a smooth density
 function type              =  2 
 using the modified SCCS function with parameters 
 rhomax                     =      0.0050000 
 rhomin                     =      0.0001000 
 volume of the QM region    =    885.5953279 
 surface of the QM region   =    366.1780641 

%%%% DIELECTRIC %%%%%%%%%%%%%%%%%%%%%%%%%%%%%%%%%%%%%%%%%%%%%%%%%%%%%%%%%%%%%%%%%
 dielectric build on homogeneous background
 environment bulk permitt.  =     78.3000000 
 dielectric flags
 need gradient              =  F 
 need factor depend. sqrt   =  T 
 total dielectric charge    =     -0.1199004

%%%% DENSITY %%%%%%%%%%%%%%%%%%%%%%%%%%%%%%%%%%%%%%%%%%%%%%%%%%%%%%%%%%%%%%%%%%%
 density label              = vreference                                                                      
 integral of density        =    -0.4140802927E-12

%%%% COMPUTE ELECTROSTATIC POTENTIAL %%%%%%%%%%%%%%%%%%%%%%%%%%%%%%%%%%%%%%%%%%%
 Warning: bad guess with residual norm =   0.109350E+05, reset to no guess
 Iteration #          1
  pAp =    93.156432422292937       rzold =    91.298319562531830       alpha =   0.98005384264461759     
 delta_qm =   0.424441E-01 delta_en =   0.105063E+05 tol =   0.100000E-04
 Iteration #          2
  pAp =    979.43093135826769       rzold =    39.381371840284899       alpha =    4.0208421624658208E-002
 delta_qm =   0.114522E-01 delta_en =   0.764881E+03 tol =   0.100000E-04
 Iteration #          3
  pAp =    30.859874356838141       rzold =    1.4683472337119801       alpha =    4.7581115098954178E-002
 delta_qm =   0.657763E-02 delta_en =   0.252323E+03 tol =   0.100000E-04
 Iteration #          4
  pAp =    5.2007332045270083       rzold =   0.41764454836271364       alpha =    8.0304936234601026E-002
 delta_qm =   0.395807E-02 delta_en =   0.913658E+02 tol =   0.100000E-04
 Iteration #          5
  pAp =    1.4138549943971119       rzold =   0.13163272627758613       alpha =    9.3101999002179289E-002
 delta_qm =   0.229059E-02 delta_en =   0.305993E+02 tol =   0.100000E-04
 Iteration #          6
  pAp =   0.27323535357929807       rzold =    3.4640750050677654E-002  alpha =   0.12677989724570635     
 delta_qm =   0.141943E-02 delta_en =   0.117501E+02 tol =   0.100000E-04
 Iteration #          7
  pAp =   0.19071970447007311       rzold =    1.5319318132996170E-002  alpha =    8.0323730448103800E-002
 delta_qm =   0.996398E-03 delta_en =   0.579007E+01 tol =   0.100000E-04
 Iteration #          8
  pAp =    5.4671976922172655E-002  rzold =    6.2665851745348665E-003  alpha =   0.11462152143237028     
 delta_qm =   0.547737E-03 delta_en =   0.174969E+01 tol =   0.100000E-04
 Iteration #          9
  pAp =    8.0733559365829873E-003  rzold =    1.3143024671151569E-003  alpha =   0.16279506037379415     
 delta_qm =   0.304599E-03 delta_en =   0.541097E+00 tol =   0.100000E-04
 Iteration #         10
  pAp =    2.3361091495235245E-003  rzold =    4.1615328949091117E-004  alpha =   0.17813948872028959     
 delta_qm =   0.201034E-03 delta_en =   0.235699E+00 tol =   0.100000E-04
 Iteration #         11
  pAp =    9.9323403068909749E-004  rzold =    1.4962281586684286E-004  alpha =   0.15064205539054656     
 delta_qm =   0.128381E-03 delta_en =   0.961215E-01 tol =   0.100000E-04
 Iteration #         12
  pAp =    7.6759062477632612E-004  rzold =    8.3097873310042657E-005  alpha =   0.10825806182072267     
 delta_qm =   0.927906E-04 delta_en =   0.502141E-01 tol =   0.100000E-04
 Iteration #         13
  pAp =    5.3465525086755349E-004  rzold =    4.6689378393091071E-005  alpha =    8.7326138324333252E-002
 delta_qm =   0.634881E-04 delta_en =   0.235073E-01 tol =   0.100000E-04
 Iteration #         14
  pAp =    7.0085890510976568E-005  rzold =    1.1215541437979307E-005  alpha =   0.16002566787993905     
 delta_qm =   0.389296E-04 delta_en =   0.883847E-02 tol =   0.100000E-04
 Iteration #         15
  pAp =    2.2349217817184966E-005  rzold =    4.0534508657932635E-006  alpha =   0.18136880220821180     
 delta_qm =   0.283082E-04 delta_en =   0.467350E-02 tol =   0.100000E-04
 Iteration #         16
  pAp =    8.3926616552955862E-006  rzold =    1.6269897820017418E-006  alpha =   0.19385861706639237     
 delta_qm =   0.206839E-04 delta_en =   0.249506E-02 tol =   0.100000E-04
 Iteration #         17
  pAp =    5.5363371286041664E-006  rzold =    8.2045653885831883E-007  alpha =   0.14819482986672347     
 delta_qm =   0.155036E-04 delta_en =   0.140179E-02 tol =   0.100000E-04
 Iteration #         18
  pAp =    2.4599579858444945E-006  rzold =    3.9114136612585721E-007  alpha =   0.15900327094065381     
 delta_qm =   0.109829E-04 delta_en =   0.703480E-03 tol =   0.100000E-04
 Iteration #         19
  pAp =    7.0807676430456196E-007  rzold =    1.5235579621048104E-007  alpha =   0.21516847309644085     
 delta_qm =   0.763710E-05 delta_en =   0.340153E-03 tol =   0.100000E-04
 Iteration #         20
  pAp =    5.3080731609757632E-007  rzold =    8.8172386615940258E-008  alpha =   0.16610996861190938     
 delta_qm =   0.573056E-05 delta_en =   0.191519E-03 tol =   0.100000E-04
 Iteration #         21
  pAp =    3.9447646775287107E-007  rzold =    6.3802708944599157E-008  alpha =   0.16174021560284768     
 delta_qm =   0.374555E-05 delta_en =   0.818178E-04 tol =   0.100000E-04
 Iteration #         22
  pAp =    1.1080748615163681E-007  rzold =    2.5175446328693672E-008  alpha =   0.22719986891717595     
 delta_qm =   0.208325E-05 delta_en =   0.253105E-04 tol =   0.100000E-04
 Iteration #         23
  pAp =    5.6983898595463821E-008  rzold =    8.8089468183286458E-009  alpha =   0.15458659437930908     
 delta_qm =   0.147587E-05 delta_en =   0.127033E-04 tol =   0.100000E-04
 Iteration #         24
  pAp =    2.7247100721347221E-007  rzold =    1.4346450131436198E-008  alpha =    5.2653125476195044E-002
 delta_qm =   0.103086E-05 delta_en =   0.619752E-05 tol =   0.100000E-04
 Charges are converged, EXIT

%%%% DENSITY %%%%%%%%%%%%%%%%%%%%%%%%%%%%%%%%%%%%%%%%%%%%%%%%%%%%%%%%%%%%%%%%%%%
 density label              = velectrostatic                                                                  
 integral of density        =     0.7363255445E-11

%%%% CHARGES %%%%%%%%%%%%%%%%%%%%%%%%%%%%%%%%%%%%%%%%%%%%%%%%%%%%%%%%%%%%%%%%%%%
 total number of charges    =         33
 total charge               =      0.0000000

%%%% DENSITY %%%%%%%%%%%%%%%%%%%%%%%%%%%%%%%%%%%%%%%%%%%%%%%%%%%%%%%%%%%%%%%%%%%
 density label              = vsoftcavity                                                                     
 integral of density        =      37.13607474    

%%%% DENSITY %%%%%%%%%%%%%%%%%%%%%%%%%%%%%%%%%%%%%%%%%%%%%%%%%%%%%%%%%%%%%%%%%%%
 density label              = dvtot                                                                           
 integral of density        =     -140.3450178    

%%%% ELECTRONS %%%%%%%%%%%%%%%%%%%%%%%%%%%%%%%%%%%%%%%%%%%%%%%%%%%%%%%%%%%%%%%%%
 number of electrons        =         24
 total electronic charge    =     24.0000000

%%%% ELECTRONS %%%%%%%%%%%%%%%%%%%%%%%%%%%%%%%%%%%%%%%%%%%%%%%%%%%%%%%%%%%%%%%%%
 number of electrons        =         24
 total electronic charge    =     24.0000000

%%%% BOUNDARY %%%%%%%%%%%%%%%%%%%%%%%%%%%%%%%%%%%%%%%%%%%%%%%%%%%%%%%%%%%%%%%%%%
 boundary label             = solvent              
 boundary mode              = electronic           
 boundary is built as a function of a smooth density
 function type              =  2 
 using the modified SCCS function with parameters 
 rhomax                     =      0.0050000 
 rhomin                     =      0.0001000 
 volume of the QM region    =    746.4604227 
 surface of the QM region   =    390.9538201 

%%%% DIELECTRIC %%%%%%%%%%%%%%%%%%%%%%%%%%%%%%%%%%%%%%%%%%%%%%%%%%%%%%%%%%%%%%%%%
 dielectric build on homogeneous background
 environment bulk permitt.  =     78.3000000 
 dielectric flags
 need gradient              =  F 
 need factor depend. sqrt   =  T 
 total dielectric charge    =     -0.1118116

%%%% DENSITY %%%%%%%%%%%%%%%%%%%%%%%%%%%%%%%%%%%%%%%%%%%%%%%%%%%%%%%%%%%%%%%%%%%
 density label              = vreference                                                                      
 integral of density        =     0.3105663874E-12

%%%% COMPUTE ELECTROSTATIC POTENTIAL %%%%%%%%%%%%%%%%%%%%%%%%%%%%%%%%%%%%%%%%%%%
 Warning: bad guess with residual norm =   0.536355E+04, reset to no guess
 Iteration #          1
  pAp =    93.245388696506140       rzold =    92.049767468723360       alpha =   0.98717769055932325     
 delta_qm =   0.299411E-01 delta_en =   0.522822E+04 tol =   0.100000E-04
 Iteration #          2
  pAp =    326.37341331234433       rzold =    18.438635832160923       alpha =    5.6495520407217933E-002
 delta_qm =   0.631901E-02 delta_en =   0.232871E+03 tol =   0.100000E-04
 Iteration #          3
  pAp =    4.2907385348876357       rzold =   0.34889860196942096       alpha =    8.1314346966741419E-002
 delta_qm =   0.363400E-02 delta_en =   0.770170E+02 tol =   0.100000E-04
 Iteration #          4
  pAp =    1.4233310787301214       rzold =   0.13480836421540016       alpha =    9.4713286479822065E-002
 delta_qm =   0.251869E-02 delta_en =   0.369972E+02 tol =   0.100000E-04
 Iteration #          5
  pAp =   0.23036576285625837       rzold =    3.3856893606536681E-002  alpha =   0.14697016252220782     
 delta_qm =   0.120395E-02 delta_en =   0.845346E+01 tol =   0.100000E-04
 Iteration #          6
  pAp =   0.12693761142564772       rzold =    1.2178399028574535E-002  alpha =    9.5940036146874366E-002
 delta_qm =   0.716585E-03 delta_en =   0.299470E+01 tol =   0.100000E-04
 Iteration #          7
  pAp =    1.7534579406796744E-002  rzold =    2.5813781462980809E-003  alpha =   0.14721642797417134     
 delta_qm =   0.497304E-03 delta_en =   0.144232E+01 tol =   0.100000E-04
 Iteration #          8
  pAp =    9.4340526215526740E-003  rzold =    1.3817927024641298E-003  alpha =   0.14646862360162580     
 delta_qm =   0.351530E-03 delta_en =   0.720681E+00 tol =   0.100000E-04
 Iteration #          9
  pAp =    2.3890440517724603E-003  rzold =    4.6621447801419670E-004  alpha =   0.19514687377501749     
 delta_qm =   0.252754E-03 delta_en =   0.372574E+00 tol =   0.100000E-04
 Iteration #         10
  pAp =    3.0160618652585270E-004  rzold =    1.0933161585047042E-004  alpha =   0.36249792190883612     
 delta_qm =   0.203807E-03 delta_en =   0.242246E+00 tol =   0.100000E-04
 Iteration #         11
  pAp =    2.8337127688045485E-004  rzold =    7.8373838436859860E-005  alpha =   0.27657650874023920     
 delta_qm =   0.175916E-03 delta_en =   0.180479E+00 tol =   0.100000E-04
 Iteration #         12
  pAp =    2.1199090827873316E-004  rzold =    7.0593892604063356E-005  alpha =   0.33300434050333899     
 delta_qm =   0.140898E-03 delta_en =   0.115779E+00 tol =   0.100000E-04
 Iteration #         13
  pAp =    1.2792449894372376E-004  rzold =    4.5211794606711855E-005  alpha =   0.35342561417106916     
 delta_qm =   0.891501E-04 delta_en =   0.463513E-01 tol =   0.100000E-04
 Iteration #         14
  pAp =    1.3533456880457392E-004  rzold =    3.1189079549529001E-005  alpha =   0.23045907505396285     
 delta_qm =   0.629707E-04 delta_en =   0.231257E-01 tol =   0.100000E-04
 Iteration #         15
  pAp =    7.0817932489629414E-005  rzold =    1.5764401482667627E-005  alpha =   0.22260465574840338     
 delta_qm =   0.396049E-04 delta_en =   0.914779E-02 tol =   0.100000E-04
 Iteration #         16
  pAp =    3.0415150283786588E-005  rzold =    5.5168958058378769E-006  alpha =   0.18138643913848324     
 delta_qm =   0.294410E-04 delta_en =   0.505500E-02 tol =   0.100000E-04
 Iteration #         17
  pAp =    1.3922632716972633E-005  rzold =    2.6077509026401204E-006  alpha =   0.18730300192872970     
 delta_qm =   0.203811E-04 delta_en =   0.242254E-02 tol =   0.100000E-04
 Iteration #         18
  pAp =    2.4254529353996530E-006  rzold =    7.7883094491689017E-007  alpha =   0.32110742432879186     
 delta_qm =   0.150249E-04 delta_en =   0.131657E-02 tol =   0.100000E-04
 Iteration #         19
  pAp =    1.1208328851382579E-006  rzold =    3.5007985768086147E-007  alpha =   0.31233903137815067     
 delta_qm =   0.115400E-04 delta_en =   0.776661E-03 tol =   0.100000E-04
 Iteration #         20
  pAp =    8.1696191981701442E-007  rzold =    2.4272385712380695E-007  alpha =   0.29710547240460483     
 delta_qm =   0.878580E-05 delta_en =   0.450174E-03 tol =   0.100000E-04
 Iteration #         21
  pAp =    7.8340323439132781E-007  rzold =    2.1932637999890859E-007  alpha =   0.27996614051423491     
 delta_qm =   0.651527E-05 delta_en =   0.247561E-03 tol =   0.100000E-04
 Iteration #         22
  pAp =    3.7589856983708944E-007  rzold =    8.9417080439656526E-008  alpha =   0.23787555371229258     
 delta_qm =   0.465511E-05 delta_en =   0.126380E-03 tol =   0.100000E-04
 Iteration #         23
  pAp =    2.7910212730443904E-007  rzold =    6.1313900599875996E-008  alpha =   0.21968267025423283     
 delta_qm =   0.372623E-05 delta_en =   0.809760E-04 tol =   0.100000E-04
 Iteration #         24
  pAp =    9.4814701819692834E-007  rzold =    6.9419363527888999E-008  alpha =    7.3215822225441762E-002
 delta_qm =   0.295052E-05 delta_en =   0.507710E-04 tol =   0.100000E-04
 Iteration #         25
  pAp =    6.7944274846088602E-008  rzold =    1.9032541674806633E-008  alpha =   0.28011987349810230     
 delta_qm =   0.225916E-05 delta_en =   0.297655E-04 tol =   0.100000E-04
 Iteration #         26
  pAp =    1.9208574288627301E-008  rzold =    7.4614406842638794E-009  alpha =   0.38844323228515337     
 delta_qm =   0.153607E-05 delta_en =   0.137607E-04 tol =   0.100000E-04
 Iteration #         27
  pAp =    1.3952253859571858E-008  rzold =    4.8467989459658773E-009  alpha =   0.34738465876183588     
 delta_qm =   0.113806E-05 delta_en =   0.755354E-05 tol =   0.100000E-04
 Charges are converged, EXIT

%%%% DENSITY %%%%%%%%%%%%%%%%%%%%%%%%%%%%%%%%%%%%%%%%%%%%%%%%%%%%%%%%%%%%%%%%%%%
 density label              = velectrostatic                                                                  
 integral of density        =    -0.8128117272E-11

%%%% CHARGES %%%%%%%%%%%%%%%%%%%%%%%%%%%%%%%%%%%%%%%%%%%%%%%%%%%%%%%%%%%%%%%%%%%
 total number of charges    =         33
 total charge               =      0.0000000

%%%% DENSITY %%%%%%%%%%%%%%%%%%%%%%%%%%%%%%%%%%%%%%%%%%%%%%%%%%%%%%%%%%%%%%%%%%%
 density label              = vsoftcavity                                                                     
 integral of density        =      27.19195098    

%%%% DENSITY %%%%%%%%%%%%%%%%%%%%%%%%%%%%%%%%%%%%%%%%%%%%%%%%%%%%%%%%%%%%%%%%%%%
 density label              = dvtot                                                                           
 integral of density        =     -145.9961473    

%%%% ELECTRONS %%%%%%%%%%%%%%%%%%%%%%%%%%%%%%%%%%%%%%%%%%%%%%%%%%%%%%%%%%%%%%%%%
 number of electrons        =         24
 total electronic charge    =     24.0000000

%%%% ELECTRONS %%%%%%%%%%%%%%%%%%%%%%%%%%%%%%%%%%%%%%%%%%%%%%%%%%%%%%%%%%%%%%%%%
 number of electrons        =         24
 total electronic charge    =     24.0000000

%%%% BOUNDARY %%%%%%%%%%%%%%%%%%%%%%%%%%%%%%%%%%%%%%%%%%%%%%%%%%%%%%%%%%%%%%%%%%
 boundary label             = solvent              
 boundary mode              = electronic           
 boundary is built as a function of a smooth density
 function type              =  2 
 using the modified SCCS function with parameters 
 rhomax                     =      0.0050000 
 rhomin                     =      0.0001000 
 volume of the QM region    =    677.2700762 
 surface of the QM region   =    293.4073458 

%%%% DIELECTRIC %%%%%%%%%%%%%%%%%%%%%%%%%%%%%%%%%%%%%%%%%%%%%%%%%%%%%%%%%%%%%%%%%
 dielectric build on homogeneous background
 environment bulk permitt.  =     78.3000000 
 dielectric flags
 need gradient              =  F 
 need factor depend. sqrt   =  T 
 total dielectric charge    =     -0.0929167

%%%% DENSITY %%%%%%%%%%%%%%%%%%%%%%%%%%%%%%%%%%%%%%%%%%%%%%%%%%%%%%%%%%%%%%%%%%%
 density label              = vreference                                                                      
 integral of density        =    -0.4972483330E-12

%%%% COMPUTE ELECTROSTATIC POTENTIAL %%%%%%%%%%%%%%%%%%%%%%%%%%%%%%%%%%%%%%%%%%%
 Warning: bad guess with residual norm =   0.457987E+04, reset to no guess
 Iteration #          1
  pAp =    93.108558922954131       rzold =    91.889735359521381       alpha =   0.98690965065369229     
 delta_qm =   0.276607E-01 delta_en =   0.446214E+04 tol =   0.100000E-04
 Iteration #          2
  pAp =    261.18221260713688       rzold =    16.690413919858816       alpha =    6.3903333053403899E-002
 delta_qm =   0.492487E-02 delta_en =   0.141451E+03 tol =   0.100000E-04
 Iteration #          3
  pAp =    1.7562104198627935       rzold =   0.21073222239803321       alpha =   0.11999258176278044     
 delta_qm =   0.279858E-02 delta_en =   0.456765E+02 tol =   0.100000E-04
 Iteration #          4
  pAp =   0.99859785067059359       rzold =    8.6167294184276946E-002  alpha =    8.6288283242761415E-002
 delta_qm =   0.203326E-02 delta_en =   0.241104E+02 tol =   0.100000E-04
 Iteration #          5
  pAp =   0.17711489179024839       rzold =    2.4264146286365994E-002  alpha =   0.13699664687202734     
 delta_qm =   0.952258E-03 delta_en =   0.528843E+01 tol =   0.100000E-04
 Iteration #          6
  pAp =   0.10278366079168624       rzold =    1.0173592910438900E-002  alpha =    9.8980643733423052E-002
 delta_qm =   0.509153E-03 delta_en =   0.151187E+01 tol =   0.100000E-04
 Iteration #          7
  pAp =    9.2228515713274530E-003  rzold =    1.8156728185365208E-003  alpha =   0.19686675042903129     
 delta_qm =   0.365405E-03 delta_en =   0.778693E+00 tol =   0.100000E-04
 Iteration #          8
  pAp =    3.3578018845062943E-003  rzold =    6.3783093178063533E-004  alpha =   0.18995490315367941     
 delta_qm =   0.228691E-03 delta_en =   0.305011E+00 tol =   0.100000E-04
 Iteration #          9
  pAp =    1.5023565999963478E-003  rzold =    2.4286578514395995E-004  alpha =   0.16165655021221351     
 delta_qm =   0.162341E-03 delta_en =   0.153699E+00 tol =   0.100000E-04
 Iteration #         10
  pAp =    2.0704433383169881E-004  rzold =    6.9977691884303699E-005  alpha =   0.33798409543140084     
 delta_qm =   0.122492E-03 delta_en =   0.875054E-01 tol =   0.100000E-04
 Iteration #         11
  pAp =    7.8115166243109617E-005  rzold =    2.5609157587585225E-005  alpha =   0.32783848283551670     
 delta_qm =   0.103986E-03 delta_en =   0.630614E-01 tol =   0.100000E-04
 Iteration #         12
  pAp =    6.6109783105657631E-005  rzold =    2.2392721710347946E-005  alpha =   0.33872024167073073     
 delta_qm =   0.765534E-04 delta_en =   0.341779E-01 tol =   0.100000E-04
 Iteration #         13
  pAp =    4.7594625662762226E-005  rzold =    1.5298330776560153E-005  alpha =   0.32142979514028375     
 delta_qm =   0.517019E-04 delta_en =   0.155894E-01 tol =   0.100000E-04
 Iteration #         14
  pAp =    2.4803025543352115E-005  rzold =    8.2169675788064874E-006  alpha =   0.33128892136342042     
 delta_qm =   0.309646E-04 delta_en =   0.559177E-02 tol =   0.100000E-04
 Iteration #         15
  pAp =    2.4706421794008704E-005  rzold =    4.7751723660398008E-006  alpha =   0.19327656614353511     
 delta_qm =   0.234984E-04 delta_en =   0.322027E-02 tol =   0.100000E-04
 Iteration #         16
  pAp =    4.5689309913270893E-006  rzold =    1.2648053603773302E-006  alpha =   0.27682741603631783     
 delta_qm =   0.150596E-04 delta_en =   0.132265E-02 tol =   0.100000E-04
 Iteration #         17
  pAp =    2.2129754596222857E-006  rzold =    5.2672315839393609E-007  alpha =   0.23801581536012065     
 delta_qm =   0.105980E-04 delta_en =   0.655033E-03 tol =   0.100000E-04
 Iteration #         18
  pAp =    1.4544388606897264E-006  rzold =    2.9113709364537790E-007  alpha =   0.20017142109865957     
 delta_qm =   0.807947E-05 delta_en =   0.380700E-03 tol =   0.100000E-04
 Iteration #         19
  pAp =    4.3555161751370282E-007  rzold =    1.3661323908359069E-007  alpha =   0.31365568072834149     
 delta_qm =   0.574313E-05 delta_en =   0.192360E-03 tol =   0.100000E-04
 Iteration #         20
  pAp =    3.1525714715837521E-007  rzold =    9.3264168198733591E-008  alpha =   0.29583522226026054     
 delta_qm =   0.451209E-05 delta_en =   0.118733E-03 tol =   0.100000E-04
 Iteration #         21
  pAp =    9.4366252522178700E-008  rzold =    3.7441086554526820E-008  alpha =   0.39676352036685064     
 delta_qm =   0.274320E-05 delta_en =   0.438868E-04 tol =   0.100000E-04
 Iteration #         22
  pAp =    5.3048280111087567E-008  rzold =    1.6578626310223265E-008  alpha =   0.31251958170003297     
 delta_qm =   0.170714E-05 delta_en =   0.169963E-04 tol =   0.100000E-04
 Iteration #         23
  pAp =    1.7342969944856433E-008  rzold =    5.3760463595663574E-009  alpha =   0.30998418244741188     
 delta_qm =   0.122056E-05 delta_en =   0.868834E-05 tol =   0.100000E-04
 Charges are converged, EXIT

%%%% DENSITY %%%%%%%%%%%%%%%%%%%%%%%%%%%%%%%%%%%%%%%%%%%%%%%%%%%%%%%%%%%%%%%%%%%
 density label              = velectrostatic                                                                  
 integral of density        =     0.9849133609E-11

%%%% CHARGES %%%%%%%%%%%%%%%%%%%%%%%%%%%%%%%%%%%%%%%%%%%%%%%%%%%%%%%%%%%%%%%%%%%
 total number of charges    =         33
 total charge               =     -0.0000000

%%%% DENSITY %%%%%%%%%%%%%%%%%%%%%%%%%%%%%%%%%%%%%%%%%%%%%%%%%%%%%%%%%%%%%%%%%%%
 density label              = vsoftcavity                                                                     
 integral of density        =     0.5223787948    

%%%% DENSITY %%%%%%%%%%%%%%%%%%%%%%%%%%%%%%%%%%%%%%%%%%%%%%%%%%%%%%%%%%%%%%%%%%%
 density label              = dvtot                                                                           
 integral of density        =     -169.6850546    

%%%% ELECTRONS %%%%%%%%%%%%%%%%%%%%%%%%%%%%%%%%%%%%%%%%%%%%%%%%%%%%%%%%%%%%%%%%%
 number of electrons        =         24
 total electronic charge    =     24.0000000

%%%% ELECTRONS %%%%%%%%%%%%%%%%%%%%%%%%%%%%%%%%%%%%%%%%%%%%%%%%%%%%%%%%%%%%%%%%%
 number of electrons        =         24
 total electronic charge    =     24.0000000

%%%% BOUNDARY %%%%%%%%%%%%%%%%%%%%%%%%%%%%%%%%%%%%%%%%%%%%%%%%%%%%%%%%%%%%%%%%%%
 boundary label             = solvent              
 boundary mode              = electronic           
 boundary is built as a function of a smooth density
 function type              =  2 
 using the modified SCCS function with parameters 
 rhomax                     =      0.0050000 
 rhomin                     =      0.0001000 
 volume of the QM region    =    671.4642909 
 surface of the QM region   =    288.9024551 

%%%% DIELECTRIC %%%%%%%%%%%%%%%%%%%%%%%%%%%%%%%%%%%%%%%%%%%%%%%%%%%%%%%%%%%%%%%%%
 dielectric build on homogeneous background
 environment bulk permitt.  =     78.3000000 
 dielectric flags
 need gradient              =  F 
 need factor depend. sqrt   =  T 
 total dielectric charge    =     -0.0801618

%%%% DENSITY %%%%%%%%%%%%%%%%%%%%%%%%%%%%%%%%%%%%%%%%%%%%%%%%%%%%%%%%%%%%%%%%%%%
 density label              = vreference                                                                      
 integral of density        =     0.5073554745E-12

%%%% COMPUTE ELECTROSTATIC POTENTIAL %%%%%%%%%%%%%%%%%%%%%%%%%%%%%%%%%%%%%%%%%%%
 Warning: bad guess with residual norm =   0.457644E+04, reset to no guess
 Iteration #          1
  pAp =    93.183533134991620       rzold =    91.934169198777312       alpha =   0.98659243866183521     
 delta_qm =   0.276416E-01 delta_en =   0.445600E+04 tol =   0.100000E-04
 Iteration #          2
  pAp =    261.35813760569340       rzold =    16.903423920749670       alpha =    6.4675330470297346E-002
 delta_qm =   0.483383E-02 delta_en =   0.136270E+03 tol =   0.100000E-04
 Iteration #          3
  pAp =    1.6839063872456204       rzold =   0.20841302352969682       alpha =   0.12376758298933691     
 delta_qm =   0.274154E-02 delta_en =   0.438335E+02 tol =   0.100000E-04
 Iteration #          4
  pAp =   0.93660842210346418       rzold =    8.1295743622555094E-002  alpha =    8.6798006193429908E-002
 delta_qm =   0.200296E-02 delta_en =   0.233972E+02 tol =   0.100000E-04
 Iteration #          5
  pAp =   0.17545758942119008       rzold =    2.3759205099532912E-002  alpha =   0.13541280931711869     
 delta_qm =   0.939678E-03 delta_en =   0.514963E+01 tol =   0.100000E-04
 Iteration #          6
  pAp =   0.10019807816617511       rzold =    1.0148897657865048E-002  alpha =   0.10128834647939500     
 delta_qm =   0.497425E-03 delta_en =   0.144302E+01 tol =   0.100000E-04
 Iteration #          7
  pAp =    9.3418760029658540E-003  rzold =    1.8216459758324617E-003  alpha =   0.19499787572154956     
 delta_qm =   0.362597E-03 delta_en =   0.766772E+00 tol =   0.100000E-04
 Iteration #          8
  pAp =    3.2414490871980686E-003  rzold =    6.1811349158659131E-004  alpha =   0.19069048285465837     
 delta_qm =   0.227763E-03 delta_en =   0.302541E+00 tol =   0.100000E-04
 Iteration #          9
  pAp =    1.3666322000673086E-003  rzold =    2.3327681292713900E-004  alpha =   0.17069465574984241     
 delta_qm =   0.162435E-03 delta_en =   0.153877E+00 tol =   0.100000E-04
 Iteration #         10
  pAp =    2.1885519465203215E-004  rzold =    7.1828088959161303E-005  alpha =   0.32819915046277087     
 delta_qm =   0.122381E-03 delta_en =   0.873464E-01 tol =   0.100000E-04
 Iteration #         11
  pAp =    7.1775064256962743E-005  rzold =    2.5101678649053948E-005  alpha =   0.34972701047242727     
 delta_qm =   0.103067E-03 delta_en =   0.619523E-01 tol =   0.100000E-04
 Iteration #         12
  pAp =    6.5618363386455713E-005  rzold =    2.2813335462951708E-005  alpha =   0.34766693781424923     
 delta_qm =   0.757759E-04 delta_en =   0.334873E-01 tol =   0.100000E-04
 Iteration #         13
  pAp =    5.0215496314597967E-005  rzold =    1.5539656123590705E-005  alpha =   0.30945937537359813     
 delta_qm =   0.525425E-04 delta_en =   0.161005E-01 tol =   0.100000E-04
 Iteration #         14
  pAp =    2.4655224917042080E-005  rzold =    8.4469842875551802E-006  alpha =   0.34260422754109582     
 delta_qm =   0.294491E-04 delta_en =   0.505780E-02 tol =   0.100000E-04
 Iteration #         15
  pAp =    2.3387080437215338E-005  rzold =    4.4615697088854074E-006  alpha =   0.19077070012492073     
 delta_qm =   0.229154E-04 delta_en =   0.306248E-02 tol =   0.100000E-04
 Iteration #         16
  pAp =    4.0689893569511429E-006  rzold =    1.1689837447256445E-006  alpha =   0.28729093201697475     
 delta_qm =   0.149084E-04 delta_en =   0.129623E-02 tol =   0.100000E-04
 Iteration #         17
  pAp =    2.0781790604639180E-006  rzold =    5.2975330496137891E-007  alpha =   0.25491225228836661     
 delta_qm =   0.102369E-04 delta_en =   0.611162E-03 tol =   0.100000E-04
 Iteration #         18
  pAp =    1.0154017530270015E-006  rzold =    2.3403591721500659E-007  alpha =   0.23048602833048598     
 delta_qm =   0.798130E-05 delta_en =   0.371505E-03 tol =   0.100000E-04
 Iteration #         19
  pAp =    5.8744390133141804E-007  rzold =    1.5460833259298356E-007  alpha =   0.26318825038879456     
 delta_qm =   0.577127E-05 delta_en =   0.194249E-03 tol =   0.100000E-04
 Iteration #         20
  pAp =    3.7804291570317430E-007  rzold =    1.0671509205663885E-007  alpha =   0.28228300974280840     
 delta_qm =   0.436861E-05 delta_en =   0.111302E-03 tol =   0.100000E-04
 Iteration #         21
  pAp =    9.1443068489565736E-008  rzold =    3.7454701133258387E-008  alpha =   0.40959584747019090     
 delta_qm =   0.279344E-05 delta_en =   0.455089E-04 tol =   0.100000E-04
 Iteration #         22
  pAp =    5.7621035899965649E-008  rzold =    1.7641889393467581E-008  alpha =   0.30617098630602885     
 delta_qm =   0.176595E-05 delta_en =   0.181876E-04 tol =   0.100000E-04
 Iteration #         23
  pAp =    2.7182148168485622E-008  rzold =    6.0774251885543030E-009  alpha =   0.22358148998688537     
 delta_qm =   0.141598E-05 delta_en =   0.116932E-04 tol =   0.100000E-04
 Iteration #         24
  pAp =    9.7775174937024119E-008  rzold =    8.6545361327425249E-009  alpha =    8.8514657614438566E-002
 delta_qm =   0.112445E-05 delta_en =   0.737386E-05 tol =   0.100000E-04
 Charges are converged, EXIT

%%%% DENSITY %%%%%%%%%%%%%%%%%%%%%%%%%%%%%%%%%%%%%%%%%%%%%%%%%%%%%%%%%%%%%%%%%%%
 density label              = velectrostatic                                                                  
 integral of density        =     0.1052591835E-10

%%%% CHARGES %%%%%%%%%%%%%%%%%%%%%%%%%%%%%%%%%%%%%%%%%%%%%%%%%%%%%%%%%%%%%%%%%%%
 total number of charges    =         33
 total charge               =      0.0000000

%%%% DENSITY %%%%%%%%%%%%%%%%%%%%%%%%%%%%%%%%%%%%%%%%%%%%%%%%%%%%%%%%%%%%%%%%%%%
 density label              = vsoftcavity                                                                     
 integral of density        =      1.337409114    

%%%% DENSITY %%%%%%%%%%%%%%%%%%%%%%%%%%%%%%%%%%%%%%%%%%%%%%%%%%%%%%%%%%%%%%%%%%%
 density label              = dvtot                                                                           
 integral of density        =     -168.0217615    

%%%% ELECTRONS %%%%%%%%%%%%%%%%%%%%%%%%%%%%%%%%%%%%%%%%%%%%%%%%%%%%%%%%%%%%%%%%%
 number of electrons        =         24
 total electronic charge    =     24.0000000

%%%% ELECTRONS %%%%%%%%%%%%%%%%%%%%%%%%%%%%%%%%%%%%%%%%%%%%%%%%%%%%%%%%%%%%%%%%%
 number of electrons        =         24
 total electronic charge    =     24.0000000

%%%% BOUNDARY %%%%%%%%%%%%%%%%%%%%%%%%%%%%%%%%%%%%%%%%%%%%%%%%%%%%%%%%%%%%%%%%%%
 boundary label             = solvent              
 boundary mode              = electronic           
 boundary is built as a function of a smooth density
 function type              =  2 
 using the modified SCCS function with parameters 
 rhomax                     =      0.0050000 
 rhomin                     =      0.0001000 
 volume of the QM region    =    671.4642909 
 surface of the QM region   =    288.9024551 

%%%% DIELECTRIC %%%%%%%%%%%%%%%%%%%%%%%%%%%%%%%%%%%%%%%%%%%%%%%%%%%%%%%%%%%%%%%%%
 dielectric build on homogeneous background
 environment bulk permitt.  =     78.3000000 
 dielectric flags
 need gradient              =  F 
 need factor depend. sqrt   =  T 
 total dielectric charge    =     -0.0796909

%%%% DENSITY %%%%%%%%%%%%%%%%%%%%%%%%%%%%%%%%%%%%%%%%%%%%%%%%%%%%%%%%%%%%%%%%%%%
 density label              = dvtot                                                                           
 integral of density        =     -168.0217615    

%%%% DENSITY %%%%%%%%%%%%%%%%%%%%%%%%%%%%%%%%%%%%%%%%%%%%%%%%%%%%%%%%%%%%%%%%%%%
 density label              = vreference                                                                      
 integral of density        =     0.5073554745E-12

%%%% DENSITY %%%%%%%%%%%%%%%%%%%%%%%%%%%%%%%%%%%%%%%%%%%%%%%%%%%%%%%%%%%%%%%%%%%
 density label              = velectrostatic                                                                  
 integral of density        =     0.1052591835E-10

%%%% CHARGES %%%%%%%%%%%%%%%%%%%%%%%%%%%%%%%%%%%%%%%%%%%%%%%%%%%%%%%%%%%%%%%%%%%
 total number of charges    =         33
 total charge               =     -0.0000000

%%%% DENSITY %%%%%%%%%%%%%%%%%%%%%%%%%%%%%%%%%%%%%%%%%%%%%%%%%%%%%%%%%%%%%%%%%%%
 density label              = vsoftcavity                                                                     
 integral of density        =      1.337409114    
