
     Program PWSCF v.6.7+ starts on 22Apr2021 at 11:37:39 

     This program is part of the open-source Quantum ESPRESSO suite
     for quantum simulation of materials; please cite
         "P. Giannozzi et al., J. Phys.:Condens. Matter 21 395502 (2009);
         "P. Giannozzi et al., J. Phys.:Condens. Matter 29 465901 (2017);
          URL http://www.quantum-espresso.org", 
     in publications or presentations arising from this work. More details at
     http://www.quantum-espresso.org/quote

     Parallel version (MPI), running on     1 processors

     MPI processes distributed on     1 nodes
     Reading input from cation-dblcell.in

     Current dimensions of program PWSCF are:
     Max number of different atomic species (ntypx) = 10
     Max number of k-points (npk) =  40000
     Max angular momentum in pseudopotentials (lmaxx) =  3
     file C.pbe-rrkjus.UPF: wavefunction(s)  2S 2P renormalized
     file H.pbe-rrkjus.UPF: wavefunction(s)  1S renormalized
     file N.pbe-rrkjus.UPF: wavefunction(s)  2S renormalized
     file O.pbe-rrkjus.UPF: wavefunction(s)  2S renormalized

     gamma-point specific algorithms are used

     Subspace diagonalization in iterative solution of the eigenvalue problem:
     a serial algorithm will be used


     G-vector sticks info
     --------------------
     sticks:   dense  smooth     PW     G-vecs:    dense   smooth      PW
     Sum        2385     949    241                87655    22119    2777



     bravais-lattice index     =            1
     lattice parameter (alat)  =      10.0000  a.u.
     unit-cell volume          =    1000.0000 (a.u.)^3
     number of atoms/cell      =           10
     number of atomic types    =            4
     number of electrons       =        24.00
     number of Kohn-Sham states=           12
     kinetic-energy cutoff     =      30.0000  Ry
     charge density cutoff     =     300.0000  Ry
     scf convergence threshold =      1.0E-03
     mixing beta               =       0.7000
     number of iterations used =            8  plain     mixing
     Exchange-correlation= SLA  PW   PBE  PBE
                           (   1   4   3   4   0   0   0)


     Environ Module
     ==============

     Plese cite
         O. Andreussi, I. Dabo and N. Marzari, J. Chem. Phys. 136, 064102 (2012)         
     in publications or presentations arising from this work.

     compensation onset threshold      =               0.1000E+03 
     static permittivity               =                    78.30 
     epsilon calculation mode          =               electronic 
     surface tension in input (dyn/cm) =                     5.00 
     surface tension in internal units =               0.6423E-05 
     external pressure in input (GPa)  =                     0.12 
     external pressure in inter. units =               0.8497E-05 

     Electrostatic Setup
     -------------------
     electrostatic problem to solve    = generalized              
     numerical solver adopted          = cg                       
     type of auxiliary density adopted = none                     
     type of core tool for poisson     = fft                      



     celldm(1)=  10.000000  celldm(2)=   0.000000  celldm(3)=   0.000000
     celldm(4)=   0.000000  celldm(5)=   0.000000  celldm(6)=   0.000000

     crystal axes: (cart. coord. in units of alat)
               a(1) = (   1.000000   0.000000   0.000000 )  
               a(2) = (   0.000000   1.000000   0.000000 )  
               a(3) = (   0.000000   0.000000   1.000000 )  

     reciprocal axes: (cart. coord. in units 2 pi/alat)
               b(1) = (  1.000000  0.000000  0.000000 )  
               b(2) = (  0.000000  1.000000  0.000000 )  
               b(3) = (  0.000000  0.000000  1.000000 )  


     PseudoPot. # 1 for C  read from file:
     ../../../pseudo/C.pbe-rrkjus.UPF
     MD5 check sum: c9ac5a99bc85b198593446162950cd17
     Pseudo is Ultrasoft, Zval =  4.0
     Generated by new atomic code, or converted to UPF format
     Using radial grid of  627 points,  4 beta functions with: 
                l(1) =   0
                l(2) =   0
                l(3) =   1
                l(4) =   1
     Q(r) pseudized with 0 coefficients 


     PseudoPot. # 2 for H  read from file:
     ../../../pseudo/H.pbe-rrkjus.UPF
     MD5 check sum: 2d52a7f45632fd764c17cc6affed14c8
     Pseudo is Ultrasoft, Zval =  1.0
     Generated by new atomic code, or converted to UPF format
     Using radial grid of 1061 points,  2 beta functions with: 
                l(1) =   0
                l(2) =   0
     Q(r) pseudized with 0 coefficients 


     PseudoPot. # 3 for N  read from file:
     ../../../pseudo/N.pbe-rrkjus.UPF
     MD5 check sum: 28c76d763763edb36c62a6ca2be9aebd
     Pseudo is Ultrasoft, Zval =  5.0
     Generated by new atomic code, or converted to UPF format
     Using radial grid of 1257 points,  4 beta functions with: 
                l(1) =   0
                l(2) =   0
                l(3) =   1
                l(4) =   1
     Q(r) pseudized with 0 coefficients 


     PseudoPot. # 4 for O  read from file:
     ../../../pseudo/O.pbe-rrkjus.UPF
     MD5 check sum: fadcf19ee70a498d3030e2e79cf929a4
     Pseudo is Ultrasoft, Zval =  6.0
     Generated by new atomic code, or converted to UPF format
     Using radial grid of 1269 points,  4 beta functions with: 
                l(1) =   0
                l(2) =   0
                l(3) =   1
                l(4) =   1
     Q(r) pseudized with 0 coefficients 


     atomic species   valence    mass     pseudopotential
        C              4.00    12.00000     C ( 1.00)
        H              1.00     1.00000     H ( 1.00)
        N              5.00    14.00000     N ( 1.00)
        O              6.00    16.00000     O ( 1.00)

     No symmetry found



   Cartesian axes

     site n.     atom                  positions (alat units)
         1           C   tau(   1) = (   0.0000000   0.0000000   0.0000000  )
         2           C   tau(   2) = (   0.0000000   0.0000000   0.2910178  )
         3           N   tau(   3) = (   0.2341938   0.0000000  -0.1090048  )
         4           H   tau(   4) = (   0.0953235  -0.1650932   0.3584180  )
         5           H   tau(   5) = (  -0.1906366  -0.0000060   0.3584181  )
         6           H   tau(   6) = (   0.0953131   0.1650992   0.3584180  )
         7           O   tau(   7) = (  -0.1968004  -0.0000037  -0.1282619  )
         8           H   tau(   8) = (   0.2526261  -0.0000030  -0.2951095  )
         9           H   tau(   9) = (   0.3889291   0.0000268  -0.0051433  )
        10           H   tau(  10) = (  -0.1540732  -0.0000089  -0.3045722  )

     number of k points=     1
                       cart. coord. in units 2pi/alat
        k(    1) = (   0.0000000   0.0000000   0.0000000), wk =   2.0000000

     Dense  grid:    43828 G-vectors     FFT dimensions: (  60,  60,  60)

     Smooth grid:    11060 G-vectors     FFT dimensions: (  36,  36,  36)

     Estimated max dynamical RAM per process >      79.39 MB

     Initial potential from superposition of free atoms

     starting charge   24.42266, renormalised to   24.00000
     Starting wfcs are   22 randomized atomic wfcs

     total cpu time spent up to now is        9.9 secs

     Self-consistent Calculation

     iteration #  1     ecut=    30.00 Ry     beta= 0.70
     Davidson diagonalization with overlap
     ethr =  1.00E-02,  avg # of iterations =  2.0

     add environment contribution to local potential
     polarization accuracy = 6.8E-06, # of iterations =  31

     total cpu time spent up to now is       33.2 secs

     total energy              =     -80.54887416 Ry
     estimated scf accuracy    <       3.21197354 Ry
     electrostatic embedding   =       0.03781547 Ry
     cavitation energy         =       0.00001432 Ry
     PV energy                 =       0.00849608 Ry
     correction to one-el term =      -0.00000000 Ry

     iteration #  2     ecut=    30.00 Ry     beta= 0.70
     Davidson diagonalization with overlap
     ethr =  1.00E-02,  avg # of iterations =  3.0

     add environment contribution to local potential
     polarization accuracy = 5.7E-06, # of iterations =  26

     total cpu time spent up to now is       54.6 secs

     total energy              =     -81.17155120 Ry
     estimated scf accuracy    <       0.81791430 Ry
     electrostatic embedding   =       0.22075574 Ry
     cavitation energy         =       0.00147323 Ry
     PV energy                 =       0.00811066 Ry
     correction to one-el term =       5.83866953 Ry

     iteration #  3     ecut=    30.00 Ry     beta= 0.70
     Davidson diagonalization with overlap
     ethr =  3.41E-03,  avg # of iterations =  2.0

     add environment contribution to local potential
     polarization accuracy = 9.3E-06, # of iterations =  38

     total cpu time spent up to now is       82.2 secs

     total energy              =     -81.25580246 Ry
     estimated scf accuracy    <       0.03370631 Ry
     electrostatic embedding   =       0.22058708 Ry
     cavitation energy         =       0.00377994 Ry
     PV energy                 =       0.00670271 Ry
     correction to one-el term =       5.53408621 Ry

     iteration #  4     ecut=    30.00 Ry     beta= 0.70
     Davidson diagonalization with overlap
     ethr =  1.40E-04,  avg # of iterations =  5.0

     add environment contribution to local potential
     polarization accuracy = 9.4E-06, # of iterations =  56

     total cpu time spent up to now is      119.2 secs

     total energy              =     -81.27058385 Ry
     estimated scf accuracy    <       0.03952797 Ry
     electrostatic embedding   =       0.21464006 Ry
     cavitation energy         =       0.00183376 Ry
     PV energy                 =       0.00501517 Ry
     correction to one-el term =       5.22319500 Ry

     iteration #  5     ecut=    30.00 Ry     beta= 0.70
     Davidson diagonalization with overlap
     ethr =  1.40E-04,  avg # of iterations =  5.0

     add environment contribution to local potential
     polarization accuracy = 9.5E-06, # of iterations = 139

     total cpu time spent up to now is      199.0 secs

     total energy              =     -81.28335019 Ry
     estimated scf accuracy    <       0.00280922 Ry
     electrostatic embedding   =       0.21302834 Ry
     cavitation energy         =       0.00183946 Ry
     PV energy                 =       0.00501397 Ry
     correction to one-el term =       5.15688940 Ry

     iteration #  6     ecut=    30.00 Ry     beta= 0.70
     Davidson diagonalization with overlap
     ethr =  1.17E-05,  avg # of iterations = 13.0

     add environment contribution to local potential
     polarization accuracy = 5.8E-06, # of iterations = 121

     total cpu time spent up to now is      271.4 secs

     total energy              =     -82.24195965 Ry
     estimated scf accuracy    <       0.00194263 Ry
     electrostatic embedding   =       0.21025386 Ry
     cavitation energy         =       0.00183670 Ry
     PV energy                 =       0.00496237 Ry
     correction to one-el term =       4.07494763 Ry

     iteration #  7     ecut=    30.00 Ry     beta= 0.70
     Davidson diagonalization with overlap
     ethr =  8.09E-06,  avg # of iterations =  5.0

     the potential shift due to the Gaussian-smeared nuclei is    -0.0198 ev

     total cpu time spent up to now is      276.0 secs

     End of self-consistent calculation

          k = 0.0000 0.0000 0.0000 (  1389 PWs)   bands (ev):

   -28.7935 -22.8632 -18.3701 -16.2787 -14.5722 -13.5233 -11.5076 -10.4407
    -9.6937  -9.3595  -8.7022  -7.0322

     highest occupied level (ev):    -7.0322

!    total energy              =     -81.28061245 Ry
     estimated scf accuracy    <       0.00039289 Ry

     The total energy is the sum of the following terms:
     one-electron contribution =    -122.08766635 Ry
     hartree contribution      =      63.39000540 Ry
     xc contribution           =     -23.04697812 Ry
     ewald contribution        =      -4.85220152 Ry
     electrostatic embedding   =       0.20946632 Ry
     cavitation energy         =       0.00183799 Ry
     PV energy                 =       0.00493697 Ry
     correction to one-el term =       5.09998686 Ry

     convergence has been achieved in   7 iterations
 forces lc
       1   -0.0107    0.0005   -0.0020
       2   -0.0009   -0.0002   -0.0051
       3   13.2828    0.1236  -12.1464
       4    0.0457   -0.0467    0.1734
       5   -0.0517    0.0037    0.0264
       6    0.0182    0.0487    0.0753
       7-3273.8473 -883.1802-2607.6388
       8    0.0261    0.0059    0.0114
       9    0.0213   -0.0006    0.1650
      10    0.0889    0.0097    0.0683

     Forces acting on atoms (cartesian axes, Ry/au):

     atom    1 type  1   force =   326.28592137   88.30405733  262.06741791
     atom    2 type  1   force =   326.03369371   88.30335030  261.67945211
     atom    3 type  3   force =   339.16327749   88.42644320  249.93020956
     atom    4 type  2   force =   326.08456735   88.23312244  262.05319760
     atom    5 type  2   force =   325.96274614   88.30734102  261.90579547
     atom    6 type  2   force =   326.05742288   88.37711673  261.95593666
     atom    7 type  4   force = -2947.81841152 -794.87777622-2345.60612969
     atom    8 type  2   force =   326.07415881   88.30979986  261.92920591
     atom    9 type  2   force =   326.05641856   88.30319316  262.09740865
     atom   10 type  2   force =   326.10020520   88.31335217  261.98750581

     Total force =  4058.404863     Total SCF correction =     0.028502

     Writing output data file ./tmp/pwscf.save/

     init_run     :      8.99s CPU      9.79s WALL (       1 calls)
     electrons    :    253.23s CPU    266.10s WALL (       1 calls)
     forces       :      1.36s CPU      1.47s WALL (       1 calls)

     Called by init_run:
     wfcinit      :      0.01s CPU      0.01s WALL (       1 calls)
     potinit      :      4.02s CPU      4.43s WALL (       1 calls)
     hinit0       :      4.40s CPU      4.59s WALL (       1 calls)

     Called by electrons:
     c_bands      :      0.22s CPU      0.27s WALL (       7 calls)
     sum_band     :      0.84s CPU      0.54s WALL (       7 calls)
     v_of_rho     :      0.59s CPU      0.69s WALL (       8 calls)
     newd         :      0.30s CPU      0.41s WALL (       8 calls)
     mix_rho      :      0.04s CPU      0.06s WALL (       7 calls)

     Called by c_bands:
     init_us_2    :      0.01s CPU      0.01s WALL (      15 calls)
     regterg      :      0.21s CPU      0.26s WALL (       7 calls)

     Called by *egterg:
     rdiaghg      :      0.01s CPU      0.01s WALL (      42 calls)
     h_psi        :      0.17s CPU      0.22s WALL (      43 calls)
     s_psi        :      0.02s CPU      0.00s WALL (      43 calls)
     g_psi        :      0.00s CPU      0.00s WALL (      35 calls)

     Called by h_psi:
     h_psi:calbec :      0.01s CPU      0.01s WALL (      43 calls)
     vloc_psi     :      0.14s CPU      0.14s WALL (      43 calls)
     add_vuspsi   :      0.02s CPU      0.08s WALL (      43 calls)

     General routines
     calbec       :      0.01s CPU      0.01s WALL (      54 calls)
     fft          :    165.47s CPU    170.97s WALL (    1069 calls)
     ffts         :      0.01s CPU      0.01s WALL (      15 calls)
     fftw         :      0.13s CPU      0.13s WALL (     408 calls)
     interpolate  :      0.03s CPU      0.06s WALL (       8 calls)

     Parallel routines
     fft_scatt_xy :     17.75s CPU     17.80s WALL (     977 calls)
     fft_scatt_yz :     24.27s CPU     24.33s WALL (     977 calls)

     Environ routines
     calc_eelect  :      0.05s CPU      0.05s WALL (      14 calls)
     calc_velect  :    211.78s CPU    220.85s WALL (      12 calls)
     dielectric   :      1.42s CPU      1.68s WALL (       9 calls)
     calc_felect  :      1.24s CPU      1.34s WALL (       1 calls)

     PWSCF        :   4m23.67s CPU   4m37.58s WALL


   This run was terminated on:  11:42:16  22Apr2021            

=------------------------------------------------------------------------------=
   JOB DONE.
=------------------------------------------------------------------------------=
 Calling electrostatic_initbase now
 electrolyte_distance:    0.0000000000000000     
 sc_distance:    0.0000000000000000     
 velectrostatic started
 vreference created

%%%% IONS %%%%%%%%%%%%%%%%%%%%%%%%%%%%%%%%%%%%%%%%%%%%%%%%%%%%%%%%%%%%%%%%%%%%%%
 number of ions             =         10
 ionic center of charge     =      0.0191059    -0.0000003     0.0127962
 total ionic charge         =    -25.0000000
 ionic dipole               =      0.0000000     0.0000000     0.0000000
 ionic quadrupole (pc)      =    -79.0828051    -5.4513517  -105.8059620
 ionic quadrupole (gauss)   =    -82.2078051    -8.5763517  -108.9309620
 ion   1 type =  1 coordinates =      0.0000000     0.0000000     0.0000000
 ion   2 type =  1 coordinates =      0.0000000     0.0000000     2.9101782
 ion   3 type =  3 coordinates =      2.3419379     0.0000000    -1.0900479
 ion   4 type =  2 coordinates =      0.9532347    -1.6509323     3.5841800
 ion   5 type =  2 coordinates =     -1.9063663    -0.0000596     3.5841809
 ion   6 type =  2 coordinates =      0.9531315     1.6509919     3.5841800
 ion   7 type =  4 coordinates =     -1.9680045    -0.0000375    -1.2826193
 ion   8 type =  2 coordinates =      2.5262613    -0.0000303    -2.9510950
 ion   9 type =  2 coordinates =      3.8892907     0.0002681    -0.0514326
 ion  10 type =  2 coordinates =     -1.5407317    -0.0000890    -3.0457220

%%%% SYSTEM %%%%%%%%%%%%%%%%%%%%%%%%%%%%%%%%%%%%%%%%%%%%%%%%%%%%%%%%%%%%%%%%%%%%
 system is built from all present ionic types
 system defined dimension   =  0 
 system defined axis        =  3 
 system center              =      0.0191059    -0.0000003     0.0127962 
 system width               =      0.4042851 

%%%% IONS %%%%%%%%%%%%%%%%%%%%%%%%%%%%%%%%%%%%%%%%%%%%%%%%%%%%%%%%%%%%%%%%%%%%%%
 number of ions             =         10
 ionic center of charge     =      0.0191059    -0.0000003     0.0127962
 total ionic charge         =    -25.0000000
 ionic dipole               =      0.0000000     0.0000000     0.0000000
 ionic quadrupole (pc)      =    -79.0828051    -5.4513517  -105.8059620
 ionic quadrupole (gauss)   =    -82.2078051    -8.5763517  -108.9309620
 ion   1 type =  1 coordinates =      0.0000000     0.0000000     0.0000000
 ion   2 type =  1 coordinates =      0.0000000     0.0000000     2.9101782
 ion   3 type =  3 coordinates =      2.3419379     0.0000000    -1.0900479
 ion   4 type =  2 coordinates =      0.9532347    -1.6509323     3.5841800
 ion   5 type =  2 coordinates =     -1.9063663    -0.0000596     3.5841809
 ion   6 type =  2 coordinates =      0.9531315     1.6509919     3.5841800
 ion   7 type =  4 coordinates =     -1.9680045    -0.0000375    -1.2826193
 ion   8 type =  2 coordinates =      2.5262613    -0.0000303    -2.9510950
 ion   9 type =  2 coordinates =      3.8892907     0.0002681    -0.0514326
 ion  10 type =  2 coordinates =     -1.5407317    -0.0000890    -3.0457220

%%%% SYSTEM %%%%%%%%%%%%%%%%%%%%%%%%%%%%%%%%%%%%%%%%%%%%%%%%%%%%%%%%%%%%%%%%%%%%
 system is built from all present ionic types
 system defined dimension   =  0 
 system defined axis        =  3 
 system center              =      0.0191059    -0.0000003     0.0127962 
 system width               =      0.4042851 

%%%% ELECTRONS %%%%%%%%%%%%%%%%%%%%%%%%%%%%%%%%%%%%%%%%%%%%%%%%%%%%%%%%%%%%%%%%%
 number of electrons        =         24
 total electronic charge    =     24.0000000

%%%% ELECTRONS %%%%%%%%%%%%%%%%%%%%%%%%%%%%%%%%%%%%%%%%%%%%%%%%%%%%%%%%%%%%%%%%%
 number of electrons        =         24
 total electronic charge    =     24.0000000

%%%% BOUNDARY %%%%%%%%%%%%%%%%%%%%%%%%%%%%%%%%%%%%%%%%%%%%%%%%%%%%%%%%%%%%%%%%%%
 boundary label             = solvent              
 boundary mode              = electronic           
 boundary is built as a function of a smooth density
 function type              =  2 
 using the modified SCCS function with parameters 
 rhomax                     =      0.0035000 
 rhomin                     =      0.0002000 
 volume of the QM region    =    999.8526688 
 surface of the QM region   =      2.2290686 

%%%% DIELECTRIC %%%%%%%%%%%%%%%%%%%%%%%%%%%%%%%%%%%%%%%%%%%%%%%%%%%%%%%%%%%%%%%%%
 dielectric build on homogeneous background
 environment bulk permitt.  =     78.3000000 
 dielectric flags
 need gradient              =  F 
 need factor depend. sqrt   =  T 
 total dielectric charge    =      0.0000000

%%%% DENSITY %%%%%%%%%%%%%%%%%%%%%%%%%%%%%%%%%%%%%%%%%%%%%%%%%%%%%%%%%%%%%%%%%%%
 density label              = dvtot                                                                           
 integral of density        =      0.000000000    

%%%% DENSITY %%%%%%%%%%%%%%%%%%%%%%%%%%%%%%%%%%%%%%%%%%%%%%%%%%%%%%%%%%%%%%%%%%%
 density label              = vreference                                                                      
 integral of density        =      0.000000000    

%%%% DENSITY %%%%%%%%%%%%%%%%%%%%%%%%%%%%%%%%%%%%%%%%%%%%%%%%%%%%%%%%%%%%%%%%%%%
 density label              = velectrostatic                                                                  
 integral of density        =      0.000000000    

%%%% CHARGES %%%%%%%%%%%%%%%%%%%%%%%%%%%%%%%%%%%%%%%%%%%%%%%%%%%%%%%%%%%%%%%%%%%
 total number of charges    =         34
 total charge               =     -1.0000000

%%%% DENSITY %%%%%%%%%%%%%%%%%%%%%%%%%%%%%%%%%%%%%%%%%%%%%%%%%%%%%%%%%%%%%%%%%%%
 density label              = vsoftcavity                                                                     
 integral of density        =      0.000000000    

%%%% ELECTRONS %%%%%%%%%%%%%%%%%%%%%%%%%%%%%%%%%%%%%%%%%%%%%%%%%%%%%%%%%%%%%%%%%
 number of electrons        =         24
 total electronic charge    =     24.0000000

%%%% ELECTRONS %%%%%%%%%%%%%%%%%%%%%%%%%%%%%%%%%%%%%%%%%%%%%%%%%%%%%%%%%%%%%%%%%
 number of electrons        =         24
 total electronic charge    =     24.0000000

%%%% BOUNDARY %%%%%%%%%%%%%%%%%%%%%%%%%%%%%%%%%%%%%%%%%%%%%%%%%%%%%%%%%%%%%%%%%%
 boundary label             = solvent              
 boundary mode              = electronic           
 boundary is built as a function of a smooth density
 function type              =  2 
 using the modified SCCS function with parameters 
 rhomax                     =      0.0035000 
 rhomin                     =      0.0002000 
 volume of the QM region    =    954.4949891 
 surface of the QM region   =    229.3656102 

%%%% DIELECTRIC %%%%%%%%%%%%%%%%%%%%%%%%%%%%%%%%%%%%%%%%%%%%%%%%%%%%%%%%%%%%%%%%%
 dielectric build on homogeneous background
 environment bulk permitt.  =     78.3000000 
 dielectric flags
 need gradient              =  F 
 need factor depend. sqrt   =  T 
 total dielectric charge    =      0.0000000

%%%% DENSITY %%%%%%%%%%%%%%%%%%%%%%%%%%%%%%%%%%%%%%%%%%%%%%%%%%%%%%%%%%%%%%%%%%%
 density label              = vreference                                                                      
 integral of density        =    -0.4497719070E-12

%%%% COMPUTE ELECTROSTATIC POTENTIAL %%%%%%%%%%%%%%%%%%%%%%%%%%%%%%%%%%%%%%%%%%%
 Iteration #          1
  pAp =    102.64339865802752       rzold =    90.206778080959438       alpha =   0.87883662525144335     
 delta_qm =   0.112688E+00 delta_en =   0.740579E+05 tol =   0.100000E-04
 Iteration #          2
  pAp =    30468.580427659796       rzold =    551.87677492197940       alpha =    1.8112979573573374E-002
 delta_qm =   0.241648E-01 delta_en =   0.340554E+04 tol =   0.100000E-04
 Iteration #          3
  pAp =    192.82224653309331       rzold =    8.6229799969491250       alpha =    4.4719839914681203E-002
 delta_qm =   0.133307E-01 delta_en =   0.103639E+04 tol =   0.100000E-04
 Iteration #          4
  pAp =    78.696770032706638       rzold =    3.0380666598924142       alpha =    3.8604718575232295E-002
 delta_qm =   0.786214E-02 delta_en =   0.360495E+03 tol =   0.100000E-04
 Iteration #          5
  pAp =    8.9313069366789488       rzold =   0.70493407080213821       alpha =    7.8928434080249354E-002
 delta_qm =   0.580609E-02 delta_en =   0.196601E+03 tol =   0.100000E-04
 Iteration #          6
  pAp =    4.7337310726922306       rzold =   0.31426095938991594       alpha =    6.6387581923023201E-002
 delta_qm =   0.404422E-02 delta_en =   0.953863E+02 tol =   0.100000E-04
 Iteration #          7
  pAp =    4.6688991395111508       rzold =   0.21821750624067621       alpha =    4.6738535085065966E-002
 delta_qm =   0.301879E-02 delta_en =   0.531474E+02 tol =   0.100000E-04
 Iteration #          8
  pAp =    1.3365396249229904       rzold =    9.8454528781548686E-002  alpha =    7.3663755975227077E-002
 delta_qm =   0.203864E-02 delta_en =   0.242381E+02 tol =   0.100000E-04
 Iteration #          9
  pAp =    1.2172976655825110       rzold =    4.9346936392329926E-002  alpha =    4.0538101556874373E-002
 delta_qm =   0.150845E-02 delta_en =   0.132703E+02 tol =   0.100000E-04
 Iteration #         10
  pAp =   0.33089444410242758       rzold =    2.0643494365928969E-002  alpha =    6.2386947662194131E-002
 delta_qm =   0.987666E-03 delta_en =   0.568902E+01 tol =   0.100000E-04
 Iteration #         11
  pAp =   0.13129961826517983       rzold =    8.6145266103537319E-003  alpha =    6.5609685116946551E-002
 delta_qm =   0.678305E-03 delta_en =   0.268329E+01 tol =   0.100000E-04
 Iteration #         12
  pAp =    3.9371496721514909E-002  rzold =    3.0606454647410506E-003  alpha =    7.7737594950728239E-002
 delta_qm =   0.477949E-03 delta_en =   0.133223E+01 tol =   0.100000E-04
 Iteration #         13
  pAp =    1.5577419677770028E-002  rzold =    1.3936044157601226E-003  alpha =    8.9463110360240544E-002
 delta_qm =   0.338133E-03 delta_en =   0.666794E+00 tol =   0.100000E-04
 Iteration #         14
  pAp =    3.6837068066218124E-003  rzold =    5.1205495221786908E-004  alpha =   0.13900534952928439     
 delta_qm =   0.244365E-03 delta_en =   0.348253E+00 tol =   0.100000E-04
 Iteration #         15
  pAp =    2.8858734935802073E-003  rzold =    2.6353617279307366E-004  alpha =    9.1319378129126286E-002
 delta_qm =   0.182523E-03 delta_en =   0.194290E+00 tol =   0.100000E-04
 Iteration #         16
  pAp =    3.4197922776909619E-003  rzold =    2.1566573219405951E-004  alpha =    6.3063985962234129E-002
 delta_qm =   0.126816E-03 delta_en =   0.937921E-01 tol =   0.100000E-04
 Iteration #         17
  pAp =    4.1276862618624472E-004  rzold =    5.7996271240043668E-005  alpha =   0.14050552188497789     
 delta_qm =   0.761627E-04 delta_en =   0.338300E-01 tol =   0.100000E-04
 Iteration #         18
  pAp =    2.5562327447508363E-004  rzold =    2.4174854054730680E-005  alpha =    9.4572194587418432E-002
 delta_qm =   0.512356E-04 delta_en =   0.153095E-01 tol =   0.100000E-04
 Iteration #         19
  pAp =    1.0735520448909430E-004  rzold =    1.0764149474901566E-005  alpha =   0.10026667571570827     
 delta_qm =   0.351493E-04 delta_en =   0.720529E-02 tol =   0.100000E-04
 Iteration #         20
  pAp =    7.3656920153045000E-005  rzold =    5.4573711500191279E-006  alpha =    7.4091764068871649E-002
 delta_qm =   0.276233E-04 delta_en =   0.445008E-02 tol =   0.100000E-04
 Iteration #         21
  pAp =    4.3623615679339514E-005  rzold =    3.9768774451437146E-006  alpha =    9.1163407324514709E-002
 delta_qm =   0.183873E-04 delta_en =   0.197176E-02 tol =   0.100000E-04
 Iteration #         22
  pAp =    8.2537314182977851E-006  rzold =    1.1190345033723984E-006  alpha =   0.13557922431200012     
 delta_qm =   0.128043E-04 delta_en =   0.956153E-03 tol =   0.100000E-04
 Iteration #         23
  pAp =    5.1281132905293886E-005  rzold =    1.4119671355927849E-006  alpha =    2.7533852229832928E-002
 delta_qm =   0.117016E-04 delta_en =   0.798555E-03 tol =   0.100000E-04
 Iteration #         24
  pAp =    7.5178891560233812E-006  rzold =    6.2081924830248287E-007  alpha =    8.2578930790044774E-002
 delta_qm =   0.842435E-05 delta_en =   0.413895E-03 tol =   0.100000E-04
 Iteration #         25
  pAp =    1.9634650918038821E-006  rzold =    2.1989751415915152E-007  alpha =   0.11199461354167821     
 delta_qm =   0.607553E-05 delta_en =   0.215271E-03 tol =   0.100000E-04
 Iteration #         26
  pAp =    1.2225014890483418E-006  rzold =    1.0907964104204382E-007  alpha =    8.9226591557738738E-002
 delta_qm =   0.472235E-05 delta_en =   0.130057E-03 tol =   0.100000E-04
 Iteration #         27
  pAp =    4.9930121496743930E-007  rzold =    5.7077351666938779E-008  alpha =   0.11431446580930298     
 delta_qm =   0.364249E-05 delta_en =   0.773774E-04 tol =   0.100000E-04
 Iteration #         28
  pAp =    1.6414863294992668E-007  rzold =    2.3815326373439171E-008  alpha =   0.14508391538480861     
 delta_qm =   0.277685E-05 delta_en =   0.449699E-04 tol =   0.100000E-04
 Iteration #         29
  pAp =    1.0503075040383593E-007  rzold =    1.3506897041371356E-008  alpha =   0.12859945291677224     
 delta_qm =   0.211100E-05 delta_en =   0.259893E-04 tol =   0.100000E-04
 Iteration #         30
  pAp =    7.4435972666253071E-008  rzold =    8.4220435521036385E-009  alpha =   0.11314480419118549     
 delta_qm =   0.152394E-05 delta_en =   0.135442E-04 tol =   0.100000E-04
 Iteration #         31
  pAp =    2.1772204183182727E-008  rzold =    3.4891052407313075E-009  alpha =   0.16025503028427229     
 delta_qm =   0.107718E-05 delta_en =   0.676696E-05 tol =   0.100000E-04
 Charges are converged, EXIT

%%%% DENSITY %%%%%%%%%%%%%%%%%%%%%%%%%%%%%%%%%%%%%%%%%%%%%%%%%%%%%%%%%%%%%%%%%%%
 density label              = velectrostatic                                                                  
 integral of density        =     0.8410238073E-11

%%%% CHARGES %%%%%%%%%%%%%%%%%%%%%%%%%%%%%%%%%%%%%%%%%%%%%%%%%%%%%%%%%%%%%%%%%%%
 total number of charges    =         34
 total charge               =     -1.0000000

%%%% DENSITY %%%%%%%%%%%%%%%%%%%%%%%%%%%%%%%%%%%%%%%%%%%%%%%%%%%%%%%%%%%%%%%%%%%
 density label              = vsoftcavity                                                                     
 integral of density        =      39.99399571    

%%%% DENSITY %%%%%%%%%%%%%%%%%%%%%%%%%%%%%%%%%%%%%%%%%%%%%%%%%%%%%%%%%%%%%%%%%%%
 density label              = dvtot                                                                           
 integral of density        =     -201.8446516    

%%%% ELECTRONS %%%%%%%%%%%%%%%%%%%%%%%%%%%%%%%%%%%%%%%%%%%%%%%%%%%%%%%%%%%%%%%%%
 number of electrons        =         24
 total electronic charge    =     24.0000000

%%%% ELECTRONS %%%%%%%%%%%%%%%%%%%%%%%%%%%%%%%%%%%%%%%%%%%%%%%%%%%%%%%%%%%%%%%%%
 number of electrons        =         24
 total electronic charge    =     24.0000000

%%%% BOUNDARY %%%%%%%%%%%%%%%%%%%%%%%%%%%%%%%%%%%%%%%%%%%%%%%%%%%%%%%%%%%%%%%%%%
 boundary label             = solvent              
 boundary mode              = electronic           
 boundary is built as a function of a smooth density
 function type              =  2 
 using the modified SCCS function with parameters 
 rhomax                     =      0.0035000 
 rhomin                     =      0.0002000 
 volume of the QM region    =    788.8016895 
 surface of the QM region   =    588.4958056 

%%%% DIELECTRIC %%%%%%%%%%%%%%%%%%%%%%%%%%%%%%%%%%%%%%%%%%%%%%%%%%%%%%%%%%%%%%%%%
 dielectric build on homogeneous background
 environment bulk permitt.  =     78.3000000 
 dielectric flags
 need gradient              =  F 
 need factor depend. sqrt   =  T 
 total dielectric charge    =      0.4778982

%%%% DENSITY %%%%%%%%%%%%%%%%%%%%%%%%%%%%%%%%%%%%%%%%%%%%%%%%%%%%%%%%%%%%%%%%%%%
 density label              = vreference                                                                      
 integral of density        =     0.3243989439E-12

%%%% COMPUTE ELECTROSTATIC POTENTIAL %%%%%%%%%%%%%%%%%%%%%%%%%%%%%%%%%%%%%%%%%%%
 Warning: bad guess with residual norm =   0.648382E+05, reset to no guess
 Iteration #          1
  pAp =    100.82865418439397       rzold =    92.899562420921725       alpha =   0.92136072996698304     
 delta_qm =   0.971947E-01 delta_en =   0.550938E+05 tol =   0.100000E-04
 Iteration #          2
  pAp =    6301.2138584918730       rzold =    206.98646177165151       alpha =    3.2848664784278794E-002
 delta_qm =   0.146533E-01 delta_en =   0.125224E+04 tol =   0.100000E-04
 Iteration #          3
  pAp =    25.645774654471765       rzold =    1.7447641249990222       alpha =    6.8033200342216757E-002
 delta_qm =   0.993272E-02 delta_en =   0.575378E+03 tol =   0.100000E-04
 Iteration #          4
  pAp =    7.2264188878800413       rzold =   0.63783778686404835       alpha =    8.8264712682766422E-002
 delta_qm =   0.607890E-02 delta_en =   0.215510E+03 tol =   0.100000E-04
 Iteration #          5
  pAp =    1.4593603988114907       rzold =   0.16478945881161033       alpha =   0.11291896021422505     
 delta_qm =   0.277893E-02 delta_en =   0.450375E+02 tol =   0.100000E-04
 Iteration #          6
  pAp =   0.39705761814443352       rzold =    3.4617120809646684E-002  alpha =    8.7184124489092088E-002
 delta_qm =   0.180746E-02 delta_en =   0.190526E+02 tol =   0.100000E-04
 Iteration #          7
  pAp =   0.19285735311762464       rzold =    1.8419528665680220E-002  alpha =    9.5508563028167556E-002
 delta_qm =   0.950059E-03 delta_en =   0.526404E+01 tol =   0.100000E-04
 Iteration #          8
  pAp =    4.9293879187328027E-002  rzold =    5.1894446370354622E-003  alpha =   0.10527563913796244     
 delta_qm =   0.676152E-03 delta_en =   0.266628E+01 tol =   0.100000E-04
 Iteration #          9
  pAp =    1.8628754063713213E-002  rzold =    2.1309884244657910E-003  alpha =   0.11439242888587620     
 delta_qm =   0.468702E-03 delta_en =   0.128118E+01 tol =   0.100000E-04
 Iteration #         10
  pAp =    5.0310633659694419E-003  rzold =    7.5210384705920029E-004  alpha =   0.14949202431964925     
 delta_qm =   0.281540E-03 delta_en =   0.462273E+00 tol =   0.100000E-04
 Iteration #         11
  pAp =    2.2326312443017634E-003  rzold =    3.1923511832225517E-004  alpha =   0.14298604802607842     
 delta_qm =   0.170354E-03 delta_en =   0.169247E+00 tol =   0.100000E-04
 Iteration #         12
  pAp =    4.3811220972821938E-004  rzold =    7.8768309645692403E-005  alpha =   0.17979026353672251     
 delta_qm =   0.960735E-04 delta_en =   0.538301E-01 tol =   0.100000E-04
 Iteration #         13
  pAp =    1.1928104304422168E-004  rzold =    2.5117511057744701E-005  alpha =   0.21057420707188781     
 delta_qm =   0.694192E-04 delta_en =   0.281046E-01 tol =   0.100000E-04
 Iteration #         14
  pAp =    2.3615156301138034E-004  rzold =    2.1016023423028840E-005  alpha =    8.8993793456349307E-002
 delta_qm =   0.543131E-04 delta_en =   0.172039E-01 tol =   0.100000E-04
 Iteration #         15
  pAp =    2.4115784914319835E-005  rzold =    4.8437721474483243E-006  alpha =   0.20085484111993868     
 delta_qm =   0.400611E-04 delta_en =   0.935972E-02 tol =   0.100000E-04
 Iteration #         16
  pAp =    1.0772862121521155E-005  rzold =    2.0303215563139262E-006  alpha =   0.18846630852704535     
 delta_qm =   0.295206E-04 delta_en =   0.508238E-02 tol =   0.100000E-04
 Iteration #         17
  pAp =    6.5044650255837698E-006  rzold =    1.1002284813371587E-006  alpha =   0.16914972668923131     
 delta_qm =   0.246568E-04 delta_en =   0.354561E-02 tol =   0.100000E-04
 Iteration #         18
  pAp =    2.7777623236409212E-006  rzold =    6.4001922120075132E-007  alpha =   0.23040820150582692     
 delta_qm =   0.171093E-04 delta_en =   0.170719E-02 tol =   0.100000E-04
 Iteration #         19
  pAp =    2.4764640924027143E-006  rzold =    3.9447220986601737E-007  alpha =   0.15928848355854522     
 delta_qm =   0.122928E-04 delta_en =   0.881285E-03 tol =   0.100000E-04
 Iteration #         20
  pAp =    1.1419405764240226E-006  rzold =    2.5515937932372280E-007  alpha =   0.22344365774509237     
 delta_qm =   0.776446E-05 delta_en =   0.351593E-03 tol =   0.100000E-04
 Iteration #         21
  pAp =    6.0220851198314912E-007  rzold =    1.1864239135109160E-007  alpha =   0.19701214610930545     
 delta_qm =   0.447357E-05 delta_en =   0.116715E-03 tol =   0.100000E-04
 Iteration #         22
  pAp =    3.0064656173295254E-007  rzold =    4.8790532378586001E-008  alpha =   0.16228534960570709     
 delta_qm =   0.358178E-05 delta_en =   0.748197E-04 tol =   0.100000E-04
 Iteration #         23
  pAp =    8.8565037488732654E-007  rzold =    4.8949185920959124E-008  alpha =    5.5269197991573704E-002
 delta_qm =   0.267386E-05 delta_en =   0.416959E-04 tol =   0.100000E-04
 Iteration #         24
  pAp =    1.6023396289158301E-007  rzold =    2.0083416563367813E-008  alpha =   0.12533807565476360     
 delta_qm =   0.205785E-05 delta_en =   0.246969E-04 tol =   0.100000E-04
 Iteration #         25
  pAp =    2.7986486939960855E-008  rzold =    5.9670489630719622E-009  alpha =   0.21321178952803244     
 delta_qm =   0.145203E-05 delta_en =   0.122961E-04 tol =   0.100000E-04
 Iteration #         26
  pAp =    8.2361642999636367E-009  rzold =    2.0031812604981475E-009  alpha =   0.24321773917343922     
 delta_qm =   0.985140E-06 delta_en =   0.565997E-05 tol =   0.100000E-04
 Charges are converged, EXIT

%%%% DENSITY %%%%%%%%%%%%%%%%%%%%%%%%%%%%%%%%%%%%%%%%%%%%%%%%%%%%%%%%%%%%%%%%%%%
 density label              = velectrostatic                                                                  
 integral of density        =    -0.2128913460E-10

%%%% CHARGES %%%%%%%%%%%%%%%%%%%%%%%%%%%%%%%%%%%%%%%%%%%%%%%%%%%%%%%%%%%%%%%%%%%
 total number of charges    =         34
 total charge               =     -1.0000000

%%%% DENSITY %%%%%%%%%%%%%%%%%%%%%%%%%%%%%%%%%%%%%%%%%%%%%%%%%%%%%%%%%%%%%%%%%%%
 density label              = vsoftcavity                                                                     
 integral of density        =      39.09527911    

%%%% DENSITY %%%%%%%%%%%%%%%%%%%%%%%%%%%%%%%%%%%%%%%%%%%%%%%%%%%%%%%%%%%%%%%%%%%
 density label              = dvtot                                                                           
 integral of density        =     -189.8931826    

%%%% ELECTRONS %%%%%%%%%%%%%%%%%%%%%%%%%%%%%%%%%%%%%%%%%%%%%%%%%%%%%%%%%%%%%%%%%
 number of electrons        =         24
 total electronic charge    =     24.0000000

%%%% ELECTRONS %%%%%%%%%%%%%%%%%%%%%%%%%%%%%%%%%%%%%%%%%%%%%%%%%%%%%%%%%%%%%%%%%
 number of electrons        =         24
 total electronic charge    =     24.0000000

%%%% BOUNDARY %%%%%%%%%%%%%%%%%%%%%%%%%%%%%%%%%%%%%%%%%%%%%%%%%%%%%%%%%%%%%%%%%%
 boundary label             = solvent              
 boundary mode              = electronic           
 boundary is built as a function of a smooth density
 function type              =  2 
 using the modified SCCS function with parameters 
 rhomax                     =      0.0035000 
 rhomin                     =      0.0002000 
 volume of the QM region    =    590.2054258 
 surface of the QM region   =    285.4967098 

%%%% DIELECTRIC %%%%%%%%%%%%%%%%%%%%%%%%%%%%%%%%%%%%%%%%%%%%%%%%%%%%%%%%%%%%%%%%%
 dielectric build on homogeneous background
 environment bulk permitt.  =     78.3000000 
 dielectric flags
 need gradient              =  F 
 need factor depend. sqrt   =  T 
 total dielectric charge    =      0.5859745

%%%% DENSITY %%%%%%%%%%%%%%%%%%%%%%%%%%%%%%%%%%%%%%%%%%%%%%%%%%%%%%%%%%%%%%%%%%%
 density label              = vreference                                                                      
 integral of density        =    -0.6843908156E-12

%%%% COMPUTE ELECTROSTATIC POTENTIAL %%%%%%%%%%%%%%%%%%%%%%%%%%%%%%%%%%%%%%%%%%%
 Warning: bad guess with residual norm =   0.274458E+05, reset to no guess
 Iteration #          1
  pAp =    99.436928661488679       rzold =    93.399376525016677       alpha =   0.93928259633776978     
 delta_qm =   0.644767E-01 delta_en =   0.242451E+05 tol =   0.100000E-04
 Iteration #          2
  pAp =    2897.6585483089875       rzold =    123.58095525733293       alpha =    4.2648556825113912E-002
 delta_qm =   0.103484E-01 delta_en =   0.624549E+03 tol =   0.100000E-04
 Iteration #          3
  pAp =    16.534531118964200       rzold =    1.2313296998505525       alpha =    7.4470191564022334E-002
 delta_qm =   0.532907E-02 delta_en =   0.165623E+03 tol =   0.100000E-04
 Iteration #          4
  pAp =    1.7077261509618142       rzold =   0.19554771170620003       alpha =   0.11450765194177354     
 delta_qm =   0.265831E-02 delta_en =   0.412126E+02 tol =   0.100000E-04
 Iteration #          5
  pAp =   0.19034257288435888       rzold =    3.2883072028852815E-002  alpha =   0.17275731608834910     
 delta_qm =   0.132870E-02 delta_en =   0.102961E+02 tol =   0.100000E-04
 Iteration #          6
  pAp =   0.11306994903979295       rzold =    1.2680725242481886E-002  alpha =   0.11214938496186225     
 delta_qm =   0.664646E-03 delta_en =   0.257631E+01 tol =   0.100000E-04
 Iteration #          7
  pAp =    3.2026330646499991E-002  rzold =    3.7708558637580647E-003  alpha =   0.11774236347522890     
 delta_qm =   0.436631E-03 delta_en =   0.111185E+01 tol =   0.100000E-04
 Iteration #          8
  pAp =    5.8984892777220596E-003  rzold =    1.2139163840170237E-003  alpha =   0.20580123602188299     
 delta_qm =   0.568638E-03 delta_en =   0.188577E+01 tol =   0.100000E-04
 Iteration #          9
  pAp =    3.7544408715923638E-003  rzold =    6.8054698532909823E-004  alpha =   0.18126453674590942     
 delta_qm =   0.588477E-03 delta_en =   0.201965E+01 tol =   0.100000E-04
 Iteration #         10
  pAp =    6.5498922618413774E-004  rzold =    2.4877134791688644E-004  alpha =   0.37980983193599754     
 delta_qm =   0.513861E-03 delta_en =   0.153996E+01 tol =   0.100000E-04
 Iteration #         11
  pAp =    7.7482224008172576E-004  rzold =    2.4472822465054203E-004  alpha =   0.31585080033935126     
 delta_qm =   0.526113E-03 delta_en =   0.161427E+01 tol =   0.100000E-04
 Iteration #         12
  pAp =    6.5746477225624893E-004  rzold =    2.4386443655346143E-004  alpha =   0.37091635452433719     
 delta_qm =   0.412907E-03 delta_en =   0.994313E+00 tol =   0.100000E-04
 Iteration #         13
  pAp =    1.5002263181360706E-003  rzold =    4.4875718576641623E-004  alpha =   0.29912632536933936     
 delta_qm =   0.342501E-03 delta_en =   0.684135E+00 tol =   0.100000E-04
 Iteration #         14
  pAp =    6.6520390052514410E-004  rzold =    2.2664916421624541E-004  alpha =   0.34072133978366276     
 delta_qm =   0.299253E-03 delta_en =   0.522270E+00 tol =   0.100000E-04
 Iteration #         15
  pAp =    6.5896931113099870E-004  rzold =    1.5604341031792810E-004  alpha =   0.23679920700724058     
 delta_qm =   0.246673E-03 delta_en =   0.354864E+00 tol =   0.100000E-04
 Iteration #         16
  pAp =    6.6859523248392297E-004  rzold =    1.2164126914549537E-004  alpha =   0.18193559157396527     
 delta_qm =   0.235156E-03 delta_en =   0.322501E+00 tol =   0.100000E-04
 Iteration #         17
  pAp =    2.3385719558648168E-004  rzold =    6.7308865698640404E-005  alpha =   0.28782037486526352     
 delta_qm =   0.221056E-03 delta_en =   0.284986E+00 tol =   0.100000E-04
 Iteration #         18
  pAp =    2.2913974801898131E-004  rzold =    7.3522970590318869E-005  alpha =   0.32086519788015316     
 delta_qm =   0.177211E-03 delta_en =   0.183146E+00 tol =   0.100000E-04
 Iteration #         19
  pAp =    1.8715751251554579E-004  rzold =    5.4375989397841474E-005  alpha =   0.29053596976677526     
 delta_qm =   0.141124E-03 delta_en =   0.116150E+00 tol =   0.100000E-04
 Iteration #         20
  pAp =    1.0817116077149461E-004  rzold =    3.2041602415119782E-005  alpha =   0.29621206046596688     
 delta_qm =   0.105235E-03 delta_en =   0.645863E-01 tol =   0.100000E-04
 Iteration #         21
  pAp =    8.7634846919021770E-004  rzold =    5.5921575207851777E-005  alpha =    6.3812030458072946E-002
 delta_qm =   0.805998E-04 delta_en =   0.378866E-01 tol =   0.100000E-04
 Iteration #         22
  pAp =    4.9292645736722857E-005  rzold =    1.1631726599661251E-005  alpha =   0.23597286016635244     
 delta_qm =   0.599572E-04 delta_en =   0.209653E-01 tol =   0.100000E-04
 Iteration #         23
  pAp =    1.7281664117713459E-005  rzold =    5.3423609889111697E-006  alpha =   0.30913463845390482     
 delta_qm =   0.424295E-04 delta_en =   0.104991E-01 tol =   0.100000E-04
 Iteration #         24
  pAp =    8.8821482855660846E-006  rzold =    2.6621909925997011E-006  alpha =   0.29972377256140709     
 delta_qm =   0.299900E-04 delta_en =   0.524531E-02 tol =   0.100000E-04
 Iteration #         25
  pAp =    7.4215194446286728E-006  rzold =    1.7077449733225882E-006  alpha =   0.23010718843545835     
 delta_qm =   0.239787E-04 delta_en =   0.335328E-02 tol =   0.100000E-04
 Iteration #         26
  pAp =    5.7145789373589671E-006  rzold =    1.3528431628706818E-006  alpha =   0.23673540565281048     
 delta_qm =   0.178543E-04 delta_en =   0.185911E-02 tol =   0.100000E-04
 Iteration #         27
  pAp =    1.2656129485358535E-006  rzold =    4.7503763369192934E-007  alpha =   0.37534195129836884     
 delta_qm =   0.126066E-04 delta_en =   0.926860E-03 tol =   0.100000E-04
 Iteration #         28
  pAp =    7.9373029353020335E-007  rzold =    2.4291109037773406E-007  alpha =   0.30603731816428487     
 delta_qm =   0.851579E-05 delta_en =   0.422929E-03 tol =   0.100000E-04
 Iteration #         29
  pAp =    2.4522316105436400E-007  rzold =    9.1314101987893403E-008  alpha =   0.37237144156888918     
 delta_qm =   0.603020E-05 delta_en =   0.212071E-03 tol =   0.100000E-04
 Iteration #         30
  pAp =    1.5178169469838521E-007  rzold =    4.3412030918141212E-008  alpha =   0.28601624856283192     
 delta_qm =   0.474778E-05 delta_en =   0.131462E-03 tol =   0.100000E-04
 Iteration #         31
  pAp =    4.2761253916556493E-007  rzold =    5.4277389529788316E-008  alpha =   0.12693123928429273     
 delta_qm =   0.383447E-05 delta_en =   0.857490E-04 tol =   0.100000E-04
 Iteration #         32
  pAp =    1.6247079409572112E-007  rzold =    3.2962527179408798E-008  alpha =   0.20288278495142106     
 delta_qm =   0.312055E-05 delta_en =   0.567911E-04 tol =   0.100000E-04
 Iteration #         33
  pAp =    5.5920111130115503E-008  rzold =    1.7069680944741434E-008  alpha =   0.30525119853613170     
 delta_qm =   0.261054E-05 delta_en =   0.397446E-04 tol =   0.100000E-04
 Iteration #         34
  pAp =    5.2678299468594756E-008  rzold =    1.1958032108823530E-008  alpha =   0.22700110348004979     
 delta_qm =   0.220239E-05 delta_en =   0.282883E-04 tol =   0.100000E-04
 Iteration #         35
  pAp =    8.4991324787765119E-008  rzold =    1.0857317147951320E-008  alpha =   0.12774618086097042     
 delta_qm =   0.213679E-05 delta_en =   0.266282E-04 tol =   0.100000E-04
 Iteration #         36
  pAp =    2.3387161349135299E-008  rzold =    5.8943981220465198E-009  alpha =   0.25203563758987174     
 delta_qm =   0.165933E-05 delta_en =   0.160578E-04 tol =   0.100000E-04
 Iteration #         37
  pAp =    1.1166799600593203E-008  rzold =    3.4303636127334774E-009  alpha =   0.30719308444930360     
 delta_qm =   0.146752E-05 delta_en =   0.125599E-04 tol =   0.100000E-04
 Iteration #         38
  pAp =    1.4505860361060796E-008  rzold =    3.1540294956336518E-009  alpha =   0.21743139787146010     
 delta_qm =   0.126029E-05 delta_en =   0.926308E-05 tol =   0.100000E-04
 Charges are converged, EXIT

%%%% DENSITY %%%%%%%%%%%%%%%%%%%%%%%%%%%%%%%%%%%%%%%%%%%%%%%%%%%%%%%%%%%%%%%%%%%
 density label              = velectrostatic                                                                  
 integral of density        =     0.4576207043E-11

%%%% CHARGES %%%%%%%%%%%%%%%%%%%%%%%%%%%%%%%%%%%%%%%%%%%%%%%%%%%%%%%%%%%%%%%%%%%
 total number of charges    =         34
 total charge               =     -1.0000000

%%%% DENSITY %%%%%%%%%%%%%%%%%%%%%%%%%%%%%%%%%%%%%%%%%%%%%%%%%%%%%%%%%%%%%%%%%%%
 density label              = vsoftcavity                                                                     
 integral of density        =      32.54412088    

%%%% DENSITY %%%%%%%%%%%%%%%%%%%%%%%%%%%%%%%%%%%%%%%%%%%%%%%%%%%%%%%%%%%%%%%%%%%
 density label              = dvtot                                                                           
 integral of density        =     -182.5169297    

%%%% ELECTRONS %%%%%%%%%%%%%%%%%%%%%%%%%%%%%%%%%%%%%%%%%%%%%%%%%%%%%%%%%%%%%%%%%
 number of electrons        =         24
 total electronic charge    =     24.0000000

%%%% ELECTRONS %%%%%%%%%%%%%%%%%%%%%%%%%%%%%%%%%%%%%%%%%%%%%%%%%%%%%%%%%%%%%%%%%
 number of electrons        =         24
 total electronic charge    =     24.0000000

%%%% BOUNDARY %%%%%%%%%%%%%%%%%%%%%%%%%%%%%%%%%%%%%%%%%%%%%%%%%%%%%%%%%%%%%%%%%%
 boundary label             = solvent              
 boundary mode              = electronic           
 boundary is built as a function of a smooth density
 function type              =  2 
 using the modified SCCS function with parameters 
 rhomax                     =      0.0035000 
 rhomin                     =      0.0002000 
 volume of the QM region    =    590.0644758 
 surface of the QM region   =    286.3845534 

%%%% DIELECTRIC %%%%%%%%%%%%%%%%%%%%%%%%%%%%%%%%%%%%%%%%%%%%%%%%%%%%%%%%%%%%%%%%%
 dielectric build on homogeneous background
 environment bulk permitt.  =     78.3000000 
 dielectric flags
 need gradient              =  F 
 need factor depend. sqrt   =  T 
 total dielectric charge    =      0.6398216

%%%% DENSITY %%%%%%%%%%%%%%%%%%%%%%%%%%%%%%%%%%%%%%%%%%%%%%%%%%%%%%%%%%%%%%%%%%%
 density label              = vreference                                                                      
 integral of density        =    -0.9026030951E-12

%%%% COMPUTE ELECTROSTATIC POTENTIAL %%%%%%%%%%%%%%%%%%%%%%%%%%%%%%%%%%%%%%%%%%%
 Warning: bad guess with residual norm =   0.284008E+05, reset to no guess
 Iteration #          1
  pAp =    99.222978084774084       rzold =    93.220507914048028       alpha =   0.93950524075584918     
 delta_qm =   0.656027E-01 delta_en =   0.250993E+05 tol =   0.100000E-04
 Iteration #          2
  pAp =    2913.8036651638254       rzold =    123.46814740440124       alpha =    4.2373530131948466E-002
 delta_qm =   0.106907E-01 delta_en =   0.666541E+03 tol =   0.100000E-04
 Iteration #          3
  pAp =    16.865047947045447       rzold =    1.2866935977723275       alpha =    7.6293503689548695E-002
 delta_qm =   0.561120E-02 delta_en =   0.183624E+03 tol =   0.100000E-04
 Iteration #          4
  pAp =    1.9047047490663678       rzold =   0.21353549765879251       alpha =   0.11210950031151104     
 delta_qm =   0.271004E-02 delta_en =   0.428322E+02 tol =   0.100000E-04
 Iteration #          5
  pAp =   0.19483399212583641       rzold =    3.3499081645362278E-002  alpha =   0.17193653571357509     
 delta_qm =   0.140444E-02 delta_en =   0.115034E+02 tol =   0.100000E-04
 Iteration #          6
  pAp =   0.10767690058411121       rzold =    1.2765893154610490E-002  alpha =   0.11855739796892170     
 delta_qm =   0.739175E-03 delta_en =   0.318649E+01 tol =   0.100000E-04
 Iteration #          7
  pAp =    3.4694859102563425E-002  rzold =    3.9646523402371067E-003  alpha =   0.11427204037684588     
 delta_qm =   0.586973E-03 delta_en =   0.200934E+01 tol =   0.100000E-04
 Iteration #          8
  pAp =    7.0773550149111769E-003  rzold =    1.4572384119231430E-003  alpha =   0.20590155628097057     
 delta_qm =   0.913322E-03 delta_en =   0.486481E+01 tol =   0.100000E-04
 Iteration #          9
  pAp =    4.1905474792979817E-003  rzold =    8.7735798379585375E-004  alpha =   0.20936595710468658     
 delta_qm =   0.102306E-02 delta_en =   0.610406E+01 tol =   0.100000E-04
 Iteration #         10
  pAp =    1.0149309991177888E-003  rzold =    4.9395570637238281E-004  alpha =   0.48668895402913626     
 delta_qm =   0.101815E-02 delta_en =   0.604558E+01 tol =   0.100000E-04
 Iteration #         11
  pAp =    1.8575432602929557E-003  rzold =    8.3391799684336230E-004  alpha =   0.44893597617309000     
 delta_qm =   0.132273E-02 delta_en =   0.102037E+02 tol =   0.100000E-04
 Iteration #         12
  pAp =    2.7096539012418930E-003  rzold =    1.8009169978752669E-003  alpha =   0.66462989869291711     
 delta_qm =   0.183234E-02 delta_en =   0.195808E+02 tol =   0.100000E-04
 Iteration #         13
  pAp =   -1.6441133639283720E-003  rzold =    1.0053002084131464E-002  alpha =   -6.1145431359497397     
 delta_qm =   0.381024E-01 delta_en =   0.846687E+04 tol =   0.100000E-04
 Iteration #         14
  pAp =    101.53415383425137       rzold =    2.3676026153197354       alpha =    2.3318287747635242E-002
 delta_qm =   0.229864E-02 delta_en =   0.308148E+02 tol =   0.100000E-04
 Iteration #         15
  pAp =    3.6752156520202250E-002  rzold =    6.9354106465249442E-003  alpha =   0.18870758353221059     
 delta_qm =   0.143585E-02 delta_en =   0.120237E+02 tol =   0.100000E-04
 Iteration #         16
  pAp =    1.9871057563934862E-002  rzold =    3.2273892471168918E-003  alpha =   0.16241658184184762     
 delta_qm =   0.113061E-02 delta_en =   0.745490E+01 tol =   0.100000E-04
 Iteration #         17
  pAp =    6.3627119988238917E-003  rzold =    1.6582059070153090E-003  alpha =   0.26061306991764177     
 delta_qm =   0.780633E-03 delta_en =   0.355395E+01 tol =   0.100000E-04
 Iteration #         18
  pAp =    5.5429891441236131E-003  rzold =    1.3163390059836284E-003  alpha =   0.23747818582310271     
 delta_qm =   0.526966E-03 delta_en =   0.161951E+01 tol =   0.100000E-04
 Iteration #         19
  pAp =    2.2912866666976064E-003  rzold =    5.3943077358051456E-004  alpha =   0.23542701200194527     
 delta_qm =   0.364829E-03 delta_en =   0.776239E+00 tol =   0.100000E-04
 Iteration #         20
  pAp =    7.3512541657816985E-004  rzold =    2.3089818959526689E-004  alpha =   0.31409360142932052     
 delta_qm =   0.256420E-03 delta_en =   0.383460E+00 tol =   0.100000E-04
 Iteration #         21
  pAp =    2.4492853423820310E-003  rzold =    1.7123864822961082E-004  alpha =    6.9913719429306742E-002
 delta_qm =   0.233687E-03 delta_en =   0.318485E+00 tol =   0.100000E-04
 Iteration #         22
  pAp =    4.4338742240806187E-004  rzold =    9.0214084082121732E-005  alpha =   0.20346559131552266     
 delta_qm =   0.208264E-03 delta_en =   0.252957E+00 tol =   0.100000E-04
 Iteration #         23
  pAp =    1.3928529285754177E-004  rzold =    4.8774777146089971E-005  alpha =   0.35017894671748184     
 delta_qm =   0.165345E-03 delta_en =   0.159440E+00 tol =   0.100000E-04
 Iteration #         24
  pAp =    1.0401574611302627E-004  rzold =    3.4359244296059132E-005  alpha =   0.33032733581244000     
 delta_qm =   0.139863E-03 delta_en =   0.114083E+00 tol =   0.100000E-04
 Iteration #         25
  pAp =    1.3995551897775165E-004  rzold =    3.4481110544245853E-005  alpha =   0.24637192442355360     
 delta_qm =   0.126030E-03 delta_en =   0.926332E-01 tol =   0.100000E-04
 Iteration #         26
  pAp =    1.0891044959209611E-004  rzold =    2.9361129187013326E-005  alpha =   0.26958964265577812     
 delta_qm =   0.106883E-03 delta_en =   0.666246E-01 tol =   0.100000E-04
 Iteration #         27
  pAp =    2.7858656068182149E-005  rzold =    1.2844119030468781E-005  alpha =   0.46104589535954932     
 delta_qm =   0.884750E-04 delta_en =   0.456519E-01 tol =   0.100000E-04
 Iteration #         28
  pAp =    2.7431488971078243E-005  rzold =    9.2506367244610449E-006  alpha =   0.33722692684360811     
 delta_qm =   0.748589E-04 delta_en =   0.326816E-01 tol =   0.100000E-04
 Iteration #         29
  pAp =    1.2143926418945267E-005  rzold =    5.6999788285268836E-006  alpha =   0.46936868949029270     
 delta_qm =   0.623451E-04 delta_en =   0.226685E-01 tol =   0.100000E-04
 Iteration #         30
  pAp =    1.4846938995482977E-005  rzold =    4.7927672294249637E-006  alpha =   0.32281180860803105     
 delta_qm =   0.487306E-04 delta_en =   0.138491E-01 tol =   0.100000E-04
 Iteration #         31
  pAp =    1.1591719059179053E-005  rzold =    3.9029896126648029E-006  alpha =   0.33670498678745753     
 delta_qm =   0.439614E-04 delta_en =   0.112710E-01 tol =   0.100000E-04
 Iteration #         32
  pAp =    1.0222141677207450E-005  rzold =    2.4217666382875924E-006  alpha =   0.23691382048513987     
 delta_qm =   0.403112E-04 delta_en =   0.947697E-02 tol =   0.100000E-04
 Iteration #         33
  pAp =    2.8006557187265293E-005  rzold =    3.6200084223533139E-006  alpha =   0.12925574529379669     
 delta_qm =   0.382631E-04 delta_en =   0.853841E-02 tol =   0.100000E-04
 Iteration #         34
  pAp =    4.2049659644822440E-006  rzold =    1.5137171299567010E-006  alpha =   0.35998320622390212     
 delta_qm =   0.356883E-04 delta_en =   0.742794E-02 tol =   0.100000E-04
 Iteration #         35
  pAp =    3.6605153590832450E-006  rzold =    1.3277747273945180E-006  alpha =   0.36272890485208936     
 delta_qm =   0.347852E-04 delta_en =   0.705677E-02 tol =   0.100000E-04
 Iteration #         36
  pAp =    9.2635995787519574E-006  rzold =    1.7440319705410108E-006  alpha =   0.18826720171943964     
 delta_qm =   0.372468E-04 delta_en =   0.809088E-02 tol =   0.100000E-04
 Iteration #         37
  pAp =    1.0206436335799225E-005  rzold =    2.1574492133826306E-006  alpha =   0.21138124438354119     
 delta_qm =   0.373009E-04 delta_en =   0.811440E-02 tol =   0.100000E-04
 Iteration #         38
  pAp =    5.8815233530966709E-006  rzold =    1.7060230561450720E-006  alpha =   0.29006482737959999     
 delta_qm =   0.425328E-04 delta_en =   0.105503E-01 tol =   0.100000E-04
 Iteration #         39
  pAp =    9.1971773556070464E-006  rzold =    1.5833319862059130E-006  alpha =   0.17215412131208244     
 delta_qm =   0.457366E-04 delta_en =   0.121996E-01 tol =   0.100000E-04
 Iteration #         40
  pAp =    2.3953102030566761E-005  rzold =    3.4905826526597851E-006  alpha =   0.14572570384434644     
 delta_qm =   0.499912E-04 delta_en =   0.145749E-01 tol =   0.100000E-04
 Iteration #         41
  pAp =    2.4552840074619041E-006  rzold =    1.9725748916033721E-006  alpha =   0.80339988596369261     
 delta_qm =   0.831337E-04 delta_en =   0.403062E-01 tol =   0.100000E-04
 Iteration #         42
  pAp =    1.0618813517308069E-005  rzold =    6.9450843712546807E-006  alpha =   0.65403581670726052     
 delta_qm =   0.194082E-03 delta_en =   0.219678E+00 tol =   0.100000E-04
 Iteration #         43
  pAp =   -9.0586191302023366E-005  rzold =    3.7965869254665752E-005  alpha =  -0.41911320819399250     
 delta_qm =   0.191487E-03 delta_en =   0.213843E+00 tol =   0.100000E-04
 Iteration #         44
  pAp =    1.8377399299913060E-004  rzold =    3.0768053569656063E-005  alpha =   0.16742332833678822     
 delta_qm =   0.651456E-04 delta_en =   0.247507E-01 tol =   0.100000E-04
 Iteration #         45
  pAp =    1.3586849612138559E-005  rzold =    3.6910469459372435E-006  alpha =   0.27166319281547385     
 delta_qm =   0.370380E-04 delta_en =   0.800043E-02 tol =   0.100000E-04
 Iteration #         46
  pAp =    2.9202330385749382E-006  rzold =    1.1924753006328361E-006  alpha =   0.40834936283535755     
 delta_qm =   0.241239E-04 delta_en =   0.339401E-02 tol =   0.100000E-04
 Iteration #         47
  pAp =    1.3182070323264760E-006  rzold =    5.0131212348862621E-007  alpha =   0.38029847451494092     
 delta_qm =   0.167107E-04 delta_en =   0.162856E-02 tol =   0.100000E-04
 Iteration #         48
  pAp =    5.1881408667608251E-007  rzold =    2.1575806476667272E-007  alpha =   0.41586778444853517     
 delta_qm =   0.114221E-04 delta_en =   0.760870E-03 tol =   0.100000E-04
 Iteration #         49
  pAp =    5.7656997769893649E-007  rzold =    1.0819908663591922E-007  alpha =   0.18765993863873498     
 delta_qm =   0.939735E-05 delta_en =   0.515025E-03 tol =   0.100000E-04
 Iteration #         50
  pAp =    4.5110609575914025E-007  rzold =    9.5989739257538429E-008  alpha =   0.21278750200881874     
 delta_qm =   0.698391E-05 delta_en =   0.284456E-03 tol =   0.100000E-04
 Iteration #         51
  pAp =    1.2713176806560324E-007  rzold =    4.4524547696839124E-008  alpha =   0.35022361738777458     
 delta_qm =   0.520303E-05 delta_en =   0.157881E-03 tol =   0.100000E-04
 Iteration #         52
  pAp =    7.5220966165004167E-008  rzold =    2.1796776355200015E-008  alpha =   0.28976995997880117     
 delta_qm =   0.388246E-05 delta_en =   0.879084E-04 tol =   0.100000E-04
 Iteration #         53
  pAp =    5.1946398627013540E-008  rzold =    1.6010846980466091E-008  alpha =   0.30821861387210808     
 delta_qm =   0.239301E-05 delta_en =   0.333968E-04 tol =   0.100000E-04
 Iteration #         54
  pAp =    2.1434587549006347E-008  rzold =    5.7430673886617209E-009  alpha =   0.26793458822248040     
 delta_qm =   0.182508E-05 delta_en =   0.194258E-04 tol =   0.100000E-04
 Iteration #         55
  pAp =    5.4382662392880903E-008  rzold =    6.7340222392843018E-009  alpha =   0.12382663781032235     
 delta_qm =   0.138997E-05 delta_en =   0.112675E-04 tol =   0.100000E-04
 Iteration #         56
  pAp =    5.6822982283551690E-008  rzold =    4.4647669268676559E-009  alpha =    7.8573259400361556E-002
 delta_qm =   0.126955E-05 delta_en =   0.939984E-05 tol =   0.100000E-04
 Charges are converged, EXIT

%%%% DENSITY %%%%%%%%%%%%%%%%%%%%%%%%%%%%%%%%%%%%%%%%%%%%%%%%%%%%%%%%%%%%%%%%%%%
 density label              = velectrostatic                                                                  
 integral of density        =    -0.1026322476E-10

%%%% CHARGES %%%%%%%%%%%%%%%%%%%%%%%%%%%%%%%%%%%%%%%%%%%%%%%%%%%%%%%%%%%%%%%%%%%
 total number of charges    =         34
 total charge               =     -1.0000000

%%%% DENSITY %%%%%%%%%%%%%%%%%%%%%%%%%%%%%%%%%%%%%%%%%%%%%%%%%%%%%%%%%%%%%%%%%%%
 density label              = vsoftcavity                                                                     
 integral of density        =      46.54699457    

%%%% DENSITY %%%%%%%%%%%%%%%%%%%%%%%%%%%%%%%%%%%%%%%%%%%%%%%%%%%%%%%%%%%%%%%%%%%
 density label              = dvtot                                                                           
 integral of density        =     -166.7639571    

%%%% ELECTRONS %%%%%%%%%%%%%%%%%%%%%%%%%%%%%%%%%%%%%%%%%%%%%%%%%%%%%%%%%%%%%%%%%
 number of electrons        =         24
 total electronic charge    =     24.0000000

%%%% ELECTRONS %%%%%%%%%%%%%%%%%%%%%%%%%%%%%%%%%%%%%%%%%%%%%%%%%%%%%%%%%%%%%%%%%
 number of electrons        =         24
 total electronic charge    =     24.0000000

%%%% BOUNDARY %%%%%%%%%%%%%%%%%%%%%%%%%%%%%%%%%%%%%%%%%%%%%%%%%%%%%%%%%%%%%%%%%%
 boundary label             = solvent              
 boundary mode              = electronic           
 boundary is built as a function of a smooth density
 function type              =  2 
 using the modified SCCS function with parameters 
 rhomax                     =      0.0035000 
 rhomin                     =      0.0002000 
 volume of the QM region    =    583.9916234 
 surface of the QM region   =    285.9541624 

%%%% DIELECTRIC %%%%%%%%%%%%%%%%%%%%%%%%%%%%%%%%%%%%%%%%%%%%%%%%%%%%%%%%%%%%%%%%%
 dielectric build on homogeneous background
 environment bulk permitt.  =     78.3000000 
 dielectric flags
 need gradient              =  F 
 need factor depend. sqrt   =  T 
 total dielectric charge    =      0.7199107

%%%% DENSITY %%%%%%%%%%%%%%%%%%%%%%%%%%%%%%%%%%%%%%%%%%%%%%%%%%%%%%%%%%%%%%%%%%%
 density label              = vreference                                                                      
 integral of density        =    -0.1929814333E-12

%%%% COMPUTE ELECTROSTATIC POTENTIAL %%%%%%%%%%%%%%%%%%%%%%%%%%%%%%%%%%%%%%%%%%%
 Warning: bad guess with residual norm =   0.328486E+05, reset to no guess
 Iteration #          1
  pAp =    99.199887032413713       rzold =    93.102324219575294       alpha =   0.93853256293683041     
 delta_qm =   0.704753E-01 delta_en =   0.289662E+05 tol =   0.100000E-04
 Iteration #          2
  pAp =    3047.3831959309218       rzold =    127.14828287598691       alpha =    4.1723759271812010E-002
 delta_qm =   0.113307E-01 delta_en =   0.748735E+03 tol =   0.100000E-04
 Iteration #          3
  pAp =    19.053079996304621       rzold =    1.4215110432851492       alpha =    7.4607939690635519E-002
 delta_qm =   0.631988E-02 delta_en =   0.232936E+03 tol =   0.100000E-04
 Iteration #          4
  pAp =    1.9920372356462843       rzold =   0.22469553533025577       alpha =   0.11279685505344328     
 delta_qm =   0.297661E-02 delta_en =   0.516726E+02 tol =   0.100000E-04
 Iteration #          5
  pAp =   0.19125188423451731       rzold =    3.3752856347792404E-002  alpha =   0.17648378463243741     
 delta_qm =   0.167368E-02 delta_en =   0.163366E+02 tol =   0.100000E-04
 Iteration #          6
  pAp =    9.5877658520578501E-002  rzold =    1.2316834020179383E-002  alpha =   0.12846406775292479     
 delta_qm =   0.135405E-02 delta_en =   0.106927E+02 tol =   0.100000E-04
 Iteration #          7
  pAp =    3.4371120602372351E-002  rzold =    4.4088341182332352E-003  alpha =   0.12827146863314459     
 delta_qm =   0.153428E-02 delta_en =   0.137286E+02 tol =   0.100000E-04
 Iteration #          8
  pAp =    1.0933255551652544E-002  rzold =    2.6089707813600300E-003  alpha =   0.23862707397941396     
 delta_qm =   0.265573E-02 delta_en =   0.411326E+02 tol =   0.100000E-04
 Iteration #          9
  pAp =    7.0887143173502219E-003  rzold =    2.7567212075675046E-003  alpha =   0.38888874401669687     
 delta_qm =   0.392194E-02 delta_en =   0.897055E+02 tol =   0.100000E-04
 Iteration #         10
  pAp =   -4.3500396846828156E-003  rzold =    6.5273861170322602E-003  alpha =   -1.5005348433983785     
 delta_qm =   0.804170E-02 delta_en =   0.377150E+03 tol =   0.100000E-04
 Iteration #         11
  pAp =    1.2101756336027245       rzold =    8.7085988989933305E-002  alpha =    7.1961446398219109E-002
 delta_qm =   0.137712E-02 delta_en =   0.110601E+02 tol =   0.100000E-04
 Iteration #         12
  pAp =    1.9438885808353051E-002  rzold =    3.4209026050752824E-003  alpha =   0.17598244255364123     
 delta_qm =   0.735375E-03 delta_en =   0.315381E+01 tol =   0.100000E-04
 Iteration #         13
  pAp =    6.9678103147779741E-003  rzold =    1.0497689349754876E-003  alpha =   0.15065980380508365     
 delta_qm =   0.622265E-03 delta_en =   0.225823E+01 tol =   0.100000E-04
 Iteration #         14
  pAp =    1.0330061275451740E-003  rzold =    3.3520706967844158E-004  alpha =   0.32449669052305091     
 delta_qm =   0.525782E-03 delta_en =   0.161224E+01 tol =   0.100000E-04
 Iteration #         15
  pAp =    5.6392152176998258E-004  rzold =    1.9462006393423717E-004  alpha =   0.34511905721097935     
 delta_qm =   0.514982E-03 delta_en =   0.154668E+01 tol =   0.100000E-04
 Iteration #         16
  pAp =    1.5628824844268951E-003  rzold =    3.1567355393967677E-004  alpha =   0.20198163143112671     
 delta_qm =   0.450959E-03 delta_en =   0.118602E+01 tol =   0.100000E-04
 Iteration #         17
  pAp =    8.2619639469804233E-004  rzold =    2.6105531237558677E-004  alpha =   0.31597246617252195     
 delta_qm =   0.362221E-03 delta_en =   0.765182E+00 tol =   0.100000E-04
 Iteration #         18
  pAp =    6.9343191583994630E-004  rzold =    1.9198817974225613E-004  alpha =   0.27686666182606118     
 delta_qm =   0.329053E-03 delta_en =   0.631465E+00 tol =   0.100000E-04
 Iteration #         19
  pAp =    4.4267059284786606E-004  rzold =    1.2257265448048445E-004  alpha =   0.27689360093230625     
 delta_qm =   0.316623E-03 delta_en =   0.584659E+00 tol =   0.100000E-04
 Iteration #         20
  pAp =    2.4141514064883918E-004  rzold =    8.7361570348642886E-005  alpha =   0.36187278939442508     
 delta_qm =   0.354398E-03 delta_en =   0.732486E+00 tol =   0.100000E-04
 Iteration #         21
  pAp =    2.0940768708575566E-004  rzold =    8.2534170323630396E-005  alpha =   0.39413152149391434     
 delta_qm =   0.373568E-03 delta_en =   0.813872E+00 tol =   0.100000E-04
 Iteration #         22
  pAp =    3.5172171145667701E-003  rzold =    3.1422053203058954E-004  alpha =    8.9337826410893426E-002
 delta_qm =   0.381858E-03 delta_en =   0.850398E+00 tol =   0.100000E-04
 Iteration #         23
  pAp =    4.0068737139518657E-004  rzold =    1.7451214502504486E-004  alpha =   0.43553193208310148     
 delta_qm =   0.435001E-03 delta_en =   0.110357E+01 tol =   0.100000E-04
 Iteration #         24
  pAp =    5.5792666360479203E-004  rzold =    2.8316422647531601E-004  alpha =   0.50752947465492648     
 delta_qm =   0.674841E-03 delta_en =   0.265596E+01 tol =   0.100000E-04
 Iteration #         25
  pAp =    8.3585162832805102E-004  rzold =    3.4237072917601139E-004  alpha =   0.40960706131643665     
 delta_qm =   0.844368E-03 delta_en =   0.415797E+01 tol =   0.100000E-04
 Iteration #         26
  pAp =    2.1346194223048850E-003  rzold =    7.2178280698487435E-004  alpha =   0.33813184656847134     
 delta_qm =   0.140594E-02 delta_en =   0.115279E+02 tol =   0.100000E-04
 Iteration #         27
  pAp =    8.7847025619993118E-004  rzold =    1.0877480993930267E-003  alpha =    1.2382298566355399     
 delta_qm =   0.483171E-02 delta_en =   0.136151E+03 tol =   0.100000E-04
 Iteration #         28
  pAp =   -5.6409955006411917E-002  rzold =    1.1434858196800851E-002  alpha =  -0.20270993294536560     
 delta_qm =   0.177317E-02 delta_en =   0.183365E+02 tol =   0.100000E-04
 Iteration #         29
  pAp =    7.1257920580531505E-003  rzold =    1.6819446419703698E-003  alpha =   0.23603616668402988     
 delta_qm =   0.981351E-03 delta_en =   0.561650E+01 tol =   0.100000E-04
 Iteration #         30
  pAp =    1.6011440650383754E-003  rzold =    5.5640016981144222E-004  alpha =   0.34750162834229831     
 delta_qm =   0.731432E-03 delta_en =   0.312008E+01 tol =   0.100000E-04
 Iteration #         31
  pAp =    1.5326750572207386E-003  rzold =    3.6207765243474326E-004  alpha =   0.23623901930740182     
 delta_qm =   0.676302E-03 delta_en =   0.266747E+01 tol =   0.100000E-04
 Iteration #         32
  pAp =    3.1221939957079008E-003  rzold =    5.4146918769585174E-004  alpha =   0.17342586285163983     
 delta_qm =   0.591605E-03 delta_en =   0.204118E+01 tol =   0.100000E-04
 Iteration #         33
  pAp =    1.8594010441419675E-003  rzold =    5.1010689797932379E-004  alpha =   0.27433936298272643     
 delta_qm =   0.552542E-03 delta_en =   0.178052E+01 tol =   0.100000E-04
 Iteration #         34
  pAp =    7.8529290666475330E-004  rzold =    3.2505892918468311E-004  alpha =   0.41393335712817397     
 delta_qm =   0.599814E-03 delta_en =   0.209822E+01 tol =   0.100000E-04
 Iteration #         35
  pAp =    5.9325661592499997E-003  rzold =    8.1307671019059614E-004  alpha =   0.13705312142585294     
 delta_qm =   0.676975E-03 delta_en =   0.267277E+01 tol =   0.100000E-04
 Iteration #         36
  pAp =    1.2592556831323815E-003  rzold =    5.3393825989610547E-004  alpha =   0.42401099875756865     
 delta_qm =   0.878521E-03 delta_en =   0.450114E+01 tol =   0.100000E-04
 Iteration #         37
  pAp =    2.1057133868247458E-003  rzold =    9.1747038418602152E-004  alpha =   0.43570525311115416     
 delta_qm =   0.119866E-02 delta_en =   0.837934E+01 tol =   0.100000E-04
 Iteration #         38
  pAp =    2.2766078186082198E-003  rzold =    1.6362287862291421E-003  alpha =   0.71871350561794756     
 delta_qm =   0.225242E-02 delta_en =   0.295881E+02 tol =   0.100000E-04
 Iteration #         39
  pAp =    4.1993973209664553E-003  rzold =    5.4473555086223726E-003  alpha =    1.2971755450300451     
 delta_qm =   0.800317E-02 delta_en =   0.373544E+03 tol =   0.100000E-04
 Iteration #         40
  pAp =    9.7871315925993796E-002  rzold =    6.7246735525617482E-002  alpha =   0.68709340310154465     
 delta_qm =   0.399423E-01 delta_en =   0.930428E+04 tol =   0.100000E-04
 Iteration #         41
  pAp =   -126.85445192970340       rzold =    2.8918745837680699       alpha =   -2.2796792227446672E-002
 delta_qm =   0.625627E-02 delta_en =   0.228270E+03 tol =   0.100000E-04
 Iteration #         42
  pAp =   0.24640541113782866       rzold =    3.4502314118073321E-002  alpha =   0.14002255047383760     
 delta_qm =   0.246808E-02 delta_en =   0.355251E+02 tol =   0.100000E-04
 Iteration #         43
  pAp =    2.7614324829700360E-002  rzold =    6.1205523204183208E-003  alpha =   0.22164410530274531     
 delta_qm =   0.137668E-02 delta_en =   0.110531E+02 tol =   0.100000E-04
 Iteration #         44
  pAp =    4.5138141265784167E-003  rzold =    1.8159410083074322E-003  alpha =   0.40230744053343653     
 delta_qm =   0.836724E-03 delta_en =   0.408302E+01 tol =   0.100000E-04
 Iteration #         45
  pAp =    2.3138716517057847E-003  rzold =    7.9487240336149065E-004  alpha =   0.34352484623575003     
 delta_qm =   0.623344E-03 delta_en =   0.226607E+01 tol =   0.100000E-04
 Iteration #         46
  pAp =    1.3453116435596011E-003  rzold =    4.3613297939830160E-004  alpha =   0.32418732231018538     
 delta_qm =   0.455171E-03 delta_en =   0.120828E+01 tol =   0.100000E-04
 Iteration #         47
  pAp =    3.4773371846122083E-004  rzold =    1.5576160431215666E-004  alpha =   0.44793356537705775     
 delta_qm =   0.345308E-03 delta_en =   0.695393E+00 tol =   0.100000E-04
 Iteration #         48
  pAp =    3.0921020976599329E-004  rzold =    9.4636812817997960E-005  alpha =   0.30605979307610187     
 delta_qm =   0.274697E-03 delta_en =   0.440073E+00 tol =   0.100000E-04
 Iteration #         49
  pAp =    7.7287468766478460E-004  rzold =    1.1081201438012382E-004  alpha =   0.14337643106793765     
 delta_qm =   0.214061E-03 delta_en =   0.267235E+00 tol =   0.100000E-04
 Iteration #         50
  pAp =    1.1667372429919901E-004  rzold =    4.6253210920006212E-005  alpha =   0.39643211183860144     
 delta_qm =   0.165481E-03 delta_en =   0.159704E+00 tol =   0.100000E-04
 Iteration #         51
  pAp =    7.6771483722701055E-005  rzold =    2.3368325816575367E-005  alpha =   0.30438809677017398     
 delta_qm =   0.137836E-03 delta_en =   0.110801E+00 tol =   0.100000E-04
 Iteration #         52
  pAp =    4.8690947883126851E-005  rzold =    1.5760599426043840E-005  alpha =   0.32368643682752068     
 delta_qm =   0.117447E-03 delta_en =   0.804450E-01 tol =   0.100000E-04
 Iteration #         53
  pAp =    3.2575727261397106E-005  rzold =    1.1209592893952762E-005  alpha =   0.34410875324451640     
 delta_qm =   0.113362E-03 delta_en =   0.749462E-01 tol =   0.100000E-04
 Iteration #         54
  pAp =    5.3341619672162070E-005  rzold =    1.1082027976913659E-005  alpha =   0.20775574579519468     
 delta_qm =   0.110866E-03 delta_en =   0.716825E-01 tol =   0.100000E-04
 Iteration #         55
  pAp =    3.1152024342000159E-005  rzold =    1.0746441807331361E-005  alpha =   0.34496768779301007     
 delta_qm =   0.109774E-03 delta_en =   0.702782E-01 tol =   0.100000E-04
 Iteration #         56
  pAp =    3.1875651791513819E-004  rzold =    2.3904849544182496E-005  alpha =    7.4994072907229550E-002
 delta_qm =   0.119262E-03 delta_en =   0.829511E-01 tol =   0.100000E-04
 Iteration #         57
  pAp =    2.7550653840505019E-005  rzold =    1.1871736903863425E-005  alpha =   0.43090581343697831     
 delta_qm =   0.133992E-03 delta_en =   0.104707E+00 tol =   0.100000E-04
 Iteration #         58
  pAp =    3.2709871721525281E-005  rzold =    1.2272430884073334E-005  alpha =   0.37519043145611769     
 delta_qm =   0.146393E-03 delta_en =   0.124985E+00 tol =   0.100000E-04
 Iteration #         59
  pAp =    1.6800034964962592E-004  rzold =    2.7956470532385649E-005  alpha =   0.16640721635812322     
 delta_qm =   0.165249E-03 delta_en =   0.159255E+00 tol =   0.100000E-04
 Iteration #         60
  pAp =    1.0130330526592680E-004  rzold =    2.9384493099955875E-005  alpha =   0.29006450503090647     
 delta_qm =   0.192293E-03 delta_en =   0.215648E+00 tol =   0.100000E-04
 Iteration #         61
  pAp =    4.3795156936330898E-005  rzold =    2.8798310456696779E-005  alpha =   0.65756838132955131     
 delta_qm =   0.272091E-03 delta_en =   0.431762E+00 tol =   0.100000E-04
 Iteration #         62
  pAp =    4.9971469503732821E-004  rzold =    7.6310475333130014E-005  alpha =   0.15270808741662018     
 delta_qm =   0.310027E-03 delta_en =   0.560554E+00 tol =   0.100000E-04
 Iteration #         63
  pAp =    1.5030039487515690E-004  rzold =    9.3887312254399343E-005  alpha =   0.62466444171610058     
 delta_qm =   0.504076E-03 delta_en =   0.148187E+01 tol =   0.100000E-04
 Iteration #         64
  pAp =    2.5371015213181901E-004  rzold =    1.6244745815510061E-004  alpha =   0.64028757536946546     
 delta_qm =   0.799188E-03 delta_en =   0.372491E+01 tol =   0.100000E-04
 Iteration #         65
  pAp =    1.5290216578546421E-003  rzold =    6.3899252109777670E-004  alpha =   0.41790939834975388     
 delta_qm =   0.148301E-02 delta_en =   0.128265E+02 tol =   0.100000E-04
 Iteration #         66
  pAp =   -1.4592655456039981E-003  rzold =    1.7997759685195759E-003  alpha =   -1.2333437008372856     
 delta_qm =   0.386060E-02 delta_en =   0.869214E+02 tol =   0.100000E-04
 Iteration #         67
  pAp =    7.5413961308852653E-002  rzold =    9.7156176840928251E-003  alpha =   0.12883049127075008     
 delta_qm =   0.785203E-03 delta_en =   0.359569E+01 tol =   0.100000E-04
 Iteration #         68
  pAp =    1.6255394604911160E-003  rzold =    4.4759435677498472E-004  alpha =   0.27535127116493086     
 delta_qm =   0.434000E-03 delta_en =   0.109849E+01 tol =   0.100000E-04
 Iteration #         69
  pAp =    1.7742535292987523E-004  rzold =    7.8550755817196900E-005  alpha =   0.44272565628342270     
 delta_qm =   0.279226E-03 delta_en =   0.454704E+00 tol =   0.100000E-04
 Iteration #         70
  pAp =    1.7820332871537427E-004  rzold =    4.8831923859097616E-005  alpha =   0.27402363474978514     
 delta_qm =   0.196376E-03 delta_en =   0.224903E+00 tol =   0.100000E-04
 Iteration #         71
  pAp =    5.2114156477488217E-005  rzold =    2.1610589749491295E-005  alpha =   0.41467791498892309     
 delta_qm =   0.141243E-03 delta_en =   0.116346E+00 tol =   0.100000E-04
 Iteration #         72
  pAp =    1.9826428577751244E-004  rzold =    1.9890587372864056E-005  alpha =   0.10032360238184708     
 delta_qm =   0.128838E-03 delta_en =   0.968071E-01 tol =   0.100000E-04
 Iteration #         73
  pAp =    1.3595196707859303E-004  rzold =    1.8347552052794051E-005  alpha =   0.13495613522228361     
 delta_qm =   0.114965E-03 delta_en =   0.770809E-01 tol =   0.100000E-04
 Iteration #         74
  pAp =    6.5861925950181003E-005  rzold =    1.4224700326553603E-005  alpha =   0.21597759435874059     
 delta_qm =   0.105917E-03 delta_en =   0.654263E-01 tol =   0.100000E-04
 Iteration #         75
  pAp =    1.8236115588237328E-005  rzold =    6.2011186481509825E-006  alpha =   0.34004602669610362     
 delta_qm =   0.929403E-04 delta_en =   0.503762E-01 tol =   0.100000E-04
 Iteration #         76
  pAp =    9.1013828449648551E-006  rzold =    4.8151925777760903E-006  alpha =   0.52906164478510997     
 delta_qm =   0.838255E-04 delta_en =   0.409798E-01 tol =   0.100000E-04
 Iteration #         77
  pAp =    6.8562804888709272E-006  rzold =    3.9382752544111729E-006  alpha =   0.57440404615939467     
 delta_qm =   0.818728E-04 delta_en =   0.390928E-01 tol =   0.100000E-04
 Iteration #         78
[...]
 delta_qm =   0.639921E-03 delta_en =   0.238819E+01 tol =   0.100000E-04
 Iteration #         41
  pAp =    2.9600997127127663E-003  rzold =    5.6327798356730371E-004  alpha =   0.19029020581576656     
 delta_qm =   0.645587E-03 delta_en =   0.243068E+01 tol =   0.100000E-04
 Iteration #         42
  pAp =    5.0021747206296463E-004  rzold =    3.1194845161404297E-004  alpha =   0.62362566091009430     
 delta_qm =   0.818613E-03 delta_en =   0.390818E+01 tol =   0.100000E-04
 Iteration #         43
  pAp =    6.5609823822076823E-004  rzold =    5.8273742697491002E-004  alpha =   0.88818623954119924     
 delta_qm =   0.173141E-02 delta_en =   0.174830E+02 tol =   0.100000E-04
 Iteration #         44
  pAp =   -4.7309322983172476E-007  rzold =    2.1680097637730199E-003  alpha =   -4582.6269053652759     
 delta_qm =   0.191390E+02 delta_en =   0.213628E+10 tol =   0.100000E-04
 Iteration #         45
  pAp =    3899097813.7189827       rzold =    196800.38693349049       alpha =    5.0473313657597402E-005
 delta_qm =   0.200512E-02 delta_en =   0.234475E+02 tol =   0.100000E-04
 Iteration #         46
  pAp =    1.4874721094734172E-002  rzold =    2.9413508971248459E-003  alpha =   0.19774158307856401     
 delta_qm =   0.974056E-03 delta_en =   0.553331E+01 tol =   0.100000E-04
 Iteration #         47
  pAp =    2.4650139805557389E-003  rzold =    8.2019800358982609E-004  alpha =   0.33273563965950081     
 delta_qm =   0.601689E-03 delta_en =   0.211136E+01 tol =   0.100000E-04
 Iteration #         48
  pAp =    1.8102238935436728E-003  rzold =    3.4076677827809339E-004  alpha =   0.18824565264742607     
 delta_qm =   0.473885E-03 delta_en =   0.130967E+01 tol =   0.100000E-04
 Iteration #         49
  pAp =    1.7422696544557928E-003  rzold =    3.4807512116670052E-004  alpha =   0.19978257686834569     
 delta_qm =   0.385858E-03 delta_en =   0.868306E+00 tol =   0.100000E-04
 Iteration #         50
  pAp =    2.5079406347622263E-004  rzold =    1.0085213995245925E-004  alpha =   0.40213128873371790     
 delta_qm =   0.288975E-03 delta_en =   0.487009E+00 tol =   0.100000E-04
 Iteration #         51
  pAp =    1.4633604265845422E-004  rzold =    5.9239393656478718E-005  alpha =   0.40481751850254988     
 delta_qm =   0.242548E-03 delta_en =   0.343093E+00 tol =   0.100000E-04
 Iteration #         52
  pAp =    1.3329032243466734E-004  rzold =    4.6421026741227073E-005  alpha =   0.34827004611666751     
 delta_qm =   0.227855E-03 delta_en =   0.302784E+00 tol =   0.100000E-04
 Iteration #         53
  pAp =    1.0460432031042193E-004  rzold =    3.7998514463864370E-005  alpha =   0.36325951309755322     
 delta_qm =   0.219152E-03 delta_en =   0.280098E+00 tol =   0.100000E-04
 Iteration #         54
  pAp =    5.0102075995474124E-005  rzold =    2.7575190794430395E-005  alpha =   0.55038020374487773     
 delta_qm =   0.259027E-03 delta_en =   0.391297E+00 tol =   0.100000E-04
 Iteration #         55
  pAp =    9.0402921823598160E-005  rzold =    4.3168386965692607E-005  alpha =   0.47751097082820421     
 delta_qm =   0.353472E-03 delta_en =   0.728665E+00 tol =   0.100000E-04
 Iteration #         56
  pAp =    2.5886430278602784E-004  rzold =    7.8682570463910027E-005  alpha =   0.30395295765808039     
 delta_qm =   0.426842E-03 delta_en =   0.106255E+01 tol =   0.100000E-04
 Iteration #         57
  pAp =    1.5652465163186902E-003  rzold =    4.1987840383182214E-004  alpha =   0.26825065537876802     
 delta_qm =   0.974964E-03 delta_en =   0.554363E+01 tol =   0.100000E-04
 Iteration #         58
  pAp =   -6.7587153525733659E-004  rzold =    1.0640450559458391E-003  alpha =   -1.5743303282342056     
 delta_qm =   0.752879E-02 delta_en =   0.330573E+03 tol =   0.100000E-04
 Iteration #         59
  pAp =    2.6791941269124795       rzold =    6.0516690750593100E-002  alpha =    2.2587646838541305E-002
 delta_qm =   0.573368E-03 delta_en =   0.191728E+01 tol =   0.100000E-04
 Iteration #         60
  pAp =    1.3933898509551582E-003  rzold =    2.4221725935800854E-004  alpha =   0.17383308712344248     
 delta_qm =   0.338822E-03 delta_en =   0.669514E+00 tol =   0.100000E-04
 Iteration #         61
  pAp =    2.0049505774678814E-003  rzold =    2.0719968050824582E-004  alpha =   0.10334403393121300     
 delta_qm =   0.248720E-03 delta_en =   0.360776E+00 tol =   0.100000E-04
 Iteration #         62
  pAp =    1.0496924161587483E-004  rzold =    4.2047803308152452E-005  alpha =   0.40057261213739620     
 delta_qm =   0.193129E-03 delta_en =   0.217526E+00 tol =   0.100000E-04
 Iteration #         63
  pAp =    1.1429084950326782E-004  rzold =    2.7104201941884628E-005  alpha =   0.23715111104419309     
 delta_qm =   0.170434E-03 delta_en =   0.169406E+00 tol =   0.100000E-04
 Iteration #         64
  pAp =    1.5541299158558828E-004  rzold =    3.2046457588963341E-005  alpha =   0.20620192213026717     
 delta_qm =   0.159842E-03 delta_en =   0.149004E+00 tol =   0.100000E-04
 Iteration #         65
  pAp =    1.4861797952516414E-004  rzold =    2.3948972434668405E-005  alpha =   0.16114451637134081     
 delta_qm =   0.158066E-03 delta_en =   0.145711E+00 tol =   0.100000E-04
 Iteration #         66
  pAp =    1.0347719637082943E-004  rzold =    2.1642733565194175E-005  alpha =   0.20915461883634234     
 delta_qm =   0.145781E-03 delta_en =   0.123942E+00 tol =   0.100000E-04
 Iteration #         67
  pAp =    2.1814148027173881E-005  rzold =    1.0479001807467905E-005  alpha =   0.48037639583330111     
 delta_qm =   0.121317E-03 delta_en =   0.858342E-01 tol =   0.100000E-04
 Iteration #         68
  pAp =    1.5934575445506011E-005  rzold =    8.1895653350046913E-006  alpha =   0.51394939030612041     
 delta_qm =   0.103678E-03 delta_en =   0.626891E-01 tol =   0.100000E-04
 Iteration #         69
  pAp =    1.2552483082201345E-005  rzold =    6.8629046377468854E-006  alpha =   0.54673681635771854     
 delta_qm =   0.109456E-03 delta_en =   0.698707E-01 tol =   0.100000E-04
 Iteration #         70
  pAp =    1.8629321045837807E-005  rzold =    7.2821195755841136E-006  alpha =   0.39089559719682304     
 delta_qm =   0.121866E-03 delta_en =   0.866123E-01 tol =   0.100000E-04
 Iteration #         71
  pAp =    3.0821551382396076E-005  rzold =    9.0197843751901464E-006  alpha =   0.29264537217104047     
 delta_qm =   0.137296E-03 delta_en =   0.109934E+00 tol =   0.100000E-04
 Iteration #         72
  pAp =    3.3843497083477984E-005  rzold =    1.2846291194256225E-005  alpha =   0.37957930773435467     
 delta_qm =   0.166480E-03 delta_en =   0.161637E+00 tol =   0.100000E-04
 Iteration #         73
  pAp =    1.9093675121957116E-005  rzold =    1.7441560467450117E-005  alpha =   0.91347319759268764     
 delta_qm =   0.300952E-03 delta_en =   0.528216E+00 tol =   0.100000E-04
 Iteration #         74
  pAp =    4.5982961055318553E-005  rzold =    4.9765617777355932E-005  alpha =    1.0822621387406253     
 delta_qm =   0.815050E-03 delta_en =   0.387424E+01 tol =   0.100000E-04
 Iteration #         75
  pAp =   -4.0256599507582899E-004  rzold =    6.3297340249168581E-004  alpha =   -1.5723469200930802     
 delta_qm =   0.875758E-02 delta_en =   0.447286E+03 tol =   0.100000E-04
 Iteration #         76
  pAp =    8.0770597116344778       rzold =    8.1999703266027096E-002  alpha =    1.0152172472850718E-002
 delta_qm =   0.773854E-03 delta_en =   0.349249E+01 tol =   0.100000E-04
 Iteration #         77
  pAp =    8.4534054688021557E-003  rzold =    5.8008075402262186E-004  alpha =    6.8620954733976475E-002
 delta_qm =   0.363064E-03 delta_en =   0.768747E+00 tol =   0.100000E-04
 Iteration #         78
  pAp =    2.4532221206768798E-004  rzold =    6.7015388127347991E-005  alpha =   0.27317293270149329     
 delta_qm =   0.184363E-03 delta_en =   0.198229E+00 tol =   0.100000E-04
 Iteration #         79
  pAp =    9.3063097983566085E-005  rzold =    2.2862595568095267E-005  alpha =   0.24566768207235642     
 delta_qm =   0.135059E-03 delta_en =   0.106381E+00 tol =   0.100000E-04
 Iteration #         80
  pAp =    5.0869484758650427E-005  rzold =    1.3825212242143601E-005  alpha =   0.27177810641757294     
 delta_qm =   0.117213E-03 delta_en =   0.801249E-01 tol =   0.100000E-04
 Iteration #         81
  pAp =    2.3046999525959056E-005  rzold =    8.2321233539388359E-006  alpha =   0.35718850710551536     
 delta_qm =   0.104854E-03 delta_en =   0.641188E-01 tol =   0.100000E-04
 Iteration #         82
  pAp =    1.3508357491451198E-005  rzold =    5.3418749111091010E-006  alpha =   0.39544962549960067     
 delta_qm =   0.917608E-04 delta_en =   0.491057E-01 tol =   0.100000E-04
 Iteration #         83
  pAp =    1.7654977753108140E-005  rzold =    5.2426358231527146E-006  alpha =   0.29694944374709020     
 delta_qm =   0.831588E-04 delta_en =   0.403306E-01 tol =   0.100000E-04
 Iteration #         84
  pAp =    1.3798560111014030E-005  rzold =    4.6836452313749677E-006  alpha =   0.33942999803555413     
 delta_qm =   0.734380E-04 delta_en =   0.314528E-01 tol =   0.100000E-04
 Iteration #         85
  pAp =    6.9143834616600643E-006  rzold =    3.3127259794533752E-006  alpha =   0.47910648835464320     
 delta_qm =   0.669271E-04 delta_en =   0.261229E-01 tol =   0.100000E-04
 Iteration #         86
  pAp =    2.2623739910595440E-005  rzold =    3.4760192113729933E-006  alpha =   0.15364476541498159     
 delta_qm =   0.656211E-04 delta_en =   0.251134E-01 tol =   0.100000E-04
 Iteration #         87
  pAp =    1.8543196397550822E-005  rzold =    4.1621877285620048E-006  alpha =   0.22445902202231677     
 delta_qm =   0.639668E-04 delta_en =   0.238631E-01 tol =   0.100000E-04
 Iteration #         88
  pAp =    5.8833344808561214E-006  rzold =    2.2131872402897989E-006  alpha =   0.37617906095451908     
 delta_qm =   0.552067E-04 delta_en =   0.177746E-01 tol =   0.100000E-04
 Iteration #         89
  pAp =    5.4182452302361808E-006  rzold =    1.7320160115236320E-006  alpha =   0.31966364347228587     
 delta_qm =   0.465352E-04 delta_en =   0.126294E-01 tol =   0.100000E-04
 Iteration #         90
  pAp =    6.4929830235640116E-006  rzold =    1.9190355873414824E-006  alpha =   0.29555530645575595     
 delta_qm =   0.409589E-04 delta_en =   0.978395E-02 tol =   0.100000E-04
 Iteration #         91
  pAp =    5.5251872808403148E-006  rzold =    1.2533366053222542E-006  alpha =   0.22684056514580925     
 delta_qm =   0.377451E-04 delta_en =   0.830883E-02 tol =   0.100000E-04
 Iteration #         92
  pAp =    1.6424971692530438E-005  rzold =    1.7676428131690373E-006  alpha =   0.10761923041687224     
 delta_qm =   0.362270E-04 delta_en =   0.765390E-02 tol =   0.100000E-04
 Iteration #         93
  pAp =    7.4559416289450438E-006  rzold =    9.4906961361402989E-007  alpha =   0.12729037603105747     
 delta_qm =   0.325479E-04 delta_en =   0.617821E-02 tol =   0.100000E-04
 Iteration #         94
  pAp =    7.7020820239196593E-006  rzold =    1.2709736557263096E-006  alpha =   0.16501689436429809     
 delta_qm =   0.271556E-04 delta_en =   0.430068E-02 tol =   0.100000E-04
 Iteration #         95
  pAp =    1.0317869920177162E-006  rzold =    3.5689900477834182E-007  alpha =   0.34590376457490146     
 delta_qm =   0.226627E-04 delta_en =   0.299529E-02 tol =   0.100000E-04
 Iteration #         96
  pAp =    1.3301983166203415E-006  rzold =    3.8685359619823612E-007  alpha =   0.29082400072578796     
 delta_qm =   0.186289E-04 delta_en =   0.202392E-02 tol =   0.100000E-04
 Iteration #         97
  pAp =    3.7199370306100948E-007  rzold =    1.5711325853083001E-007  alpha =   0.42235461847337341     
 delta_qm =   0.154844E-04 delta_en =   0.139833E-02 tol =   0.100000E-04
 Iteration #         98
  pAp =    8.8988076831039676E-007  rzold =    2.0561996898104523E-007  alpha =   0.23106462832257044     
 delta_qm =   0.131584E-04 delta_en =   0.100977E-02 tol =   0.100000E-04
 Iteration #         99
  pAp =    1.0946856878098039E-007  rzold =    6.4990518287787135E-008  alpha =   0.59369112989699480     
 delta_qm =   0.103998E-04 delta_en =   0.630767E-03 tol =   0.100000E-04
 Iteration #        100
  pAp =    1.4776127119797532E-007  rzold =    5.2291549369507364E-008  alpha =   0.35389211899405942     
 delta_qm =   0.977162E-05 delta_en =   0.556866E-03 tol =   0.100000E-04
 Iteration #        101
  pAp =    2.9141159854718674E-007  rzold =    6.9091892311706298E-008  alpha =   0.23709383104913928     
 delta_qm =   0.924471E-05 delta_en =   0.498430E-03 tol =   0.100000E-04
 Iteration #        102
  pAp =    2.1998585537503045E-007  rzold =    5.0424239418472256E-008  alpha =   0.22921582541072624     
 delta_qm =   0.938274E-05 delta_en =   0.513425E-03 tol =   0.100000E-04
 Iteration #        103
  pAp =    1.3876341955898753E-007  rzold =    4.8367347277752374E-008  alpha =   0.34855978204826304     
 delta_qm =   0.946946E-05 delta_en =   0.522960E-03 tol =   0.100000E-04
 Iteration #        104
  pAp =    2.5699209112588094E-007  rzold =    5.9321536109089325E-008  alpha =   0.23083020122993669     
 delta_qm =   0.131202E-04 delta_en =   0.100392E-02 tol =   0.100000E-04
 Iteration #        105
  pAp =    1.5029431821834707E-007  rzold =    8.3859301312833663E-008  alpha =   0.55796720931927157     
 delta_qm =   0.263464E-04 delta_en =   0.404819E-02 tol =   0.100000E-04
 Iteration #        106
  pAp =   -5.4722250823739204E-007  rzold =    2.7853117469343196E-007  alpha =  -0.50899071310239608     
 delta_qm =   0.297594E-04 delta_en =   0.516494E-02 tol =   0.100000E-04
 Iteration #        107
  pAp =    1.9457161120362952E-006  rzold =    3.2379278394325261E-007  alpha =   0.16641316887918775     
 delta_qm =   0.112041E-04 delta_en =   0.732102E-03 tol =   0.100000E-04
 Iteration #        108
  pAp =    2.1744531074914454E-007  rzold =    5.1097501162899287E-008  alpha =   0.23499012688228463     
 delta_qm =   0.712783E-05 delta_en =   0.296300E-03 tol =   0.100000E-04
 Iteration #        109
  pAp =    1.5083309083092167E-006  rzold =    1.0224088685473910E-007  alpha =    6.7784122364334065E-002
 delta_qm =   0.544057E-05 delta_en =   0.172626E-03 tol =   0.100000E-04
 Iteration #        110
  pAp =    4.5323509738014012E-008  rzold =    1.4562954633400517E-008  alpha =   0.32131127349977018     
 delta_qm =   0.417041E-05 delta_en =   0.101432E-03 tol =   0.100000E-04
 Iteration #        111
  pAp =    4.1096997596039009E-008  rzold =    1.0977752239272811E-008  alpha =   0.26711810792550117     
 delta_qm =   0.304499E-05 delta_en =   0.540743E-04 tol =   0.100000E-04
 Iteration #        112
  pAp =    5.3632205296336517E-008  rzold =    9.3672278940939555E-009  alpha =   0.17465677277928021     
 delta_qm =   0.253450E-05 delta_en =   0.374630E-04 tol =   0.100000E-04
 Iteration #        113
  pAp =    1.1595343430742162E-008  rzold =    3.2759393411510190E-009  alpha =   0.28252197623277658     
 delta_qm =   0.207210E-05 delta_en =   0.250403E-04 tol =   0.100000E-04
 Iteration #        114
  pAp =    2.7675511995859738E-008  rzold =    3.5126005110656006E-009  alpha =   0.12692088629077888     
 delta_qm =   0.179609E-05 delta_en =   0.188136E-04 tol =   0.100000E-04
 Iteration #        115
  pAp =    1.0999538794043968E-008  rzold =    2.3600328756878861E-009  alpha =   0.21455743916879469     
 delta_qm =   0.154465E-05 delta_en =   0.139148E-04 tol =   0.100000E-04
 Iteration #        116
  pAp =    4.1099063351146913E-009  rzold =    1.4309640676531190E-009  alpha =   0.34817437454160044     
 delta_qm =   0.148330E-05 delta_en =   0.128314E-04 tol =   0.100000E-04
 Iteration #        117
  pAp =    1.0397867674874913E-009  rzold =    9.4573246811874256E-010  alpha =   0.90954462750471554     
 delta_qm =   0.255180E-05 delta_en =   0.379760E-04 tol =   0.100000E-04
 Iteration #        118
  pAp =   -4.3634943079844295E-010  rzold =    2.1727922705624211E-009  alpha =   -4.9794777240492607     
 delta_qm =   0.216501E-04 delta_en =   0.273361E-02 tol =   0.100000E-04
 Iteration #        119
  pAp =    3.8934008356296551E-006  rzold =    1.8580597530788235E-007  alpha =    4.7723310070598761E-002
 delta_qm =   0.258504E-05 delta_en =   0.389720E-04 tol =   0.100000E-04
 Iteration #        120
  pAp =    9.3050551756881937E-008  rzold =    6.8628759189774242E-009  alpha =    7.3754274310037629E-002
 delta_qm =   0.153733E-05 delta_en =   0.137833E-04 tol =   0.100000E-04
 Iteration #        121
  pAp =    3.2090272845402830E-009  rzold =    1.0920547597513374E-009  alpha =   0.34030709711082507     
 delta_qm =   0.995852E-06 delta_en =   0.578372E-05 tol =   0.100000E-04
 Charges are converged, EXIT

%%%% DENSITY %%%%%%%%%%%%%%%%%%%%%%%%%%%%%%%%%%%%%%%%%%%%%%%%%%%%%%%%%%%%%%%%%%%
 density label              = velectrostatic                                                                  
 integral of density        =     0.2960421664E-10

%%%% CHARGES %%%%%%%%%%%%%%%%%%%%%%%%%%%%%%%%%%%%%%%%%%%%%%%%%%%%%%%%%%%%%%%%%%%
 total number of charges    =         34
 total charge               =     -1.0000000

%%%% DENSITY %%%%%%%%%%%%%%%%%%%%%%%%%%%%%%%%%%%%%%%%%%%%%%%%%%%%%%%%%%%%%%%%%%%
 density label              = vsoftcavity                                                                     
 integral of density        =      50.68918657    

%%%% DENSITY %%%%%%%%%%%%%%%%%%%%%%%%%%%%%%%%%%%%%%%%%%%%%%%%%%%%%%%%%%%%%%%%%%%
 density label              = dvtot                                                                           
 integral of density        =     -160.7253688    

%%%% ELECTRONS %%%%%%%%%%%%%%%%%%%%%%%%%%%%%%%%%%%%%%%%%%%%%%%%%%%%%%%%%%%%%%%%%
 number of electrons        =         24
 total electronic charge    =     24.0000000

%%%% ELECTRONS %%%%%%%%%%%%%%%%%%%%%%%%%%%%%%%%%%%%%%%%%%%%%%%%%%%%%%%%%%%%%%%%%
 number of electrons        =         24
 total electronic charge    =     24.0000000

%%%% BOUNDARY %%%%%%%%%%%%%%%%%%%%%%%%%%%%%%%%%%%%%%%%%%%%%%%%%%%%%%%%%%%%%%%%%%
 boundary label             = solvent              
 boundary mode              = electronic           
 boundary is built as a function of a smooth density
 function type              =  2 
 using the modified SCCS function with parameters 
 rhomax                     =      0.0035000 
 rhomin                     =      0.0002000 
 volume of the QM region    =    581.0023558 
 surface of the QM region   =    286.1552667 

%%%% DIELECTRIC %%%%%%%%%%%%%%%%%%%%%%%%%%%%%%%%%%%%%%%%%%%%%%%%%%%%%%%%%%%%%%%%%
 dielectric build on homogeneous background
 environment bulk permitt.  =     78.3000000 
 dielectric flags
 need gradient              =  F 
 need factor depend. sqrt   =  T 
 total dielectric charge    =      0.6710481

%%%% DENSITY %%%%%%%%%%%%%%%%%%%%%%%%%%%%%%%%%%%%%%%%%%%%%%%%%%%%%%%%%%%%%%%%%%%
 density label              = dvtot                                                                           
 integral of density        =     -160.7253688    

%%%% DENSITY %%%%%%%%%%%%%%%%%%%%%%%%%%%%%%%%%%%%%%%%%%%%%%%%%%%%%%%%%%%%%%%%%%%
 density label              = vreference                                                                      
 integral of density        =    -0.3290289851E-12

%%%% DENSITY %%%%%%%%%%%%%%%%%%%%%%%%%%%%%%%%%%%%%%%%%%%%%%%%%%%%%%%%%%%%%%%%%%%
 density label              = velectrostatic                                                                  
 integral of density        =     0.2960421664E-10

%%%% CHARGES %%%%%%%%%%%%%%%%%%%%%%%%%%%%%%%%%%%%%%%%%%%%%%%%%%%%%%%%%%%%%%%%%%%
 total number of charges    =         34
 total charge               =     -1.0000000

%%%% DENSITY %%%%%%%%%%%%%%%%%%%%%%%%%%%%%%%%%%%%%%%%%%%%%%%%%%%%%%%%%%%%%%%%%%%
 density label              = vsoftcavity                                                                     
 integral of density        =      50.68918657    
