
     Program PWSCF v.6.7MaX starts on 25Sep2021 at 14:41:13 

     This program is part of the open-source Quantum ESPRESSO suite
     for quantum simulation of materials; please cite
         "P. Giannozzi et al., J. Phys.:Condens. Matter 21 395502 (2009);
         "P. Giannozzi et al., J. Phys.:Condens. Matter 29 465901 (2017);
          URL http://www.quantum-espresso.org", 
     in publications or presentations arising from this work. More details at
     http://www.quantum-espresso.org/quote

     Parallel version (MPI), running on     1 processors

     MPI processes distributed on     1 nodes
     Waiting for input...
     Reading input from standard input

     Current dimensions of program PWSCF are:
     Max number of different atomic species (ntypx) = 10
     Max number of k-points (npk) =  40000
     Max angular momentum in pseudopotentials (lmaxx) =  3

     Reading input from environ.in

     ================================================================================

     Reading ENVIRON namelist

     Reading BOUNDARY namelist

     Checking boundary derivatives
     derivatives               = chain          ! SCCS default

     Setting up water environment (solvent mode = electronic)
     env_static_permittivity   = 78.3D0         
     env_optical_permittivity  = 1.D0           
     env_surface_tension       = 50.D0          
     env_pressure              = -0.35D0        
     rhomax                    = 0.005          
     rhomin                    = 0.0001         

     Reading ELECTROSTATIC namelist

     Setting up electrostatic problem
     problem                   = generalized    

     Checking PBC correction

     ================================================================================
 
     file H.pbe-rrkjus.UPF: wavefunction(s)  1S renormalized
     file O.pbe-rrkjus.UPF: wavefunction(s)  2S renormalized

     Subspace diagonalization in iterative solution of the eigenvalue problem:
     a serial algorithm will be used

 
     G-vector sticks info
     --------------------
     sticks:   dense  smooth     PW     G-vecs:    dense   smooth      PW
     Sum        9549    3809    949               701475   177509   22119
 


     bravais-lattice index     =            1
     lattice parameter (alat)  =      20.0000  a.u.
     unit-cell volume          =    8000.0000 (a.u.)^3
     number of atoms/cell      =            3
     number of atomic types    =            2
     number of electrons       =         8.00
     number of Kohn-Sham states=            4
     kinetic-energy cutoff     =      30.0000  Ry
     charge density cutoff     =     300.0000  Ry
     scf convergence threshold =      5.0E-09
     mixing beta               =       0.4000
     number of iterations used =            8  plain     mixing
     energy convergence thresh.=      1.0E-04
     force convergence thresh. =      1.0E-03
     Exchange-correlation= SLA  PW   PBE  PBE
                           (   1   4   3   4   0   0   0)
     nstep                     =           50

 

     Environ Module
     ==============

     Please cite
         O. Andreussi, I. Dabo and N. Marzari, J. Chem. Phys. 136, 064102 (2012)         
     in publications or presentations arising from this work.

     compensation onset threshold      =               0.1000E+00
     static permittivity               =                    78.30
     epsilon calculation mode          =               electronic
     surface tension in input (dyn/cm) =                    50.00
     surface tension in internal units =               0.6423E-04
     external pressure in input (GPa)  =                    -0.35
     external pressure in inter. units =              -0.2379E-04

     Electrostatic Setup
     -------------------
     electrostatic problem to solve    = generalized             
     numerical solver adopted          = fixed-point             
     type of auxiliary density adopted = full                    
     type of core tool for poisson     = fft                     
     type of core tool for correction  = 1d-analytic             



     celldm(1)=  20.000000  celldm(2)=   0.000000  celldm(3)=   0.000000
     celldm(4)=   0.000000  celldm(5)=   0.000000  celldm(6)=   0.000000

     crystal axes: (cart. coord. in units of alat)
               a(1) = (   1.000000   0.000000   0.000000 )  
               a(2) = (   0.000000   1.000000   0.000000 )  
               a(3) = (   0.000000   0.000000   1.000000 )  

     reciprocal axes: (cart. coord. in units 2 pi/alat)
               b(1) = (  1.000000  0.000000  0.000000 )  
               b(2) = (  0.000000  1.000000  0.000000 )  
               b(3) = (  0.000000  0.000000  1.000000 )  


     PseudoPot. # 1 for H  read from file:
     /home/simplogic86/Work/QE1/pseudo/H.pbe-rrkjus.UPF
     MD5 check sum: 2d52a7f45632fd764c17cc6affed14c8
     Pseudo is Ultrasoft, Zval =  1.0
     Generated by new atomic code, or converted to UPF format
     Using radial grid of 1061 points,  2 beta functions with: 
                l(1) =   0
                l(2) =   0
     Q(r) pseudized with 0 coefficients 


     PseudoPot. # 2 for O  read from file:
     /home/simplogic86/Work/QE1/pseudo/O.pbe-rrkjus.UPF
     MD5 check sum: fadcf19ee70a498d3030e2e79cf929a4
     Pseudo is Ultrasoft, Zval =  6.0
     Generated by new atomic code, or converted to UPF format
     Using radial grid of 1269 points,  4 beta functions with: 
                l(1) =   0
                l(2) =   0
                l(3) =   1
                l(4) =   1
     Q(r) pseudized with 0 coefficients 


     atomic species   valence    mass     pseudopotential
        H              1.00     1.00000     H ( 1.00)
        O              6.00    16.00000     O ( 1.00)

     No symmetry found


                                    s                        frac. trans.

      isym =  1     identity                                     

 cryst.   s( 1) = (     1          0          0      )
                  (     0          1          0      )
                  (     0          0          1      )

 cart.    s( 1) = (  1.0000000  0.0000000  0.0000000 )
                  (  0.0000000  1.0000000  0.0000000 )
                  (  0.0000000  0.0000000  1.0000000 )


     point group C_1 (1)    
     there are  1 classes
     the character table:

       E    
A      1.00

     the symmetry operations in each class and the name of the first element:

     E        1
          identity                                               

   Cartesian axes

     site n.     atom                  positions (alat units)
         1           O   tau(   1) = (   0.5895000   0.6025000   0.5750000  )
         2           H   tau(   2) = (   0.6725000   0.5610000   0.5750000  )
         3           H   tau(   3) = (   0.5280000   0.5330000   0.5750000  )

   Crystallographic axes

     site n.     atom                  positions (cryst. coord.)
         1           O   tau(   1) = (  0.5895000  0.6025000  0.5750000  )
         2           H   tau(   2) = (  0.6725000  0.5610000  0.5750000  )
         3           H   tau(   3) = (  0.5280000  0.5330000  0.5750000  )

     number of k points=     1
                       cart. coord. in units 2pi/alat
        k(    1) = (   0.0000000   0.0000000   0.0000000), wk =   2.0000000

                       cryst. coord.
        k(    1) = (   0.0000000   0.0000000   0.0000000), wk =   2.0000000

     Dense  grid:   701475 G-vectors     FFT dimensions: ( 120, 120, 120)

     Smooth grid:   177509 G-vectors     FFT dimensions: (  72,  72,  72)

     Dynamical RAM for                 wfc:       1.35 MB

     Dynamical RAM for     wfc (w. buffer):       1.35 MB

     Dynamical RAM for           str. fact:      21.41 MB

     Dynamical RAM for           local pot:       0.00 MB

     Dynamical RAM for          nlocal pot:       4.06 MB

     Dynamical RAM for                qrad:       0.79 MB

     Dynamical RAM for          rho,v,vnew:      71.66 MB

     Dynamical RAM for               rhoin:      23.89 MB

     Dynamical RAM for            rho*nmix:     171.26 MB

     Dynamical RAM for           G-vectors:      41.49 MB

     Dynamical RAM for          h,s,v(r/c):       0.00 MB

     Dynamical RAM for          <psi|beta>:       0.00 MB

     Dynamical RAM for      wfcinit/wfcrot:       4.07 MB

     Dynamical RAM for           addusdens:     481.66 MB

     Dynamical RAM for          addusforce:     508.43 MB

     Estimated static dynamical RAM per process >     433.95 MB

     Estimated max dynamical RAM per process >     942.38 MB

     Initial potential from superposition of free atoms

     starting charge    7.80759, renormalised to    8.00000

     negative rho (up, down):  7.936E-04 0.000E+00
     Starting wfcs are    6 randomized atomic wfcs

     total cpu time spent up to now is        4.4 secs

     Self-consistent Calculation

     iteration #  1     ecut=    30.00 Ry     beta= 0.40
     CG style diagonalization
     ethr =  1.00E-02,  avg # of iterations =  3.0

     negative rho (up, down):  4.640E-04 0.000E+00

     total cpu time spent up to now is        7.5 secs

     total energy              =     -34.21333115 Ry
     estimated scf accuracy    <       0.67783981 Ry
     electrostatic embedding   =       0.00000000 Ry
     cavitation energy         =       0.02808377 Ry
     PV energy                 =      -0.02154747 Ry
     correction to one-el term =       0.00000000 Ry

     iteration #  2     ecut=    30.00 Ry     beta= 0.40
     CG style diagonalization
     ethr =  8.47E-03,  avg # of iterations =  3.8

     negative rho (up, down):  2.931E-04 0.000E+00

     add environment contribution to local potential

     total cpu time spent up to now is       23.7 secs

     total energy              =     -34.27056326 Ry
     estimated scf accuracy    <       0.09826032 Ry
     electrostatic embedding   =       0.00000000 Ry
     cavitation energy         =       0.01921106 Ry
     PV energy                 =      -0.01199430 Ry
     correction to one-el term =       0.00000000 Ry

     iteration #  3     ecut=    30.00 Ry     beta= 0.40
     CG style diagonalization
     ethr =  1.23E-03,  avg # of iterations =  3.5

     negative rho (up, down):  7.486E-04 0.000E+00

     add environment contribution to local potential

     total cpu time spent up to now is       40.1 secs

     total energy              =     -34.27917501 Ry
     estimated scf accuracy    <       0.02805649 Ry
     electrostatic embedding   =      -0.02799945 Ry
     cavitation energy         =       0.01556511 Ry
     PV energy                 =      -0.00852629 Ry
     correction to one-el term =      -0.42227845 Ry

     iteration #  4     ecut=    30.00 Ry     beta= 0.40
     CG style diagonalization
     ethr =  3.51E-04,  avg # of iterations =  3.5

     negative rho (up, down):  5.461E-04 0.000E+00

     add environment contribution to local potential

     total cpu time spent up to now is       54.5 secs

     total energy              =     -34.28728678 Ry
     estimated scf accuracy    <       0.00220631 Ry
     electrostatic embedding   =      -0.02767070 Ry
     cavitation energy         =       0.01365482 Ry
     PV energy                 =      -0.00694379 Ry
     correction to one-el term =      -0.10399193 Ry

     iteration #  5     ecut=    30.00 Ry     beta= 0.40
     CG style diagonalization
     ethr =  2.76E-05,  avg # of iterations =  4.0

     negative rho (up, down):  1.123E-03 0.000E+00

     add environment contribution to local potential

     total cpu time spent up to now is       69.2 secs

     total energy              =     -34.28822852 Ry
     estimated scf accuracy    <       0.00036702 Ry
     electrostatic embedding   =      -0.03114338 Ry
     cavitation energy         =       0.01376152 Ry
     PV energy                 =      -0.00702826 Ry
     correction to one-el term =      -0.05634586 Ry

     iteration #  6     ecut=    30.00 Ry     beta= 0.40
     CG style diagonalization
     ethr =  4.59E-06,  avg # of iterations =  4.0

     negative rho (up, down):  5.611E-04 0.000E+00

     add environment contribution to local potential

     total cpu time spent up to now is       81.4 secs

     total energy              =     -34.28842847 Ry
     estimated scf accuracy    <       0.00002662 Ry
     electrostatic embedding   =      -0.03311323 Ry
     cavitation energy         =       0.01368306 Ry
     PV energy                 =      -0.00696871 Ry
     correction to one-el term =      -0.02454271 Ry

     iteration #  7     ecut=    30.00 Ry     beta= 0.40
     CG style diagonalization
     ethr =  3.33E-07,  avg # of iterations =  4.0

     negative rho (up, down):  2.846E-04 0.000E+00

     add environment contribution to local potential

     total cpu time spent up to now is       94.4 secs

     total energy              =     -34.28845106 Ry
     estimated scf accuracy    <       0.00000546 Ry
     electrostatic embedding   =      -0.03426622 Ry
     cavitation energy         =       0.01373752 Ry
     PV energy                 =      -0.00701280 Ry
     correction to one-el term =      -0.02974806 Ry

     iteration #  8     ecut=    30.00 Ry     beta= 0.40
     CG style diagonalization
     ethr =  6.82E-08,  avg # of iterations =  4.0

     negative rho (up, down):  2.412E-04 0.000E+00

     add environment contribution to local potential

     total cpu time spent up to now is      105.3 secs

     total energy              =     -34.28845278 Ry
     estimated scf accuracy    <       0.00000156 Ry
     electrostatic embedding   =      -0.03408251 Ry
     cavitation energy         =       0.01371466 Ry
     PV energy                 =      -0.00699555 Ry
     correction to one-el term =      -0.03121367 Ry

     iteration #  9     ecut=    30.00 Ry     beta= 0.40
     CG style diagonalization
     ethr =  1.94E-08,  avg # of iterations =  4.0

     negative rho (up, down):  2.244E-04 0.000E+00

     add environment contribution to local potential

     total cpu time spent up to now is      118.2 secs

     total energy              =     -34.28845436 Ry
     estimated scf accuracy    <       0.00000026 Ry
     electrostatic embedding   =      -0.03431020 Ry
     cavitation energy         =       0.01372142 Ry
     PV energy                 =      -0.00700116 Ry
     correction to one-el term =      -0.03192973 Ry

     iteration # 10     ecut=    30.00 Ry     beta= 0.40
     CG style diagonalization
     ethr =  3.24E-09,  avg # of iterations =  4.0

     negative rho (up, down):  2.156E-04 0.000E+00

     add environment contribution to local potential

     total cpu time spent up to now is      128.2 secs

     total energy              =     -34.28845479 Ry
     estimated scf accuracy    <       0.00000002 Ry
     electrostatic embedding   =      -0.03443059 Ry
     cavitation energy         =       0.01371882 Ry
     PV energy                 =      -0.00699947 Ry
     correction to one-el term =      -0.03236302 Ry

     iteration # 11     ecut=    30.00 Ry     beta= 0.40
     CG style diagonalization
     ethr =  1.92E-10,  avg # of iterations =  4.2

     negative rho (up, down):  2.124E-04 0.000E+00

     the potential shift due to the Gaussian-smeared nuclei is    -0.0214 ev

     total cpu time spent up to now is      130.4 secs

     End of self-consistent calculation

          k = 0.0000 0.0000 0.0000 ( 22119 PWs)   bands (ev):

   -24.6754 -12.4430  -8.8789  -6.9125

     occupation numbers 
     1.0000   1.0000   1.0000   1.0000

     highest occupied level (ev):    -6.9125

!    total energy              =     -34.28845478 Ry
     estimated scf accuracy    <          4.9E-10 Ry

     The total energy is the sum of the following terms:
     one-electron contribution =     -63.88226894 Ry
     hartree contribution      =      33.50186298 Ry
     xc contribution           =      -8.40516727 Ry
     ewald contribution        =       4.55735774 Ry
     electrostatic embedding   =      -0.03445686 Ry
     cavitation energy         =       0.01371859 Ry
     PV energy                 =      -0.00699935 Ry
     correction to one-el term =      -0.03250169 Ry

     WARNING: you are using the parabolic pbc correction;
              the potential shift above must be added to 
              band and Fermi energies.

     convergence has been achieved in  11 iterations
     The global environment contribution to forces
     atom    1 type  2   force =     0.04903679   -0.25378705    0.00000000
     atom    2 type  1   force =     0.03953811   -0.03946308    0.00000000
     atom    3 type  1   force =    -0.02199899   -0.05128352   -0.00000000
 

     Forces acting on atoms (cartesian axes, Ry/au):

     atom    1 type  2   force =     0.00230188   -0.01219277   -0.00000001
     atom    2 type  1   force =    -0.01036830    0.00427248    0.00000000
     atom    3 type  1   force =     0.00806641    0.00792029    0.00000000
     The non-local contrib.  to forces
     atom    1 type  2   force =     0.43428888   -2.24094183    0.00000001
     atom    2 type  1   force =    -0.18031342    0.08317156   -0.00000000
     atom    3 type  1   force =     0.13617617    0.14446170    0.00000000
     The ionic contribution  to forces
     atom    1 type  2   force =    -0.80474894    4.15284562    0.00000000
     atom    2 type  1   force =     3.32883149   -1.50955609    0.00000000
     atom    3 type  1   force =    -2.52408255   -2.64328953    0.00000000
     The local contribution  to forces
     atom    1 type  2   force =     0.32374565   -1.67033542    0.00000002
     atom    2 type  1   force =    -3.19841739    1.47015945    0.00000000
     atom    3 type  1   force =     2.41798099    2.55807097    0.00000000
     The core correction contribution to forces
     atom    1 type  2   force =     0.00000000    0.00000000    0.00000000
     atom    2 type  1   force =     0.00000000    0.00000000    0.00000000
     atom    3 type  1   force =     0.00000000    0.00000000    0.00000000
     The Hubbard contrib.    to forces
     atom    1 type  2   force =     0.00000000    0.00000000    0.00000000
     atom    2 type  1   force =     0.00000000    0.00000000    0.00000000
     atom    3 type  1   force =     0.00000000    0.00000000    0.00000000
     The SCF correction term to forces
     atom    1 type  2   force =    -0.00001232    0.00006541   -0.00000003
     atom    2 type  1   force =     0.00000108    0.00000014    0.00000000
     atom    3 type  1   force =    -0.00000102    0.00000017    0.00000000

     Total force =     0.020187     Total SCF correction =     0.000067

     BFGS Geometry Optimization
     Energy error            =      0.0E+00
     Gradient error          =      1.2E-02

     number of scf cycles    =   1
     number of bfgs steps    =   0

     energy   new            =     -34.2884547774 Ry

     new trust radius        =       0.0124081547 bohr
     new conv_thr            =       0.0000000050 Ry


ATOMIC_POSITIONS (bohr)
O            11.7923018840       12.0378072303       11.4999999931
H            13.4396317029       11.2242724763       11.5000000031
H            10.5680664131       10.6679202934       11.5000000037



     Writing output data file /home/simplogic86/Work/QE1/tempdir/h2o_water_fixed-point.save/
     NEW-OLD atomic charge density approx. for the potential

     negative rho (up, down):  7.006E-04 0.000E+00

     add environment contribution to local potential

     total cpu time spent up to now is      145.7 secs

     Self-consistent Calculation

     iteration #  1     ecut=    30.00 Ry     beta= 0.40
     CG style diagonalization
     ethr =  1.00E-06,  avg # of iterations =  4.8

     negative rho (up, down):  4.719E-04 0.000E+00

     add environment contribution to local potential

     total cpu time spent up to now is      158.7 secs

     total energy              =     -34.28844617 Ry
     estimated scf accuracy    <       0.00034458 Ry
     electrostatic embedding   =      -0.03412968 Ry
     cavitation energy         =       0.01368993 Ry
     PV energy                 =      -0.00697915 Ry
     correction to one-el term =      -0.03565361 Ry

     iteration #  2     ecut=    30.00 Ry     beta= 0.40
     CG style diagonalization
     ethr =  4.31E-06,  avg # of iterations =  4.0

     negative rho (up, down):  3.574E-04 0.000E+00

     add environment contribution to local potential

     total cpu time spent up to now is      169.9 secs

     total energy              =     -34.28851379 Ry
     estimated scf accuracy    <       0.00001861 Ry
     electrostatic embedding   =      -0.03428743 Ry
     cavitation energy         =       0.01365677 Ry
     PV energy                 =      -0.00695344 Ry
     correction to one-el term =      -0.03538979 Ry

     iteration #  3     ecut=    30.00 Ry     beta= 0.40
     CG style diagonalization
     ethr =  2.33E-07,  avg # of iterations =  4.0

     negative rho (up, down):  2.501E-04 0.000E+00

     add environment contribution to local potential

     total cpu time spent up to now is      182.2 secs

     total energy              =     -34.28851548 Ry
     estimated scf accuracy    <       0.00000444 Ry
     electrostatic embedding   =      -0.03420321 Ry
     cavitation energy         =       0.01366351 Ry
     PV energy                 =      -0.00695839 Ry
     correction to one-el term =      -0.03588691 Ry

     iteration #  4     ecut=    30.00 Ry     beta= 0.40
     CG style diagonalization
     ethr =  5.55E-08,  avg # of iterations =  4.0

     negative rho (up, down):  2.303E-04 0.000E+00

     add environment contribution to local potential

     total cpu time spent up to now is      191.3 secs

     total energy              =     -34.28851632 Ry
     estimated scf accuracy    <       0.00000027 Ry
     electrostatic embedding   =      -0.03415051 Ry
     cavitation energy         =       0.01366596 Ry
     PV energy                 =      -0.00695995 Ry
     correction to one-el term =      -0.03640217 Ry

     iteration #  5     ecut=    30.00 Ry     beta= 0.40
     CG style diagonalization
     ethr =  3.38E-09,  avg # of iterations =  4.0

     negative rho (up, down):  2.180E-04 0.000E+00

     add environment contribution to local potential

     total cpu time spent up to now is      199.8 secs

     total energy              =     -34.28851644 Ry
     estimated scf accuracy    <       0.00000003 Ry
     electrostatic embedding   =      -0.03415982 Ry
     cavitation energy         =       0.01366791 Ry
     PV energy                 =      -0.00696140 Ry
     correction to one-el term =      -0.03646080 Ry

     iteration #  6     ecut=    30.00 Ry     beta= 0.40
     CG style diagonalization
     ethr =  3.35E-10,  avg # of iterations =  3.2

     negative rho (up, down):  2.136E-04 0.000E+00

     the potential shift due to the Gaussian-smeared nuclei is    -0.0214 ev

     total cpu time spent up to now is      202.3 secs

     End of self-consistent calculation

          k = 0.0000 0.0000 0.0000 ( 22119 PWs)   bands (ev):

   -24.7747 -12.5634  -8.8728  -6.9331

     occupation numbers 
     1.0000   1.0000   1.0000   1.0000

     highest occupied level (ev):    -6.9331

!    total energy              =     -34.28851650 Ry
     estimated scf accuracy    <          2.9E-09 Ry

     The total energy is the sum of the following terms:
     one-electron contribution =     -64.10040492 Ry
     hartree contribution      =      33.60545755 Ry
     xc contribution           =      -8.42290158 Ry
     ewald contribution        =       4.69331627 Ry
     electrostatic embedding   =      -0.03416442 Ry
     cavitation energy         =       0.01366895 Ry
     PV energy                 =      -0.00696213 Ry
     correction to one-el term =      -0.03652620 Ry

     WARNING: you are using the parabolic pbc correction;
              the potential shift above must be added to 
              band and Fermi energies.

     convergence has been achieved in   6 iterations
     The global environment contribution to forces
     atom    1 type  2   force =     0.04896385   -0.25335376    0.00000000
     atom    2 type  1   force =     0.03951522   -0.03920324    0.00000000
     atom    3 type  1   force =    -0.02206407   -0.05103115    0.00000000
 

     Forces acting on atoms (cartesian axes, Ry/au):

     atom    1 type  2   force =    -0.00186396    0.01038395    0.00000000
     atom    2 type  1   force =     0.00595429   -0.00419693   -0.00000000
     atom    3 type  1   force =    -0.00409034   -0.00618702   -0.00000000
     The non-local contrib.  to forces
     atom    1 type  2   force =     0.43341459   -2.23580951    0.00000002
     atom    2 type  1   force =    -0.18638161    0.08479043   -0.00000000
     atom    3 type  1   force =     0.14123681    0.14827747   -0.00000000
     The ionic contribution  to forces
     atom    1 type  2   force =    -0.81559405    4.21145079   -0.00000004
     atom    2 type  1   force =     3.40332213   -1.52522401    0.00000002
     atom    3 type  1   force =    -2.58772808   -2.68622677    0.00000002
     The local contribution  to forces
     atom    1 type  2   force =     0.33138179   -1.71182933    0.00000002
     atom    2 type  1   force =    -3.25046901    1.47547096   -0.00000002
     atom    3 type  1   force =     2.46450922    2.58282691   -0.00000002
     The core correction contribution to forces
     atom    1 type  2   force =     0.00000000    0.00000000    0.00000000
     atom    2 type  1   force =     0.00000000    0.00000000    0.00000000
     atom    3 type  1   force =     0.00000000    0.00000000    0.00000000
     The Hubbard contrib.    to forces
     atom    1 type  2   force =     0.00000000    0.00000000    0.00000000
     atom    2 type  1   force =     0.00000000    0.00000000    0.00000000
     atom    3 type  1   force =     0.00000000    0.00000000    0.00000000
     The SCF correction term to forces
     atom    1 type  2   force =     0.00000963   -0.00004927   -0.00000000
     atom    2 type  1   force =     0.00000735   -0.00000610   -0.00000000
     atom    3 type  1   force =    -0.00000444   -0.00000851   -0.00000000

     Total force =     0.014811     Total SCF correction =     0.000052
     Energy error            =      6.2E-05
     Gradient error          =      1.0E-02

     number of scf cycles    =   2
     number of bfgs steps    =   1

     energy   old            =     -34.2884547774 Ry
     energy   new            =     -34.2885164957 Ry

     CASE: energy  _new < energy  _old

     new trust radius        =       0.0060447319 bohr
     new conv_thr            =            5.0E-11 Ry


ATOMIC_POSITIONS (bohr)
O            11.7912347538       12.0437570216       11.4999999942
H            13.4430171652       11.2218626295       11.5000000030
H            10.5657480811       10.6643803489       11.5000000029



     Writing output data file /home/simplogic86/Work/QE1/tempdir/h2o_water_fixed-point.save/
     NEW-OLD atomic charge density approx. for the potential

     negative rho (up, down):  2.431E-04 0.000E+00

     add environment contribution to local potential

     total cpu time spent up to now is      217.3 secs

     Self-consistent Calculation

     iteration #  1     ecut=    30.00 Ry     beta= 0.40
     CG style diagonalization
     ethr =  1.00E-06,  avg # of iterations =  3.8

     negative rho (up, down):  2.166E-04 0.000E+00

     add environment contribution to local potential

     total cpu time spent up to now is      228.8 secs

     total energy              =     -34.28856594 Ry
     estimated scf accuracy    <       0.00006014 Ry
     electrostatic embedding   =      -0.03430232 Ry
     cavitation energy         =       0.01367964 Ry
     PV energy                 =      -0.00696961 Ry
     correction to one-el term =      -0.03521247 Ry

     iteration #  2     ecut=    30.00 Ry     beta= 0.40
     CG style diagonalization
     ethr =  7.52E-07,  avg # of iterations =  4.0

     negative rho (up, down):  2.075E-04 0.000E+00

     add environment contribution to local potential

     total cpu time spent up to now is      240.3 secs

     total energy              =     -34.28857823 Ry
     estimated scf accuracy    <       0.00000340 Ry
     electrostatic embedding   =      -0.03423204 Ry
     cavitation energy         =       0.01369323 Ry
     PV energy                 =      -0.00698016 Ry
     correction to one-el term =      -0.03527539 Ry

     iteration #  3     ecut=    30.00 Ry     beta= 0.40
     CG style diagonalization
     ethr =  4.25E-08,  avg # of iterations =  4.0

     negative rho (up, down):  2.135E-04 0.000E+00

     add environment contribution to local potential

     total cpu time spent up to now is      251.3 secs

     total energy              =     -34.28857872 Ry
     estimated scf accuracy    <       0.00000081 Ry
     electrostatic embedding   =      -0.03427204 Ry
     cavitation energy         =       0.01369067 Ry
     PV energy                 =      -0.00697827 Ry
     correction to one-el term =      -0.03507896 Ry

     iteration #  4     ecut=    30.00 Ry     beta= 0.40
     CG style diagonalization
     ethr =  1.01E-08,  avg # of iterations =  4.0

     negative rho (up, down):  2.118E-04 0.000E+00

     add environment contribution to local potential

     total cpu time spent up to now is      259.2 secs

     total energy              =     -34.28857886 Ry
     estimated scf accuracy    <       0.00000005 Ry
     electrostatic embedding   =      -0.03429918 Ry
     cavitation energy         =       0.01369007 Ry
     PV energy                 =      -0.00697793 Ry
     correction to one-el term =      -0.03486458 Ry

     iteration #  5     ecut=    30.00 Ry     beta= 0.40
     CG style diagonalization
     ethr =  6.21E-10,  avg # of iterations =  4.0

     negative rho (up, down):  2.140E-04 0.000E+00

     add environment contribution to local potential

     total cpu time spent up to now is      268.4 secs

     total energy              =     -34.28857888 Ry
     estimated scf accuracy    <          5.1E-09 Ry
     electrostatic embedding   =      -0.03429440 Ry
     cavitation energy         =       0.01368935 Ry
     PV energy                 =      -0.00697739 Ry
     correction to one-el term =      -0.03484328 Ry

     iteration #  6     ecut=    30.00 Ry     beta= 0.40
     CG style diagonalization
     ethr =  6.40E-11,  avg # of iterations =  3.2

     negative rho (up, down):  2.135E-04 0.000E+00

     add environment contribution to local potential

     total cpu time spent up to now is      275.9 secs

     total energy              =     -34.28857889 Ry
     estimated scf accuracy    <          5.2E-10 Ry
     electrostatic embedding   =      -0.03429163 Ry
     cavitation energy         =       0.01368887 Ry
     PV energy                 =      -0.00697704 Ry
     correction to one-el term =      -0.03480767 Ry

     iteration #  7     ecut=    30.00 Ry     beta= 0.40
     CG style diagonalization
     ethr =  6.47E-12,  avg # of iterations =  3.8

     negative rho (up, down):  2.132E-04 0.000E+00

     the potential shift due to the Gaussian-smeared nuclei is    -0.0214 ev

     total cpu time spent up to now is      278.1 secs

     End of self-consistent calculation

          k = 0.0000 0.0000 0.0000 ( 22119 PWs)   bands (ev):

   -24.7349 -12.5082  -8.8801  -6.9248

     occupation numbers 
     1.0000   1.0000   1.0000   1.0000

     highest occupied level (ev):    -6.9248

!    total energy              =     -34.28857886 Ry
     estimated scf accuracy    <          3.7E-11 Ry

     The total energy is the sum of the following terms:
     one-electron contribution =     -64.00973124 Ry
     hartree contribution      =      33.56215536 Ry
     xc contribution           =      -8.41548116 Ry
     ewald contribution        =       4.63686398 Ry
     electrostatic embedding   =      -0.03429044 Ry
     cavitation energy         =       0.01368892 Ry
     PV energy                 =      -0.00697708 Ry
     correction to one-el term =      -0.03480719 Ry

     WARNING: you are using the parabolic pbc correction;
              the potential shift above must be added to 
              band and Fermi energies.

     convergence has been achieved in   7 iterations
     The global environment contribution to forces
     atom    1 type  2   force =     0.04902833   -0.25376303    0.00000000
     atom    2 type  1   force =     0.03946067   -0.03939083    0.00000000
     atom    3 type  1   force =    -0.02195531   -0.05118720    0.00000000
 

     Forces acting on atoms (cartesian axes, Ry/au):

     atom    1 type  2   force =    -0.00015730    0.00049015    0.00000000
     atom    2 type  1   force =    -0.00071204   -0.00044685   -0.00000000
     atom    3 type  1   force =     0.00086934   -0.00004330   -0.00000000
     The non-local contrib.  to forces
     atom    1 type  2   force =     0.43405520   -2.23962891    0.00000002
     atom    2 type  1   force =    -0.18375632    0.08433429   -0.00000000
     atom    3 type  1   force =     0.13893555    0.14681202   -0.00000000
     The ionic contribution  to forces
     atom    1 type  2   force =    -0.81230170    4.19182979   -0.00000003
     atom    2 type  1   force =     3.37113116   -1.52168949    0.00000002
     atom    3 type  1   force =    -2.55882946   -2.67014030    0.00000002
     The local contribution  to forces
     atom    1 type  2   force =     0.32908428   -1.69791059    0.00000001
     atom    2 type  1   force =    -3.22752170    1.47632272   -0.00000002
     atom    3 type  1   force =     2.44274404    2.57449567   -0.00000002
     The core correction contribution to forces
     atom    1 type  2   force =     0.00000000    0.00000000    0.00000000
     atom    2 type  1   force =     0.00000000    0.00000000    0.00000000
     atom    3 type  1   force =     0.00000000    0.00000000    0.00000000
     The Hubbard contrib.    to forces
     atom    1 type  2   force =     0.00000000    0.00000000    0.00000000
     atom    2 type  1   force =     0.00000000    0.00000000    0.00000000
     atom    3 type  1   force =     0.00000000    0.00000000    0.00000000
     The SCF correction term to forces
     atom    1 type  2   force =     0.00000235   -0.00001369    0.00000000
     atom    2 type  1   force =    -0.00000010   -0.00000013    0.00000000
     atom    3 type  1   force =     0.00000026   -0.00000007    0.00000000

     Total force =     0.001315     Total SCF correction =     0.000014
     Energy error            =      6.2E-05
     Gradient error          =      8.7E-04

     bfgs converged in   3 scf cycles and   2 bfgs steps
     (criteria: energy <  1.0E-04 Ry, force <  1.0E-03 Ry/Bohr)

     End of BFGS Geometry Optimization

     Final energy   =     -34.2885788618 Ry

     File /home/simplogic86/Work/QE1/tempdir/h2o_water_fixed-point.bfgs deleted, as requested
Begin final coordinates

ATOMIC_POSITIONS (bohr)
O            11.7912347538       12.0437570216       11.4999999942
H            13.4430171652       11.2218626295       11.5000000030
H            10.5657480811       10.6643803489       11.5000000029
End final coordinates



     Writing output data file /home/simplogic86/Work/QE1/tempdir/h2o_water_fixed-point.save/
 
     init_run     :      4.07s CPU      4.38s WALL (       1 calls)
     electrons    :    233.14s CPU    243.55s WALL (       3 calls)
     update_pot   :      1.20s CPU      1.29s WALL (       2 calls)
     forces       :      2.52s CPU      2.93s WALL (       3 calls)

     Called by init_run:
     wfcinit      :      0.07s CPU      0.07s WALL (       1 calls)
     wfcinit:atom :      0.00s CPU      0.00s WALL (       1 calls)
     wfcinit:wfcr :      0.06s CPU      0.06s WALL (       1 calls)
     potinit      :      1.64s CPU      1.77s WALL (       1 calls)
     hinit0       :      1.50s CPU      1.53s WALL (       1 calls)

     Called by electrons:
     c_bands      :      3.29s CPU      3.86s WALL (      24 calls)
     sum_band     :      8.20s CPU      9.99s WALL (      24 calls)
     v_of_rho     :     11.17s CPU     12.57s WALL (      27 calls)
     v_h          :      0.75s CPU      0.76s WALL (      27 calls)
     v_xc         :     10.42s CPU     11.81s WALL (      27 calls)
     newd         :      5.91s CPU      7.71s WALL (      27 calls)
     mix_rho      :      1.47s CPU      1.70s WALL (      24 calls)

     Called by c_bands:
     init_us_2    :      0.14s CPU      0.14s WALL (      49 calls)
     ccgdiagg     :      2.64s CPU      3.20s WALL (      24 calls)
     wfcrot       :      0.63s CPU      0.64s WALL (      22 calls)

     Called by sum_band:
     sum_band:wei :      0.00s CPU      0.00s WALL (      24 calls)
     sum_band:loo :      0.46s CPU      0.46s WALL (      24 calls)
     sum_band:buf :      0.00s CPU      0.00s WALL (      24 calls)
     sum_band:ini :      0.07s CPU      0.07s WALL (      24 calls)
     sum_band:cal :      0.01s CPU      0.01s WALL (      24 calls)
     sum_band:bec :      0.00s CPU      0.00s WALL (      24 calls)
     addusdens    :      7.00s CPU      8.77s WALL (      24 calls)
     addusd:skk   :      0.15s CPU      0.16s WALL (      48 calls)
     addusd:dgemm :      0.96s CPU      2.36s WALL (      48 calls)
     addusd:qvan2 :      4.34s CPU      4.36s WALL (      48 calls)

     Called by *cgdiagg:
     h_psi        :      2.90s CPU      3.42s WALL (     309 calls)
     s_psi        :      0.14s CPU      0.16s WALL (     596 calls)

     Called by h_psi:
     h_psi:calbec :      0.12s CPU      0.12s WALL (     309 calls)
     vloc_psi     :      2.67s CPU      3.18s WALL (     309 calls)
     add_vuspsi   :      0.09s CPU      0.11s WALL (     309 calls)
     hs_1psi      :      2.38s CPU      2.91s WALL (     287 calls)
     s_1psi       :      0.14s CPU      0.14s WALL (     287 calls)

     General routines
     calbec       :      0.21s CPU      0.21s WALL (     632 calls)
     fft          :      5.83s CPU      6.13s WALL (     353 calls)
     ffts         :      0.15s CPU      0.15s WALL (      51 calls)
     fftw         :      2.59s CPU      3.03s WALL (     850 calls)
     interpolate  :      0.65s CPU      0.65s WALL (      27 calls)
 
     Parallel routines
 
     Environ routines
 
     PWSCF        :   4m27.13s CPU   4m39.18s WALL

 
   This run was terminated on:  14:45:52  25Sep2021            

=------------------------------------------------------------------------------=
   JOB DONE.
=------------------------------------------------------------------------------=
