
     Program PWSCF v.6.7MaX starts on 30Nov2021 at 18:50:32 

     This program is part of the open-source Quantum ESPRESSO suite
     for quantum simulation of materials; please cite
         "P. Giannozzi et al., J. Phys.:Condens. Matter 21 395502 (2009);
         "P. Giannozzi et al., J. Phys.:Condens. Matter 29 465901 (2017);
          URL http://www.quantum-espresso.org", 
     in publications or presentations arising from this work. More details at
     http://www.quantum-espresso.org/quote

     Parallel version (MPI), running on     1 processors

     MPI processes distributed on     1 nodes
     Reading input from pw.in

     Current dimensions of program PWSCF are:
     Max number of different atomic species (ntypx) = 10
     Max number of k-points (npk) =  40000
     Max angular momentum in pseudopotentials (lmaxx) =  3

     Reading input from environ.in

     ================================================================================

     Reading ENVIRON namelist

     Reading BOUNDARY namelist

     Checking boundary derivatives
     derivatives               = lowmem         ! SSCS default

     Skipping ELECTROSTATIC namelist

     Setting up electrostatic problem
     problem                   = poisson        
     solver                    = direct         

     Checking PBC correction
     pbc_correction            = none           ! default

     ================================================================================
 
     file H.pbe-rrkjus.UPF: wavefunction(s)  1S renormalized
     file O.pbe-rrkjus.UPF: wavefunction(s)  2S renormalized

     gamma-point specific algorithms are used

     Subspace diagonalization in iterative solution of the eigenvalue problem:
     a serial algorithm will be used

 
     G-vector sticks info
     --------------------
     sticks:   dense  smooth     PW     G-vecs:    dense   smooth      PW
     Sum       14913    5973   1481              1371481   346971   43387
 


     bravais-lattice index     =            1
     lattice parameter (alat)  =      25.0000  a.u.
     unit-cell volume          =   15625.0000 (a.u.)^3
     number of atoms/cell      =            6
     number of atomic types    =            2
     number of electrons       =        16.00
     number of Kohn-Sham states=            8
     kinetic-energy cutoff     =      30.0000  Ry
     charge density cutoff     =     300.0000  Ry
     scf convergence threshold =      5.0E-03
     mixing beta               =       0.7000
     number of iterations used =            8  plain     mixing
     Exchange-correlation= SLA  PW   PBE  PBE
                           (   1   4   3   4   0   0   0)
 

     Environ Module
     ==============

     Please cite
         O. Andreussi, I. Dabo and N. Marzari, J. Chem. Phys. 136, 064102 (2012)         
     in publications or presentations arising from this work.

     compensation onset threshold      =               0.1000E+03
     surface tension in input (dyn/cm) =                   100.00
     surface tension in internal units =               0.1285E-03
     external pressure in input (GPa)  =                     0.50
     external pressure in inter. units =               0.3399E-04



     celldm(1)=  25.000000  celldm(2)=   0.000000  celldm(3)=   0.000000
     celldm(4)=   0.000000  celldm(5)=   0.000000  celldm(6)=   0.000000

     crystal axes: (cart. coord. in units of alat)
               a(1) = (   1.000000   0.000000   0.000000 )  
               a(2) = (   0.000000   1.000000   0.000000 )  
               a(3) = (   0.000000   0.000000   1.000000 )  

     reciprocal axes: (cart. coord. in units 2 pi/alat)
               b(1) = (  1.000000  0.000000  0.000000 )  
               b(2) = (  0.000000  1.000000  0.000000 )  
               b(3) = (  0.000000  0.000000  1.000000 )  


     PseudoPot. # 1 for H  read from file:
     /home/simplogic86/Work/QE1/Environ/tests/../..//pseudo/H.pbe-rrkjus.UPF
     MD5 check sum: 2d52a7f45632fd764c17cc6affed14c8
     Pseudo is Ultrasoft, Zval =  1.0
     Generated by new atomic code, or converted to UPF format
     Using radial grid of 1061 points,  2 beta functions with: 
                l(1) =   0
                l(2) =   0
     Q(r) pseudized with 0 coefficients 


     PseudoPot. # 2 for O  read from file:
     /home/simplogic86/Work/QE1/Environ/tests/../..//pseudo/O.pbe-rrkjus.UPF
     MD5 check sum: fadcf19ee70a498d3030e2e79cf929a4
     Pseudo is Ultrasoft, Zval =  6.0
     Generated by new atomic code, or converted to UPF format
     Using radial grid of 1269 points,  4 beta functions with: 
                l(1) =   0
                l(2) =   0
                l(3) =   1
                l(4) =   1
     Q(r) pseudized with 0 coefficients 


     atomic species   valence    mass     pseudopotential
        H              1.00     1.00000     H ( 1.00)
        O              6.00    16.00000     O ( 1.00)

     No symmetry found



   Cartesian axes

     site n.     atom                  positions (alat units)
         1           O   tau(   1) = (   0.4716000   0.4820000   0.4600000  )
         2           H   tau(   2) = (   0.5380000   0.4488000   0.4600000  )
         3           H   tau(   3) = (   0.4224000   0.4264000   0.4600000  )
         4           O   tau(   4) = (   0.4716000   0.4820000   0.7600000  )
         5           H   tau(   5) = (   0.5380000   0.4488000   0.7600000  )
         6           H   tau(   6) = (   0.4224000   0.4264000   0.7600000  )

     number of k points=     1
                       cart. coord. in units 2pi/alat
        k(    1) = (   0.0000000   0.0000000   0.0000000), wk =   2.0000000

     Dense  grid:   685741 G-vectors     FFT dimensions: ( 144, 144, 144)

     Smooth grid:   173486 G-vectors     FFT dimensions: (  90,  90,  90)

     Estimated max dynamical RAM per process >       1.05 GB

     Initial potential from superposition of free atoms

     starting charge   15.61518, renormalised to   16.00000

     negative rho (up, down):  1.498E-03 0.000E+00
     Starting wfcs are   12 randomized atomic wfcs

     total cpu time spent up to now is       12.2 secs

     Self-consistent Calculation

     iteration #  1     ecut=    30.00 Ry     beta= 0.70
     Davidson diagonalization with overlap
     ethr =  1.00E-02,  avg # of iterations =  2.0

     negative rho (up, down):  5.093E-04 0.000E+00

     add environment contribution to local potential

     total cpu time spent up to now is       14.9 secs

     total energy              =     -68.08555438 Ry
     estimated scf accuracy    <       1.32250631 Ry
     cavitation energy         =       0.04439954 Ry
     PV energy                 =       0.01440355 Ry
     correction to one-el term =       0.00000000 Ry

     iteration #  2     ecut=    30.00 Ry     beta= 0.70
     Davidson diagonalization with overlap
     ethr =  8.27E-03,  avg # of iterations =  2.0

     negative rho (up, down):  6.740E-03 0.000E+00

     add environment contribution to local potential

     total cpu time spent up to now is       17.7 secs

     total energy              =     -68.34662095 Ry
     estimated scf accuracy    <       0.72404994 Ry
     cavitation energy         =       0.04439954 Ry
     PV energy                 =       0.01440355 Ry
     correction to one-el term =       0.00000000 Ry

     iteration #  3     ecut=    30.00 Ry     beta= 0.70
     Davidson diagonalization with overlap
     ethr =  4.53E-03,  avg # of iterations =  2.0

     negative rho (up, down):  9.962E-04 0.000E+00

     add environment contribution to local potential

     total cpu time spent up to now is       20.1 secs

     total energy              =     -68.47180613 Ry
     estimated scf accuracy    <       0.01643848 Ry
     cavitation energy         =       0.04439954 Ry
     PV energy                 =       0.01440355 Ry
     correction to one-el term =       0.00000000 Ry

     iteration #  4     ecut=    30.00 Ry     beta= 0.70
     Davidson diagonalization with overlap
     ethr =  1.03E-04,  avg # of iterations =  2.0

     negative rho (up, down):  4.302E-04 0.000E+00

     total cpu time spent up to now is       22.4 secs

     End of self-consistent calculation

          k = 0.0000 0.0000 0.0000 ( 21694 PWs)   bands (ev):

   -25.0430 -25.0362 -12.8874 -12.8745  -9.0880  -9.0648  -7.1537  -6.9809

     highest occupied level (ev):    -6.9809

!    total energy              =     -68.47422844 Ry
     estimated scf accuracy    <       0.00181175 Ry

     The total energy is the sum of the following terms:
     one-electron contribution =    -141.95546600 Ry
     hartree contribution      =      74.09421932 Ry
     xc contribution           =     -16.82058028 Ry
     ewald contribution        =      16.14879542 Ry
     cavitation energy         =       0.04439954 Ry
     PV energy                 =       0.01440355 Ry
     correction to one-el term =       0.00000000 Ry

     convergence has been achieved in   4 iterations

     Forces acting on atoms (cartesian axes, Ry/au):

     atom    1 type  2   force =     0.00327779   -0.01751138   -0.00043534
     atom    2 type  1   force =    -0.02113185    0.00496454    0.00014767
     atom    3 type  1   force =     0.01784544    0.01258609    0.00014718
     atom    4 type  2   force =     0.00329310   -0.01758182    0.00111582
     atom    5 type  1   force =    -0.02112565    0.00496124   -0.00048797
     atom    6 type  1   force =     0.01784116    0.01258134   -0.00048736

     Total force =     0.050348     Total SCF correction =     0.055092
     SCF correction compared to forces is large: reduce conv_thr to get better values

     Writing output data file /home/simplogic86/Work/QE1/Environ/tests/../..//tempdir/pwscf.save/
 
     init_run     :     11.11s CPU     12.13s WALL (       1 calls)
     electrons    :      8.98s CPU     10.29s WALL (       1 calls)
     forces       :     13.07s CPU     13.27s WALL (       1 calls)

     Called by init_run:
     wfcinit      :      0.26s CPU      0.26s WALL (       1 calls)
     potinit      :      1.17s CPU      1.36s WALL (       1 calls)
     hinit0       :      8.71s CPU      9.28s WALL (       1 calls)

     Called by electrons:
     c_bands      :      1.36s CPU      1.45s WALL (       4 calls)
     sum_band     :      1.97s CPU      2.40s WALL (       4 calls)
     v_of_rho     :      4.02s CPU      4.45s WALL (       5 calls)
     newd         :      1.75s CPU      2.29s WALL (       5 calls)
     mix_rho      :      0.45s CPU      0.47s WALL (       4 calls)

     Called by c_bands:
     init_us_2    :      0.04s CPU      0.04s WALL (       9 calls)
     regterg      :      1.29s CPU      1.37s WALL (       4 calls)

     Called by *egterg:
     rdiaghg      :      0.00s CPU      0.00s WALL (      12 calls)
     h_psi        :      1.42s CPU      1.51s WALL (      13 calls)
     s_psi        :      0.02s CPU      0.02s WALL (      13 calls)
     g_psi        :      0.00s CPU      0.00s WALL (       8 calls)

     Called by h_psi:
     h_psi:calbec :      0.02s CPU      0.02s WALL (      13 calls)
     vloc_psi     :      1.38s CPU      1.46s WALL (      13 calls)
     add_vuspsi   :      0.02s CPU      0.02s WALL (      13 calls)

     General routines
     calbec       :      0.03s CPU      0.03s WALL (      21 calls)
     fft          :      2.10s CPU      2.23s WALL (      55 calls)
     ffts         :      0.08s CPU      0.08s WALL (       9 calls)
     fftw         :      1.21s CPU      1.29s WALL (     120 calls)
     interpolate  :      0.30s CPU      0.39s WALL (       5 calls)
 
     Parallel routines
 
     Environ routines
 
     PWSCF        :     33.23s CPU     35.77s WALL

 
   This run was terminated on:  18:51: 7  30Nov2021            

=------------------------------------------------------------------------------=
   JOB DONE.
=------------------------------------------------------------------------------=

%%%% CELL %%%%%%%%%%%%%%%%%%%%%%%%%%%%%%%%%%%%%%%%%%%%%%%%%%%%%%%%%%%%%%%%%%%%%%

 cell label                 = system         

 cell volume                =   15625.000000

%%%% IONS %%%%%%%%%%%%%%%%%%%%%%%%%%%%%%%%%%%%%%%%%%%%%%%%%%%%%%%%%%%%%%%%%%%%%%

 total charge               =    -16.0000000
 center of charge           =     11.8437500    11.7725000    15.2500000
 dipole                     =      0.0000000     0.0000000     0.0000000
 quadrupole (pc)            =     -8.4907750    -4.0099000  -225.0000000

   i | type | coordinates
 -----------------------------------------------------------------------
   1 |    2 |                     11.7900000    12.0500000    11.5000000
   2 |    1 |                     13.4500000    11.2200000    11.5000000
   3 |    1 |                     10.5600000    10.6600000    11.5000000
   4 |    2 |                     11.7900000    12.0500000    19.0000000
   5 |    1 |                     13.4500000    11.2200000    19.0000000
   6 |    1 |                     10.5600000    10.6600000    19.0000000

%%%% SYSTEM %%%%%%%%%%%%%%%%%%%%%%%%%%%%%%%%%%%%%%%%%%%%%%%%%%%%%%%%%%%%%%%%%%%%

 system is built from all present ionic types

 system defined dimension   =              0
 system defined axis        =              3

 system center              =     11.8437500    11.7725000    15.2500000
 system width               =      4.1168156

%%%% IONS %%%%%%%%%%%%%%%%%%%%%%%%%%%%%%%%%%%%%%%%%%%%%%%%%%%%%%%%%%%%%%%%%%%%%%

 total charge               =    -16.0000000
 center of charge           =     11.8437500    11.7725000    15.2500000
 dipole                     =      0.0000000     0.0000000     0.0000000
 quadrupole (pc)            =     -8.4907750    -4.0099000  -225.0000000

   i | type | coordinates
 -----------------------------------------------------------------------
   1 |    2 |                     11.7900000    12.0500000    11.5000000
   2 |    1 |                     13.4500000    11.2200000    11.5000000
   3 |    1 |                     10.5600000    10.6600000    11.5000000
   4 |    2 |                     11.7900000    12.0500000    19.0000000
   5 |    1 |                     13.4500000    11.2200000    19.0000000
   6 |    1 |                     10.5600000    10.6600000    19.0000000

%%%% SYSTEM %%%%%%%%%%%%%%%%%%%%%%%%%%%%%%%%%%%%%%%%%%%%%%%%%%%%%%%%%%%%%%%%%%%%

 system is built from all present ionic types

 system defined dimension   =              0
 system defined axis        =              3

 system center              =     11.8437500    11.7725000    15.2500000
 system width               =      4.1168156

%%%% BOUNDARY %%%%%%%%%%%%%%%%%%%%%%%%%%%%%%%%%%%%%%%%%%%%%%%%%%%%%%%%%%%%%%%%%%

 boundary label             = solvent             
 boundary mode              = ionic               

 boundary is built from soft-spheres centered on ionic positions:
 solvent-dependent scaling  =      1.0000000
 softness parameter         =      0.5000000

 volume of the QM region    =    423.7669415

 surface of the QM region   =    345.6266560

%%%% CELL %%%%%%%%%%%%%%%%%%%%%%%%%%%%%%%%%%%%%%%%%%%%%%%%%%%%%%%%%%%%%%%%%%%%%%

 cell label                 = system         

 cell volume                =   15625.000000

%%%% ELECTRONS %%%%%%%%%%%%%%%%%%%%%%%%%%%%%%%%%%%%%%%%%%%%%%%%%%%%%%%%%%%%%%%%%

 number of electrons        =             16

 total electronic charge    =     16.0000000

%%%% ELECTRONS %%%%%%%%%%%%%%%%%%%%%%%%%%%%%%%%%%%%%%%%%%%%%%%%%%%%%%%%%%%%%%%%%

 number of electrons        =             16

 total electronic charge    =     16.0000000

%%%% DENSITY %%%%%%%%%%%%%%%%%%%%%%%%%%%%%%%%%%%%%%%%%%%%%%%%%%%%%%%%%%%%%%%%%%%

 density label              = dvtot                                             

 integral of density        =    0.000000000    

%%%% ELECTRONS %%%%%%%%%%%%%%%%%%%%%%%%%%%%%%%%%%%%%%%%%%%%%%%%%%%%%%%%%%%%%%%%%

 number of electrons        =             16

 total electronic charge    =     16.0000000

%%%% ELECTRONS %%%%%%%%%%%%%%%%%%%%%%%%%%%%%%%%%%%%%%%%%%%%%%%%%%%%%%%%%%%%%%%%%

 number of electrons        =             16

 total electronic charge    =     16.0000000

%%%% DENSITY %%%%%%%%%%%%%%%%%%%%%%%%%%%%%%%%%%%%%%%%%%%%%%%%%%%%%%%%%%%%%%%%%%%

 density label              = dvtot                                             

 integral of density        =    0.000000000    

%%%% ELECTRONS %%%%%%%%%%%%%%%%%%%%%%%%%%%%%%%%%%%%%%%%%%%%%%%%%%%%%%%%%%%%%%%%%

 number of electrons        =             16

 total electronic charge    =     16.0000000

%%%% ELECTRONS %%%%%%%%%%%%%%%%%%%%%%%%%%%%%%%%%%%%%%%%%%%%%%%%%%%%%%%%%%%%%%%%%

 number of electrons        =             16

 total electronic charge    =     16.0000000

%%%% DENSITY %%%%%%%%%%%%%%%%%%%%%%%%%%%%%%%%%%%%%%%%%%%%%%%%%%%%%%%%%%%%%%%%%%%

 density label              = dvtot                                             

 integral of density        =    0.000000000    

%%%% ELECTRONS %%%%%%%%%%%%%%%%%%%%%%%%%%%%%%%%%%%%%%%%%%%%%%%%%%%%%%%%%%%%%%%%%

 number of electrons        =             16

 total electronic charge    =     16.0000000

%%%% ELECTRONS %%%%%%%%%%%%%%%%%%%%%%%%%%%%%%%%%%%%%%%%%%%%%%%%%%%%%%%%%%%%%%%%%

 number of electrons        =             16

 total electronic charge    =     16.0000000

%%%% DENSITY %%%%%%%%%%%%%%%%%%%%%%%%%%%%%%%%%%%%%%%%%%%%%%%%%%%%%%%%%%%%%%%%%%%

 density label              = dvtot                                             

 integral of density        =    0.000000000    

%%%% ELECTRONS %%%%%%%%%%%%%%%%%%%%%%%%%%%%%%%%%%%%%%%%%%%%%%%%%%%%%%%%%%%%%%%%%

 number of electrons        =             16

 total electronic charge    =     16.0000000

%%%% ELECTRONS %%%%%%%%%%%%%%%%%%%%%%%%%%%%%%%%%%%%%%%%%%%%%%%%%%%%%%%%%%%%%%%%%

 number of electrons        =             16

 total electronic charge    =     16.0000000

%%%% DENSITY %%%%%%%%%%%%%%%%%%%%%%%%%%%%%%%%%%%%%%%%%%%%%%%%%%%%%%%%%%%%%%%%%%%

 density label              = dvtot                                             

 integral of density        =    0.000000000    
