
     Program PWSCF v.6.7MaX starts on 22Jan2021 at 12:37:10 

     This program is part of the open-source Quantum ESPRESSO suite
     for quantum simulation of materials; please cite
         "P. Giannozzi et al., J. Phys.:Condens. Matter 21 395502 (2009);
         "P. Giannozzi et al., J. Phys.:Condens. Matter 29 465901 (2017);
          URL http://www.quantum-espresso.org", 
     in publications or presentations arising from this work. More details at
     http://www.quantum-espresso.org/quote

     Parallel version (MPI), running on     1 processors

     MPI processes distributed on     1 nodes
     Reading input from pw.in

     Current dimensions of program PWSCF are:
     Max number of different atomic species (ntypx) = 10
     Max number of k-points (npk) =  40000
     Max angular momentum in pseudopotentials (lmaxx) =  3
     file H.pbe-rrkjus.UPF: wavefunction(s)  1S renormalized
     file O.pbe-rrkjus.UPF: wavefunction(s)  2S renormalized

     gamma-point specific algorithms are used

     Subspace diagonalization in iterative solution of the eigenvalue problem:
     a serial algorithm will be used


     G-vector sticks info
     --------------------
     sticks:   dense  smooth     PW     G-vecs:    dense   smooth      PW
     Sum       14913    5973   1481              1371481   346971   43387



     bravais-lattice index     =            1
     lattice parameter (alat)  =      25.0000  a.u.
     unit-cell volume          =   15625.0000 (a.u.)^3
     number of atoms/cell      =            6
     number of atomic types    =            2
     number of electrons       =        16.00
     number of Kohn-Sham states=            8
     kinetic-energy cutoff     =      30.0000  Ry
     charge density cutoff     =     300.0000  Ry
     scf convergence threshold =      5.0E-03
     mixing beta               =       0.7000
     number of iterations used =            8  plain     mixing
     Exchange-correlation= SLA  PW   PBE  PBE
                           (   1   4   3   4   0   0   0)


     Environ Module
     ==============

     Plese cite
         O. Andreussi, I. Dabo and N. Marzari, J. Chem. Phys. 136, 064102 (2012)         
     in publications or presentations arising from this work.

     compensation onset threshold      =               0.1000E+03 
     switching function adopted        =                     SCCS 
     density limit for vacuum region   =               0.5000E-02 
     density limit for bulk solvent    =               0.1000E-03 
     interface is solvent aware            
     surface tension in input (dyn/cm) =                   100.00 
     surface tension in internal units =               0.1285E-03 
     external pressure in input (GPa)  =                     0.50 
     external pressure in inter. units =               0.3399E-04 



     celldm(1)=  25.000000  celldm(2)=   0.000000  celldm(3)=   0.000000
     celldm(4)=   0.000000  celldm(5)=   0.000000  celldm(6)=   0.000000

     crystal axes: (cart. coord. in units of alat)
               a(1) = (   1.000000   0.000000   0.000000 )  
               a(2) = (   0.000000   1.000000   0.000000 )  
               a(3) = (   0.000000   0.000000   1.000000 )  

     reciprocal axes: (cart. coord. in units 2 pi/alat)
               b(1) = (  1.000000  0.000000  0.000000 )  
               b(2) = (  0.000000  1.000000  0.000000 )  
               b(3) = (  0.000000  0.000000  1.000000 )  


     PseudoPot. # 1 for H  read from file:
     /Users/gabrielmedrano/Desktop/q-e/Environ/tests/../..//pseudo/H.pbe-rrkjus.UPF
     MD5 check sum: 2d52a7f45632fd764c17cc6affed14c8
     Pseudo is Ultrasoft, Zval =  1.0
     Generated by new atomic code, or converted to UPF format
     Using radial grid of 1061 points,  2 beta functions with: 
                l(1) =   0
                l(2) =   0
     Q(r) pseudized with 0 coefficients 


     PseudoPot. # 2 for O  read from file:
     /Users/gabrielmedrano/Desktop/q-e/Environ/tests/../..//pseudo/O.pbe-rrkjus.UPF
     MD5 check sum: fadcf19ee70a498d3030e2e79cf929a4
     Pseudo is Ultrasoft, Zval =  6.0
     Generated by new atomic code, or converted to UPF format
     Using radial grid of 1269 points,  4 beta functions with: 
                l(1) =   0
                l(2) =   0
                l(3) =   1
                l(4) =   1
     Q(r) pseudized with 0 coefficients 


     atomic species   valence    mass     pseudopotential
        H              1.00     1.00000     H ( 1.00)
        O              6.00    16.00000     O ( 1.00)

     No symmetry found



   Cartesian axes

     site n.     atom                  positions (alat units)
         1           O   tau(   1) = (   0.4716000   0.4820000   0.4600000  )
         2           H   tau(   2) = (   0.5380000   0.4488000   0.4600000  )
         3           H   tau(   3) = (   0.4224000   0.4264000   0.4600000  )
         4           O   tau(   4) = (   0.4716000   0.4820000   0.7600000  )
         5           H   tau(   5) = (   0.5380000   0.4488000   0.7600000  )
         6           H   tau(   6) = (   0.4224000   0.4264000   0.7600000  )

     number of k points=     1
                       cart. coord. in units 2pi/alat
        k(    1) = (   0.0000000   0.0000000   0.0000000), wk =   2.0000000

     Dense  grid:   685741 G-vectors     FFT dimensions: ( 144, 144, 144)

     Smooth grid:   173486 G-vectors     FFT dimensions: (  90,  90,  90)

     Estimated max dynamical RAM per process >       1.05 GB

     Initial potential from superposition of free atoms

     starting charge   15.61518, renormalised to   16.00000

     negative rho (up, down):  1.498E-03 0.000E+00
     Starting wfcs are   12 randomized atomic wfcs

     total cpu time spent up to now is       12.6 secs

     Self-consistent Calculation

     iteration #  1     ecut=    30.00 Ry     beta= 0.70
     Davidson diagonalization with overlap
     ethr =  1.00E-02,  avg # of iterations =  2.0

     negative rho (up, down):  5.093E-04 0.000E+00

     add environment contribution to local potential

     total cpu time spent up to now is       25.3 secs

     total energy              =     -68.02024845 Ry
     estimated scf accuracy    <       1.32250631 Ry
     cavitation energy         =       0.07763573 Ry
     PV energy                 =       0.04647329 Ry
     correction to one-el term =      -0.00000000 Ry

     iteration #  2     ecut=    30.00 Ry     beta= 0.70
     Davidson diagonalization with overlap
     ethr =  8.27E-03,  avg # of iterations =  2.0

     negative rho (up, down):  6.477E-03 0.000E+00

     add environment contribution to local potential

     total cpu time spent up to now is       38.0 secs

     total energy              =     -68.35330039 Ry
     estimated scf accuracy    <       0.68133101 Ry
     cavitation energy         =       0.04479146 Ry
     PV energy                 =       0.01782371 Ry
     correction to one-el term =      -0.02626749 Ry

     iteration #  3     ecut=    30.00 Ry     beta= 0.70
     Davidson diagonalization with overlap
     ethr =  4.26E-03,  avg # of iterations =  2.0

     negative rho (up, down):  9.424E-04 0.000E+00

     add environment contribution to local potential

     total cpu time spent up to now is       50.4 secs

     total energy              =     -68.46978499 Ry
     estimated scf accuracy    <       0.01608536 Ry
     cavitation energy         =       0.04639606 Ry
     PV energy                 =       0.01872607 Ry
     correction to one-el term =      -0.02193895 Ry

     iteration #  4     ecut=    30.00 Ry     beta= 0.70
     Davidson diagonalization with overlap
     ethr =  1.01E-04,  avg # of iterations =  2.0

     negative rho (up, down):  4.343E-04 0.000E+00

     total cpu time spent up to now is       62.0 secs

     End of self-consistent calculation

          k = 0.0000 0.0000 0.0000 ( 21694 PWs)   bands (ev):

   -24.9160 -24.9093 -12.7634 -12.7510  -8.9505  -8.9282  -7.0151  -6.8458

     highest occupied level (ev):    -6.8458

!    total energy              =     -68.47101610 Ry
     estimated scf accuracy    <       0.00163156 Ry

     The total energy is the sum of the following terms:
     one-electron contribution =    -142.02685222 Ry
     hartree contribution      =      74.20150526 Ry
     xc contribution           =     -16.83902975 Ry
     ewald contribution        =      16.14879542 Ry
     cavitation energy         =       0.04414773 Ry
     PV energy                 =       0.01686407 Ry
     correction to one-el term =      -0.01644662 Ry

     convergence has been achieved in   4 iterations

     Forces acting on atoms (cartesian axes, Ry/au):

     atom    1 type  2   force =     0.00374878   -0.01994047    0.00016388
     atom    2 type  1   force =    -0.02221913    0.00601790    0.00036779
     atom    3 type  1   force =     0.01845874    0.01396851    0.00036679
     atom    4 type  2   force =     0.00376841   -0.02001881    0.00061009
     atom    5 type  1   force =    -0.02220903    0.00601224   -0.00075471
     atom    6 type  1   force =     0.01845223    0.01396063   -0.00075384

     Total force =     0.054396     Total SCF correction =     0.055041
     SCF correction compared to forces is large: reduce conv_thr to get better values

     Writing output data file /Users/gabrielmedrano/Desktop/q-e/Environ/tests/../..//tempdir/pwscf.save/

     init_run     :     11.45s CPU     12.52s WALL (       1 calls)
     electrons    :     47.66s CPU     49.44s WALL (       1 calls)
     forces       :      1.25s CPU      1.46s WALL (       1 calls)

     Called by init_run:
     wfcinit      :      0.14s CPU      0.15s WALL (       1 calls)
     potinit      :      9.67s CPU     10.32s WALL (       1 calls)
     hinit0       :      0.63s CPU      0.71s WALL (       1 calls)

     Called by electrons:
     c_bands      :      1.10s CPU      0.98s WALL (       4 calls)
     sum_band     :      4.51s CPU      3.10s WALL (       4 calls)
     v_of_rho     :      5.65s CPU      6.43s WALL (       5 calls)
     newd         :      1.97s CPU      2.70s WALL (       5 calls)
     mix_rho      :      0.59s CPU      0.66s WALL (       4 calls)

     Called by c_bands:
     init_us_2    :      0.04s CPU      0.04s WALL (       9 calls)
     regterg      :      1.05s CPU      0.93s WALL (       4 calls)

     Called by *egterg:
     rdiaghg      :      0.00s CPU      0.00s WALL (      12 calls)
     h_psi        :      1.01s CPU      0.96s WALL (      13 calls)
     s_psi        :      0.06s CPU      0.01s WALL (      13 calls)
     g_psi        :      0.01s CPU      0.01s WALL (       8 calls)

     Called by h_psi:
     h_psi:calbec :      0.01s CPU      0.01s WALL (      13 calls)
     vloc_psi     :      0.89s CPU      0.90s WALL (      13 calls)
     add_vuspsi   :      0.10s CPU      0.04s WALL (      13 calls)

     General routines
     calbec       :      0.02s CPU      0.02s WALL (      21 calls)
     fft          :     33.20s CPU     34.32s WALL (     326 calls)
     ffts         :      0.10s CPU      0.10s WALL (       9 calls)
     fftw         :      0.82s CPU      0.83s WALL (     120 calls)
     interpolate  :      0.56s CPU      0.64s WALL (       5 calls)

     Parallel routines
     fft_scatt_xy :      2.63s CPU      2.64s WALL (     269 calls)
     fft_scatt_yz :      3.73s CPU      3.75s WALL (     269 calls)

     Environ routines

     PWSCF        :   1m 0.43s CPU   1m 3.62s WALL


   This run was terminated on:  12:38:13  22Jan2021            

=------------------------------------------------------------------------------=
   JOB DONE.
=------------------------------------------------------------------------------=
 Calling electrostatic_initbase now
 electrolyte_distance:    0.0000000000000000     
 sc_distance:    0.0000000000000000     

%%%% IONS %%%%%%%%%%%%%%%%%%%%%%%%%%%%%%%%%%%%%%%%%%%%%%%%%%%%%%%%%%%%%%%%%%%%%%
 number of ions             =          6
 ionic center of charge     =      0.4737500     0.4709000     0.6100000
 total ionic charge         =    -16.0000000
 ionic dipole               =      0.0000000     0.0000000     0.0000000
 ionic quadrupole (pc)      =     -8.4907750    -4.0099000  -225.0000000
 ion   1 type =  2 coordinates =     11.7900000    12.0500000    11.5000000
 ion   2 type =  1 coordinates =     13.4500000    11.2200000    11.5000000
 ion   3 type =  1 coordinates =     10.5600000    10.6600000    11.5000000
 ion   4 type =  2 coordinates =     11.7900000    12.0500000    19.0000000
 ion   5 type =  1 coordinates =     13.4500000    11.2200000    19.0000000
 ion   6 type =  1 coordinates =     10.5600000    10.6600000    19.0000000

%%%% SYSTEM %%%%%%%%%%%%%%%%%%%%%%%%%%%%%%%%%%%%%%%%%%%%%%%%%%%%%%%%%%%%%%%%%%%%
 system is built from all present ionic types
 system defined dimension   =  0 
 system defined axis        =  3 
 system center              =      0.4737500     0.4709000     0.6100000 
 system width               =      0.1646726 

%%%% IONS %%%%%%%%%%%%%%%%%%%%%%%%%%%%%%%%%%%%%%%%%%%%%%%%%%%%%%%%%%%%%%%%%%%%%%
 number of ions             =          6
 ionic center of charge     =      0.4737500     0.4709000     0.6100000
 total ionic charge         =    -16.0000000
 ionic dipole               =      0.0000000     0.0000000     0.0000000
 ionic quadrupole (pc)      =     -8.4907750    -4.0099000  -225.0000000
 ion   1 type =  2 coordinates =     11.7900000    12.0500000    11.5000000
 ion   2 type =  1 coordinates =     13.4500000    11.2200000    11.5000000
 ion   3 type =  1 coordinates =     10.5600000    10.6600000    11.5000000
 ion   4 type =  2 coordinates =     11.7900000    12.0500000    19.0000000
 ion   5 type =  1 coordinates =     13.4500000    11.2200000    19.0000000
 ion   6 type =  1 coordinates =     10.5600000    10.6600000    19.0000000

%%%% SYSTEM %%%%%%%%%%%%%%%%%%%%%%%%%%%%%%%%%%%%%%%%%%%%%%%%%%%%%%%%%%%%%%%%%%%%
 system is built from all present ionic types
 system defined dimension   =  0 
 system defined axis        =  3 
 system center              =      0.4737500     0.4709000     0.6100000 
 system width               =      0.1646726 

%%%% ELECTRONS %%%%%%%%%%%%%%%%%%%%%%%%%%%%%%%%%%%%%%%%%%%%%%%%%%%%%%%%%%%%%%%%%
 number of electrons        =         16
 total electronic charge    =     16.0000000

%%%% ELECTRONS %%%%%%%%%%%%%%%%%%%%%%%%%%%%%%%%%%%%%%%%%%%%%%%%%%%%%%%%%%%%%%%%%
 number of electrons        =         16
 total electronic charge    =     16.0000000

%%%% BOUNDARY %%%%%%%%%%%%%%%%%%%%%%%%%%%%%%%%%%%%%%%%%%%%%%%%%%%%%%%%%%%%%%%%%%
 boundary label             = solvent              
 boundary mode              = electronic           
 boundary is built as a function of a smooth density
 function type              =  1 
 using the optimal SCCS function with parameters 
 rhomax                     =      0.0050000 
 rhomin                     =      0.0001000 
 volume of the QM region    =   1367.2912353 
 surface of the QM region   =    604.3525899 
 using solvent-aware boundary           
 filling threshold          =      0.3000000 
 filling spread             =      0.0200000 
 solvent radius x rad scale =      6.0000000 
 spread of solvent probe    =      0.5000000 

%%%% DENSITY %%%%%%%%%%%%%%%%%%%%%%%%%%%%%%%%%%%%%%%%%%%%%%%%%%%%%%%%%%%%%%%%%%%
 density label              = dvtot                                                                           
 integral of density        =      0.000000000    

%%%% DENSITY %%%%%%%%%%%%%%%%%%%%%%%%%%%%%%%%%%%%%%%%%%%%%%%%%%%%%%%%%%%%%%%%%%%
 density label              = vsoftcavity                                                                     
 integral of density        =      0.000000000    

%%%% ELECTRONS %%%%%%%%%%%%%%%%%%%%%%%%%%%%%%%%%%%%%%%%%%%%%%%%%%%%%%%%%%%%%%%%%
 number of electrons        =         16
 total electronic charge    =     16.0000000

%%%% ELECTRONS %%%%%%%%%%%%%%%%%%%%%%%%%%%%%%%%%%%%%%%%%%%%%%%%%%%%%%%%%%%%%%%%%
 number of electrons        =         16
 total electronic charge    =     16.0000000

%%%% BOUNDARY %%%%%%%%%%%%%%%%%%%%%%%%%%%%%%%%%%%%%%%%%%%%%%%%%%%%%%%%%%%%%%%%%%
 boundary label             = solvent              
 boundary mode              = electronic           
 boundary is built as a function of a smooth density
 function type              =  1 
 using the optimal SCCS function with parameters 
 rhomax                     =      0.0050000 
 rhomin                     =      0.0001000 
 volume of the QM region    =    524.3914350 
 surface of the QM region   =    348.6774967 
 using solvent-aware boundary           
 filling threshold          =      0.3000000 
 filling spread             =      0.0200000 
 solvent radius x rad scale =      6.0000000 
 spread of solvent probe    =      0.5000000 

%%%% DENSITY %%%%%%%%%%%%%%%%%%%%%%%%%%%%%%%%%%%%%%%%%%%%%%%%%%%%%%%%%%%%%%%%%%%
 density label              = vsoftcavity                                                                     
 integral of density        =      70.06886696    

%%%% DENSITY %%%%%%%%%%%%%%%%%%%%%%%%%%%%%%%%%%%%%%%%%%%%%%%%%%%%%%%%%%%%%%%%%%%
 density label              = dvtot                                                                           
 integral of density        =      70.06886696    

%%%% ELECTRONS %%%%%%%%%%%%%%%%%%%%%%%%%%%%%%%%%%%%%%%%%%%%%%%%%%%%%%%%%%%%%%%%%
 number of electrons        =         16
 total electronic charge    =     16.0000000

%%%% ELECTRONS %%%%%%%%%%%%%%%%%%%%%%%%%%%%%%%%%%%%%%%%%%%%%%%%%%%%%%%%%%%%%%%%%
 number of electrons        =         16
 total electronic charge    =     16.0000000

%%%% BOUNDARY %%%%%%%%%%%%%%%%%%%%%%%%%%%%%%%%%%%%%%%%%%%%%%%%%%%%%%%%%%%%%%%%%%
 boundary label             = solvent              
 boundary mode              = electronic           
 boundary is built as a function of a smooth density
 function type              =  1 
 using the optimal SCCS function with parameters 
 rhomax                     =      0.0050000 
 rhomin                     =      0.0001000 
 volume of the QM region    =    550.9399215 
 surface of the QM region   =    361.1684517 
 using solvent-aware boundary           
 filling threshold          =      0.3000000 
 filling spread             =      0.0200000 
 solvent radius x rad scale =      6.0000000 
 spread of solvent probe    =      0.5000000 

%%%% DENSITY %%%%%%%%%%%%%%%%%%%%%%%%%%%%%%%%%%%%%%%%%%%%%%%%%%%%%%%%%%%%%%%%%%%
 density label              = vsoftcavity                                                                     
 integral of density        =      51.23411190    

%%%% DENSITY %%%%%%%%%%%%%%%%%%%%%%%%%%%%%%%%%%%%%%%%%%%%%%%%%%%%%%%%%%%%%%%%%%%
 density label              = dvtot                                                                           
 integral of density        =      51.23411190    

%%%% ELECTRONS %%%%%%%%%%%%%%%%%%%%%%%%%%%%%%%%%%%%%%%%%%%%%%%%%%%%%%%%%%%%%%%%%
 number of electrons        =         16
 total electronic charge    =     16.0000000

%%%% ELECTRONS %%%%%%%%%%%%%%%%%%%%%%%%%%%%%%%%%%%%%%%%%%%%%%%%%%%%%%%%%%%%%%%%%
 number of electrons        =         16
 total electronic charge    =     16.0000000

%%%% BOUNDARY %%%%%%%%%%%%%%%%%%%%%%%%%%%%%%%%%%%%%%%%%%%%%%%%%%%%%%%%%%%%%%%%%%
 boundary label             = solvent              
 boundary mode              = electronic           
 boundary is built as a function of a smooth density
 function type              =  1 
 using the optimal SCCS function with parameters 
 rhomax                     =      0.0050000 
 rhomin                     =      0.0001000 
 volume of the QM region    =    496.1580708 
 surface of the QM region   =    343.6664214 
 using solvent-aware boundary           
 filling threshold          =      0.3000000 
 filling spread             =      0.0200000 
 solvent radius x rad scale =      6.0000000 
 spread of solvent probe    =      0.5000000 

%%%% DENSITY %%%%%%%%%%%%%%%%%%%%%%%%%%%%%%%%%%%%%%%%%%%%%%%%%%%%%%%%%%%%%%%%%%%
 density label              = vsoftcavity                                                                     
 integral of density        =      32.60983943    

%%%% DENSITY %%%%%%%%%%%%%%%%%%%%%%%%%%%%%%%%%%%%%%%%%%%%%%%%%%%%%%%%%%%%%%%%%%%
 density label              = dvtot                                                                           
 integral of density        =      32.60983943    

%%%% ELECTRONS %%%%%%%%%%%%%%%%%%%%%%%%%%%%%%%%%%%%%%%%%%%%%%%%%%%%%%%%%%%%%%%%%
 number of electrons        =         16
 total electronic charge    =     16.0000000

%%%% ELECTRONS %%%%%%%%%%%%%%%%%%%%%%%%%%%%%%%%%%%%%%%%%%%%%%%%%%%%%%%%%%%%%%%%%
 number of electrons        =         16
 total electronic charge    =     16.0000000

%%%% BOUNDARY %%%%%%%%%%%%%%%%%%%%%%%%%%%%%%%%%%%%%%%%%%%%%%%%%%%%%%%%%%%%%%%%%%
 boundary label             = solvent              
 boundary mode              = electronic           
 boundary is built as a function of a smooth density
 function type              =  1 
 using the optimal SCCS function with parameters 
 rhomax                     =      0.0050000 
 rhomin                     =      0.0001000 
 volume of the QM region    =    496.1580708 
 surface of the QM region   =    343.6664214 
 using solvent-aware boundary           
 filling threshold          =      0.3000000 
 filling spread             =      0.0200000 
 solvent radius x rad scale =      6.0000000 
 spread of solvent probe    =      0.5000000 

%%%% DENSITY %%%%%%%%%%%%%%%%%%%%%%%%%%%%%%%%%%%%%%%%%%%%%%%%%%%%%%%%%%%%%%%%%%%
 density label              = dvtot                                                                           
 integral of density        =      32.60983943    

%%%% DENSITY %%%%%%%%%%%%%%%%%%%%%%%%%%%%%%%%%%%%%%%%%%%%%%%%%%%%%%%%%%%%%%%%%%%
 density label              = vsoftcavity                                                                     
 integral of density        =      32.60983943    
