
     Program PWSCF v.6.3MaX starts on 21Apr2019 at 23:43: 5 

     This program is part of the open-source Quantum ESPRESSO suite
     for quantum simulation of materials; please cite
         "P. Giannozzi et al., J. Phys.:Condens. Matter 21 395502 (2009);
         "P. Giannozzi et al., J. Phys.:Condens. Matter 29 465901 (2017);
          URL http://www.quantum-espresso.org", 
     in publications or presentations arising from this work. More details at
     http://www.quantum-espresso.org/quote

     Parallel version (MPI), running on     1 processors

     MPI processes distributed on     1 nodes
     Reading input from pw.in

     Current dimensions of program PWSCF are:
     Max number of different atomic species (ntypx) = 10
     Max number of k-points (npk) =  40000
     Max angular momentum in pseudopotentials (lmaxx) =  3
               file H.pbe-rrkjus.UPF: wavefunction(s)  1S renormalized
               file O.pbe-rrkjus.UPF: wavefunction(s)  2S renormalized

     gamma-point specific algorithms are used

     Subspace diagonalization in iterative solution of the eigenvalue problem:
     a serial algorithm will be used

 
     G-vector sticks info
     --------------------
     sticks:   dense  smooth     PW     G-vecs:    dense   smooth      PW
     Sum       14913    5973   1481              1371481   346971   43387
 


     bravais-lattice index     =            1
     lattice parameter (alat)  =      25.0000  a.u.
     unit-cell volume          =   15625.0000 (a.u.)^3
     number of atoms/cell      =            6
     number of atomic types    =            2
     number of electrons       =        16.00
     number of Kohn-Sham states=            8
     kinetic-energy cutoff     =      30.0000  Ry
     charge density cutoff     =     300.0000  Ry
     convergence threshold     =      5.0E-03
     mixing beta               =       0.7000
     number of iterations used =            8  plain     mixing
     Exchange-correlation      = SLA PW PBE PBE ( 1  4  3  4 0 0)
 

     Environ Module
     ==============

     Plese cite
         O. Andreussi, I. Dabo and N. Marzari, J. Chem. Phys. 136, 064102 (2012)         
     in publications or presentations arising from this work.

     compensation onset threshold      =               0.1000E+03 
     switching function adopted        =                     SCCS 
     density limit for vacuum region   =               0.5000E-02 
     density limit for bulk solvent    =               0.1000E-03 
     surface tension in input (dyn/cm) =                   100.00 
     surface tension in internal units =               0.1285E-03 
     external pressure in input (GPa)  =                     0.50 
     external pressure in inter. units =               0.3399E-04 



     celldm(1)=  25.000000  celldm(2)=   0.000000  celldm(3)=   0.000000
     celldm(4)=   0.000000  celldm(5)=   0.000000  celldm(6)=   0.000000

     crystal axes: (cart. coord. in units of alat)
               a(1) = (   1.000000   0.000000   0.000000 )  
               a(2) = (   0.000000   1.000000   0.000000 )  
               a(3) = (   0.000000   0.000000   1.000000 )  

     reciprocal axes: (cart. coord. in units 2 pi/alat)
               b(1) = (  1.000000  0.000000  0.000000 )  
               b(2) = (  0.000000  1.000000  0.000000 )  
               b(3) = (  0.000000  0.000000  1.000000 )  


     PseudoPot. # 1 for H  read from file:
     /home/fnattino/Programs/quantumespresso/q-e-qe-6.3-develop/Environ/tests/../..//pseudo/H.pbe-rrkjus.UPF
     MD5 check sum: 2d52a7f45632fd764c17cc6affed14c8
     Pseudo is Ultrasoft, Zval =  1.0
     Generated by new atomic code, or converted to UPF format
     Using radial grid of 1061 points,  2 beta functions with: 
                l(1) =   0
                l(2) =   0
     Q(r) pseudized with 0 coefficients 


     PseudoPot. # 2 for O  read from file:
     /home/fnattino/Programs/quantumespresso/q-e-qe-6.3-develop/Environ/tests/../..//pseudo/O.pbe-rrkjus.UPF
     MD5 check sum: fadcf19ee70a498d3030e2e79cf929a4
     Pseudo is Ultrasoft, Zval =  6.0
     Generated by new atomic code, or converted to UPF format
     Using radial grid of 1269 points,  4 beta functions with: 
                l(1) =   0
                l(2) =   0
                l(3) =   1
                l(4) =   1
     Q(r) pseudized with 0 coefficients 


     atomic species   valence    mass     pseudopotential
        H              1.00     1.00000     H ( 1.00)
        O              6.00    16.00000     O ( 1.00)

     No symmetry found



   Cartesian axes

     site n.     atom                  positions (alat units)
         1           O   tau(   1) = (   0.4716000   0.4820000   0.4600000  )
         2           H   tau(   2) = (   0.5380000   0.4488000   0.4600000  )
         3           H   tau(   3) = (   0.4224000   0.4264000   0.4600000  )
         4           O   tau(   4) = (   0.4716000   0.4820000   0.7600000  )
         5           H   tau(   5) = (   0.5380000   0.4488000   0.7600000  )
         6           H   tau(   6) = (   0.4224000   0.4264000   0.7600000  )

     number of k points=     1
                       cart. coord. in units 2pi/alat
        k(    1) = (   0.0000000   0.0000000   0.0000000), wk =   2.0000000

     Dense  grid:   685741 G-vectors     FFT dimensions: ( 144, 144, 144)

     Smooth grid:   173486 G-vectors     FFT dimensions: (  90,  90,  90)

     Estimated max dynamical RAM per process >       1.12 GB

     Initial potential from superposition of free atoms
     Check: negative starting charge=   -0.001462

     starting charge   15.61518, renormalised to   16.00000

     negative rho (up, down):  1.498E-03 0.000E+00
     Starting wfcs are   12 randomized atomic wfcs

     total cpu time spent up to now is        9.5 secs

     Self-consistent Calculation

     iteration #  1     ecut=    30.00 Ry     beta= 0.70
     Davidson diagonalization with overlap
     ethr =  1.00E-02,  avg # of iterations =  2.0

     negative rho (up, down):  5.178E-04 0.000E+00

     add environment contribution to local potential

     total cpu time spent up to now is       18.0 secs

     total energy              =     -68.00739136 Ry
     Harris-Foulkes estimate   =     -69.15229562 Ry
     estimated scf accuracy    <       1.34154011 Ry
     cavitation energy         =       0.07763573 Ry
     PV energy                 =       0.04647329 Ry
     correction to one-el term =       0.00000000 Ry

     iteration #  2     ecut=    30.00 Ry     beta= 0.70
     Davidson diagonalization with overlap
     ethr =  8.38E-03,  avg # of iterations =  2.0

     negative rho (up, down):  7.877E-03 0.000E+00

     add environment contribution to local potential

     total cpu time spent up to now is       26.7 secs

     total energy              =     -68.27651332 Ry
     Harris-Foulkes estimate   =     -68.75046709 Ry
     estimated scf accuracy    <       0.87505803 Ry
     cavitation energy         =       0.04465638 Ry
     PV energy                 =       0.01772303 Ry
     correction to one-el term =      -0.02618742 Ry

     iteration #  3     ecut=    30.00 Ry     beta= 0.70
     Davidson diagonalization with overlap
     ethr =  5.47E-03,  avg # of iterations =  2.0

     negative rho (up, down):  7.240E-04 0.000E+00

     add environment contribution to local potential

     total cpu time spent up to now is       35.1 secs

     total energy              =     -68.46703864 Ry
     Harris-Foulkes estimate   =     -68.52753262 Ry
     estimated scf accuracy    <       0.03225573 Ry
     cavitation energy         =       0.04683731 Ry
     PV energy                 =       0.01903277 Ry
     correction to one-el term =      -0.02277087 Ry

     iteration #  4     ecut=    30.00 Ry     beta= 0.70
     Davidson diagonalization with overlap
     ethr =  2.02E-04,  avg # of iterations =  2.0

     negative rho (up, down):  4.383E-04 0.000E+00

     total cpu time spent up to now is       43.0 secs

     End of self-consistent calculation

          k = 0.0000 0.0000 0.0000 ( 21694 PWs)   bands (ev):

   -24.8102 -24.8034 -12.7016 -12.6889  -8.8463  -8.8234  -6.9043  -6.7301

     highest occupied level (ev):    -6.7301

!    total energy              =     -68.47159305 Ry
     Harris-Foulkes estimate   =     -68.51623203 Ry
     estimated scf accuracy    <       0.00036030 Ry

     The total energy is the sum of the following terms:

     one-electron contribution =    -141.75531042 Ry
     hartree contribution      =      73.86560201 Ry
     xc contribution           =     -16.77520056 Ry
     ewald contribution        =      16.14879542 Ry
     cavitation energy         =       0.04418546 Ry
     PV energy                 =       0.01690228 Ry
     correction to one-el term =      -0.01656724 Ry

     convergence has been achieved in   4 iterations

     Forces acting on atoms (cartesian axes, Ry/au):

     atom    1 type  2   force =     0.00373500   -0.01986012   -0.00013163
     atom    2 type  1   force =    -0.01623704    0.00712751    0.00026698
     atom    3 type  1   force =     0.01249589    0.01276486    0.00026675
     atom    4 type  2   force =     0.00374547   -0.01990854    0.00086783
     atom    5 type  1   force =    -0.01622926    0.00712115   -0.00063539
     atom    6 type  1   force =     0.01248993    0.01275514   -0.00063453

     Total force =     0.045681     Total SCF correction =     0.029295
     SCF correction compared to forces is large: reduce conv_thr to get better values

     Writing output data file pwscf.save/
 
     init_run     :      8.07s CPU      9.19s WALL (       1 calls)
     electrons    :     29.92s CPU     33.50s WALL (       1 calls)
     forces       :      0.81s CPU      0.97s WALL (       1 calls)

     Called by init_run:
     wfcinit      :      0.16s CPU      0.16s WALL (       1 calls)
     potinit      :      6.59s CPU      7.31s WALL (       1 calls)
     hinit0       :      0.78s CPU      0.81s WALL (       1 calls)

     Called by electrons:
     c_bands      :      1.19s CPU      1.20s WALL (       4 calls)
     sum_band     :      1.85s CPU      2.42s WALL (       4 calls)
     v_of_rho     :      3.80s CPU      4.28s WALL (       5 calls)
     newd         :      1.40s CPU      2.14s WALL (       5 calls)
     mix_rho      :      0.36s CPU      0.36s WALL (       4 calls)

     Called by c_bands:
     init_us_2    :      0.04s CPU      0.04s WALL (       9 calls)
     regterg      :      1.14s CPU      1.15s WALL (       4 calls)

     Called by sum_band:
     sum_band:bec :      0.00s CPU      0.00s WALL (       4 calls)
     addusdens    :      1.33s CPU      1.90s WALL (       4 calls)

     Called by *egterg:
     h_psi        :      1.19s CPU      1.20s WALL (      13 calls)
     s_psi        :      0.02s CPU      0.01s WALL (      13 calls)
     g_psi        :      0.01s CPU      0.01s WALL (       8 calls)
     rdiaghg      :      0.00s CPU      0.00s WALL (      12 calls)

     Called by h_psi:
     h_psi:pot    :      1.19s CPU      1.20s WALL (      13 calls)
     h_psi:calbec :      0.01s CPU      0.02s WALL (      13 calls)
     vloc_psi     :      1.16s CPU      1.17s WALL (      13 calls)
     add_vuspsi   :      0.02s CPU      0.02s WALL (      13 calls)

     General routines
     calbec       :      0.02s CPU      0.02s WALL (      21 calls)
     fft          :     11.82s CPU     11.88s WALL (     325 calls)
     ffts         :      0.07s CPU      0.08s WALL (       9 calls)
     fftw         :      1.08s CPU      1.10s WALL (     122 calls)
     interpolate  :      0.29s CPU      0.34s WALL (       5 calls)
 
     Parallel routines
 
     Environ routines
 
     PWSCF        :    39.15s CPU        44.07s WALL

 
   This run was terminated on:  23:43:49  21Apr2019            

=------------------------------------------------------------------------------=
   JOB DONE.
=------------------------------------------------------------------------------=

%%%% IONS %%%%%%%%%%%%%%%%%%%%%%%%%%%%%%%%%%%%%%%%%%%%%%%%%%%%%%%%%%%%%%%%%%%%%%
 number of ions             =          6
 ionic center of charge     =      0.4737500     0.4709000     0.6100000
 total ionic charge         =    -16.0000000
 ionic dipole               =      0.0000000     0.0000000     0.0000000
 ionic quadrupole (pc)      =     -8.4907750    -4.0099000  -225.0000000
 ion   1 type =  2 coordinates =     11.7900000    12.0500000    11.5000000
 ion   2 type =  1 coordinates =     13.4500000    11.2200000    11.5000000
 ion   3 type =  1 coordinates =     10.5600000    10.6600000    11.5000000
 ion   4 type =  2 coordinates =     11.7900000    12.0500000    19.0000000
 ion   5 type =  1 coordinates =     13.4500000    11.2200000    19.0000000
 ion   6 type =  1 coordinates =     10.5600000    10.6600000    19.0000000

%%%% SYSTEM %%%%%%%%%%%%%%%%%%%%%%%%%%%%%%%%%%%%%%%%%%%%%%%%%%%%%%%%%%%%%%%%%%%%
 system is built from all present ionic types
 system defined dimension   =  0 
 system defined axis        =  3 
 system center              =      0.4737500     0.4709000     0.6100000 
 system width               =      0.1646726 

%%%% ELECTRONS %%%%%%%%%%%%%%%%%%%%%%%%%%%%%%%%%%%%%%%%%%%%%%%%%%%%%%%%%%%%%%%%%
 number of electrons        =         16
 total electronic charge    =     16.0000000
 number of spin components  =  1

%%%% BOUNDARY %%%%%%%%%%%%%%%%%%%%%%%%%%%%%%%%%%%%%%%%%%%%%%%%%%%%%%%%%%%%%%%%%%
 boundary label             = solvent              
 boundary mode              = electronic           
 boundary is built as a function of a smooth density
 function type              =  1 
 using the optimal SCCS function with parameters 
 rhomax                     =      0.0050000 
 rhomin                     =      0.0001000 
 volume of the QM region    =   1367.2912353 
 surface of the QM region   =    604.3525899 
 using solvent-aware boundary           
 filling threshold          =      0.3000000 
 filling spread             =      0.0200000 
 solvent radius x rad scale =      6.0000000 
 spread of solvent probe    =      0.5000000 

%%%% DENSITY %%%%%%%%%%%%%%%%%%%%%%%%%%%%%%%%%%%%%%%%%%%%%%%%%%%%%%%%%%%%%%%%%%%
 density label              = vsoftcavity                                                                     
 integral of density        =      0.000000000    

%%%% ELECTRONS %%%%%%%%%%%%%%%%%%%%%%%%%%%%%%%%%%%%%%%%%%%%%%%%%%%%%%%%%%%%%%%%%
 number of electrons        =         16
 total electronic charge    =     16.0000000
 number of spin components  =  1

%%%% BOUNDARY %%%%%%%%%%%%%%%%%%%%%%%%%%%%%%%%%%%%%%%%%%%%%%%%%%%%%%%%%%%%%%%%%%
 boundary label             = solvent              
 boundary mode              = electronic           
 boundary is built as a function of a smooth density
 function type              =  1 
 using the optimal SCCS function with parameters 
 rhomax                     =      0.0050000 
 rhomin                     =      0.0001000 
 volume of the QM region    =    521.4295189 
 surface of the QM region   =    347.6259568 
 using solvent-aware boundary           
 filling threshold          =      0.3000000 
 filling spread             =      0.0200000 
 solvent radius x rad scale =      6.0000000 
 spread of solvent probe    =      0.5000000 

%%%% DENSITY %%%%%%%%%%%%%%%%%%%%%%%%%%%%%%%%%%%%%%%%%%%%%%%%%%%%%%%%%%%%%%%%%%%
 density label              = vsoftcavity                                                                     
 integral of density        =      69.95550441    

%%%% ELECTRONS %%%%%%%%%%%%%%%%%%%%%%%%%%%%%%%%%%%%%%%%%%%%%%%%%%%%%%%%%%%%%%%%%
 number of electrons        =         16
 total electronic charge    =     16.0000000
 number of spin components  =  1

%%%% BOUNDARY %%%%%%%%%%%%%%%%%%%%%%%%%%%%%%%%%%%%%%%%%%%%%%%%%%%%%%%%%%%%%%%%%%
 boundary label             = solvent              
 boundary mode              = electronic           
 boundary is built as a function of a smooth density
 function type              =  1 
 using the optimal SCCS function with parameters 
 rhomax                     =      0.0050000 
 rhomin                     =      0.0001000 
 volume of the QM region    =    559.9632854 
 surface of the QM region   =    364.6033874 
 using solvent-aware boundary           
 filling threshold          =      0.3000000 
 filling spread             =      0.0200000 
 solvent radius x rad scale =      6.0000000 
 spread of solvent probe    =      0.5000000 

%%%% DENSITY %%%%%%%%%%%%%%%%%%%%%%%%%%%%%%%%%%%%%%%%%%%%%%%%%%%%%%%%%%%%%%%%%%%
 density label              = vsoftcavity                                                                     
 integral of density        =      54.85958859    

%%%% ELECTRONS %%%%%%%%%%%%%%%%%%%%%%%%%%%%%%%%%%%%%%%%%%%%%%%%%%%%%%%%%%%%%%%%%
 number of electrons        =         16
 total electronic charge    =     16.0000000
 number of spin components  =  1

%%%% BOUNDARY %%%%%%%%%%%%%%%%%%%%%%%%%%%%%%%%%%%%%%%%%%%%%%%%%%%%%%%%%%%%%%%%%%
 boundary label             = solvent              
 boundary mode              = electronic           
 boundary is built as a function of a smooth density
 function type              =  1 
 using the optimal SCCS function with parameters 
 rhomax                     =      0.0050000 
 rhomin                     =      0.0001000 
 volume of the QM region    =    497.2822453 
 surface of the QM region   =    343.9601597 
 using solvent-aware boundary           
 filling threshold          =      0.3000000 
 filling spread             =      0.0200000 
 solvent radius x rad scale =      6.0000000 
 spread of solvent probe    =      0.5000000 

%%%% DENSITY %%%%%%%%%%%%%%%%%%%%%%%%%%%%%%%%%%%%%%%%%%%%%%%%%%%%%%%%%%%%%%%%%%%
 density label              = vsoftcavity                                                                     
 integral of density        =      32.94245103    

%%%% ELECTRONS %%%%%%%%%%%%%%%%%%%%%%%%%%%%%%%%%%%%%%%%%%%%%%%%%%%%%%%%%%%%%%%%%
 number of electrons        =         16
 total electronic charge    =     16.0000000
 number of spin components  =  1

%%%% BOUNDARY %%%%%%%%%%%%%%%%%%%%%%%%%%%%%%%%%%%%%%%%%%%%%%%%%%%%%%%%%%%%%%%%%%
 boundary label             = solvent              
 boundary mode              = electronic           
 boundary is built as a function of a smooth density
 function type              =  1 
 using the optimal SCCS function with parameters 
 rhomax                     =      0.0050000 
 rhomin                     =      0.0001000 
 volume of the QM region    =    497.2822453 
 surface of the QM region   =    343.9601597 
 using solvent-aware boundary           
 filling threshold          =      0.3000000 
 filling spread             =      0.0200000 
 solvent radius x rad scale =      6.0000000 
 spread of solvent probe    =      0.5000000 

%%%% DENSITY %%%%%%%%%%%%%%%%%%%%%%%%%%%%%%%%%%%%%%%%%%%%%%%%%%%%%%%%%%%%%%%%%%%
 density label              = vsoftcavity                                                                     
 integral of density        =      32.94245103    
