
     Program PWSCF v.6.1 (svn rev. 13369) starts on  7Feb2018 at 14:14: 2 

     This program is part of the open-source Quantum ESPRESSO suite
     for quantum simulation of materials; please cite
         "P. Giannozzi et al., J. Phys.:Condens. Matter 21 395502 (2009);
          URL http://www.quantum-espresso.org", 
     in publications or presentations arising from this work. More details at
     http://www.quantum-espresso.org/quote

     Parallel version (MPI), running on     1 processors
     Reading input from pw.in

     Current dimensions of program PWSCF are:
     Max number of different atomic species (ntypx) = 10
     Max number of k-points (npk) =  40000
     Max angular momentum in pseudopotentials (lmaxx) =  3
               file H.pbe-rrkjus.UPF: wavefunction(s)  1S renormalized
               file O.pbe-rrkjus.UPF: wavefunction(s)  2S renormalized

     gamma-point specific algorithms are used

     Subspace diagonalization in iterative solution of the eigenvalue problem:
     a serial algorithm will be used

 
     G-vector sticks info
     --------------------
     sticks:   dense  smooth     PW     G-vecs:    dense   smooth      PW
     Sum       14913    5973   1481              1371481   346971   43387
 


     bravais-lattice index     =            1
     lattice parameter (alat)  =      25.0000  a.u.
     unit-cell volume          =   15625.0000 (a.u.)^3
     number of atoms/cell      =            6
     number of atomic types    =            2
     number of electrons       =        16.00
     number of Kohn-Sham states=            8
     kinetic-energy cutoff     =      30.0000  Ry
     charge density cutoff     =     300.0000  Ry
     convergence threshold     =      5.0E-03
     mixing beta               =       0.7000
     number of iterations used =            8  plain     mixing
     Exchange-correlation      =  SLA  PW   PBE  PBE ( 1  4  3  4 0 0)
 

     Environ Module
     ==============

     Plese cite
         O. Andreussi, I. Dabo and N. Marzari, J. Chem. Phys. 136, 064102 (2012)         
     in publications or presentations arising from this work.

     compensation onset threshold      =               0.1000E+03 
     surface tension in input (dyn/cm) =                   100.00 
     surface tension in internal units =               0.1285E-03 



     celldm(1)=  25.000000  celldm(2)=   0.000000  celldm(3)=   0.000000
     celldm(4)=   0.000000  celldm(5)=   0.000000  celldm(6)=   0.000000

     crystal axes: (cart. coord. in units of alat)
               a(1) = (   1.000000   0.000000   0.000000 )  
               a(2) = (   0.000000   1.000000   0.000000 )  
               a(3) = (   0.000000   0.000000   1.000000 )  

     reciprocal axes: (cart. coord. in units 2 pi/alat)
               b(1) = (  1.000000  0.000000  0.000000 )  
               b(2) = (  0.000000  1.000000  0.000000 )  
               b(3) = (  0.000000  0.000000  1.000000 )  


     PseudoPot. # 1 for H  read from file:
     /home/fnattino/Programs/qe-6.1/Environ/tests/../..//pseudo/H.pbe-rrkjus.UPF
     MD5 check sum: 7cc9d459525c9a0585f487a71c3c9563
     Pseudo is Ultrasoft, Zval =  1.0
     Generated by new atomic code, or converted to UPF format
     Using radial grid of 1061 points,  2 beta functions with: 
                l(1) =   0
                l(2) =   0
     Q(r) pseudized with 0 coefficients 


     PseudoPot. # 2 for O  read from file:
     /home/fnattino/Programs/qe-6.1/Environ/tests/../..//pseudo/O.pbe-rrkjus.UPF
     MD5 check sum: 390ba29e75625707450f3bd3f0eb6be9
     Pseudo is Ultrasoft, Zval =  6.0
     Generated by new atomic code, or converted to UPF format
     Using radial grid of 1269 points,  4 beta functions with: 
                l(1) =   0
                l(2) =   0
                l(3) =   1
                l(4) =   1
     Q(r) pseudized with 0 coefficients 


     atomic species   valence    mass     pseudopotential
        H              1.00     1.00000     H ( 1.00)
        O              6.00    16.00000     O ( 1.00)

     No symmetry found



   Cartesian axes

     site n.     atom                  positions (alat units)
         1           O   tau(   1) = (   0.4716000   0.4820000   0.4600000  )
         2           H   tau(   2) = (   0.5380000   0.4488000   0.4600000  )
         3           H   tau(   3) = (   0.4224000   0.4264000   0.4600000  )
         4           O   tau(   4) = (   0.4716000   0.4820000   0.6200000  )
         5           H   tau(   5) = (   0.5380000   0.4488000   0.6200000  )
         6           H   tau(   6) = (   0.4224000   0.4264000   0.6200000  )

     number of k points=     1
                       cart. coord. in units 2pi/alat
        k(    1) = (   0.0000000   0.0000000   0.0000000), wk =   2.0000000

     Dense  grid:   685741 G-vectors     FFT dimensions: ( 144, 144, 144)

     Smooth grid:   173486 G-vectors     FFT dimensions: (  90,  90,  90)

     Estimated max dynamical RAM per process >     518.03MB

     Initial potential from superposition of free atoms
     Check: negative starting charge=   -0.001560

     starting charge   15.61518, renormalised to   16.00000

     negative rho (up, down):  1.598E-03 0.000E+00
     Starting wfc are   12 randomized atomic wfcs

     total cpu time spent up to now is        9.6 secs

     per-process dynamical memory:   995.8 Mb

     Self-consistent Calculation

     iteration #  1     ecut=    30.00 Ry     beta=0.70
     Davidson diagonalization with overlap
     ethr =  1.00E-02,  avg # of iterations =  2.0

     negative rho (up, down):  5.602E-04 0.000E+00

     add environment contribution to local potential

     total cpu time spent up to now is       18.8 secs

     total energy              =     -67.93720869 Ry
     Harris-Foulkes estimate   =     -69.14942366 Ry
     estimated scf accuracy    <       1.49013427 Ry
     cavitation energy         =       0.06695263 Ry
     correction to one-el term =       0.00000000 Ry

     iteration #  2     ecut=    30.00 Ry     beta=0.70
     Davidson diagonalization with overlap
     ethr =  9.31E-03,  avg # of iterations =  2.0

     negative rho (up, down):  9.103E-03 0.000E+00

     add environment contribution to local potential

     total cpu time spent up to now is       27.9 secs

     total energy              =     -68.16827886 Ry
     Harris-Foulkes estimate   =     -68.68401281 Ry
     estimated scf accuracy    <       0.97936070 Ry
     cavitation energy         =       0.03794480 Ry
     correction to one-el term =      -0.01373089 Ry

     iteration #  3     ecut=    30.00 Ry     beta=0.70
     Davidson diagonalization with overlap
     ethr =  6.12E-03,  avg # of iterations =  2.0

     negative rho (up, down):  6.846E-04 0.000E+00

     add environment contribution to local potential

     total cpu time spent up to now is       36.7 secs

     total energy              =     -68.39154573 Ry
     Harris-Foulkes estimate   =     -68.44498710 Ry
     estimated scf accuracy    <       0.04649830 Ry
     cavitation energy         =       0.04014739 Ry
     correction to one-el term =      -0.01227690 Ry

     iteration #  4     ecut=    30.00 Ry     beta=0.70
     Davidson diagonalization with overlap
     ethr =  2.91E-04,  avg # of iterations =  2.0

     negative rho (up, down):  4.341E-04 0.000E+00

     total cpu time spent up to now is       45.1 secs

     End of self-consistent calculation

          k = 0.0000 0.0000 0.0000 ( 21694 PWs)   bands (ev):

   -25.2556 -24.2676 -13.1294 -12.2661  -9.2775  -8.2793  -8.0474  -4.8079

     highest occupied level (ev):    -4.8079

!    total energy              =     -68.39859289 Ry
     Harris-Foulkes estimate   =     -68.42810769 Ry
     estimated scf accuracy    <       0.00032160 Ry

     The total energy is the sum of the following terms:

     one-electron contribution =    -167.80522616 Ry
     hartree contribution      =      87.03586292 Ry
     xc contribution           =     -16.85199338 Ry
     ewald contribution        =      29.19327949 Ry
     cavitation energy         =       0.03718109 Ry
     correction to one-el term =      -0.00769685 Ry

     convergence has been achieved in   4 iterations

     Forces acting on atoms (cartesian axes, Ry/au):

     atom    1 type  2   force =     0.00335562   -0.01792191   -0.14029194
     atom    2 type  1   force =    -0.01838114    0.00568754   -0.00964869
     atom    3 type  1   force =     0.01502816    0.01223289   -0.00964867
     atom    4 type  2   force =     0.00334889   -0.01791517    0.14148483
     atom    5 type  1   force =    -0.01837748    0.00568687    0.00905231
     atom    6 type  1   force =     0.01502595    0.01222978    0.00905217

     Total force =     0.205440     Total SCF correction =     0.025903
     SCF correction compared to forces is large: reduce conv_thr to get better values

     Writing output data file pwscf.save
 
     init_run     :      9.09s CPU      9.52s WALL (       1 calls)
     electrons    :     34.15s CPU     35.57s WALL (       1 calls)
     forces       :      0.77s CPU      0.83s WALL (       1 calls)

     Called by init_run:
     wfcinit      :      0.12s CPU      0.12s WALL (       1 calls)
     potinit      :      7.64s CPU      7.92s WALL (       1 calls)

     Called by electrons:
     c_bands      :      0.92s CPU      0.92s WALL (       4 calls)
     sum_band     :      2.29s CPU      2.49s WALL (       4 calls)
     v_of_rho     :      4.49s CPU      4.71s WALL (       5 calls)
     newd         :      1.18s CPU      1.39s WALL (       5 calls)
     mix_rho      :      0.39s CPU      0.41s WALL (       4 calls)

     Called by c_bands:
     init_us_2    :      0.04s CPU      0.04s WALL (       9 calls)
     regterg      :      0.86s CPU      0.86s WALL (       4 calls)

     Called by sum_band:
     sum_band:bec :      0.00s CPU      0.00s WALL (       4 calls)
     addusdens    :      1.40s CPU      1.57s WALL (       4 calls)

     Called by *egterg:
     h_psi        :      0.90s CPU      0.90s WALL (      13 calls)
     s_psi        :      0.02s CPU      0.01s WALL (      13 calls)
     g_psi        :      0.01s CPU      0.01s WALL (       8 calls)
     rdiaghg      :      0.00s CPU      0.00s WALL (      12 calls)

     Called by h_psi:
     h_psi:pot    :      0.89s CPU      0.89s WALL (      13 calls)
     h_psi:calbec :      0.02s CPU      0.02s WALL (      13 calls)
     vloc_psi     :      0.87s CPU      0.86s WALL (      13 calls)
     add_vuspsi   :      0.00s CPU      0.01s WALL (      13 calls)

     General routines
     calbec       :      0.03s CPU      0.02s WALL (      21 calls)
     fft          :     15.13s CPU     15.98s WALL (     347 calls)
     ffts         :      0.08s CPU      0.08s WALL (       9 calls)
     fftw         :      0.74s CPU      0.75s WALL (     122 calls)
     interpolate  :      0.57s CPU      0.58s WALL (       9 calls)
     davcio       :      0.00s CPU      0.00s WALL (       1 calls)
 
     Parallel routines
     fft_scatter  :      4.56s CPU      4.97s WALL (     478 calls)
 
     Environ routines
 
     PWSCF        :    44.19s CPU        46.12s WALL

 
   This run was terminated on:  14:14:48   7Feb2018            

=------------------------------------------------------------------------------=
   JOB DONE.
=------------------------------------------------------------------------------=

%%%% IONS %%%%%%%%%%%%%%%%%%%%%%%%%%%%%%%%%%%%%%%%%%%%%%%%%%%%%%%%%%%%%%%%%%%%%%
 number of ions             =          6
 ionic center of charge     =      0.4737500     0.4709000     0.5400000
 total ionic charge         =    -16.0000000
 ionic dipole               =      0.0000000     0.0000000     0.0000000
 ionic quadrupole (pc)      =     -8.4907750    -4.0099000   -64.0000000
 ion   1 type =  2 coordinates =     11.7900000    12.0500000    11.5000000
 ion   2 type =  1 coordinates =     13.4500000    11.2200000    11.5000000
 ion   3 type =  1 coordinates =     10.5600000    10.6600000    11.5000000
 ion   4 type =  2 coordinates =     11.7900000    12.0500000    15.5000000
 ion   5 type =  1 coordinates =     13.4500000    11.2200000    15.5000000
 ion   6 type =  1 coordinates =     10.5600000    10.6600000    15.5000000

%%%% SYSTEM %%%%%%%%%%%%%%%%%%%%%%%%%%%%%%%%%%%%%%%%%%%%%%%%%%%%%%%%%%%%%%%%%%%%
 system is built from all present ionic types
 system defined dimension   =  0 
 system defined axis        =  3 
 system center              =      0.4737500     0.4709000     0.5400000 
 system width               =      0.1049622 

%%%% ELECTRONS %%%%%%%%%%%%%%%%%%%%%%%%%%%%%%%%%%%%%%%%%%%%%%%%%%%%%%%%%%%%%%%%%
 number of electrons        =         15
 total electronic charge    =     16.0000000
 number of spin components  =  1

%%%% BOUNDARY %%%%%%%%%%%%%%%%%%%%%%%%%%%%%%%%%%%%%%%%%%%%%%%%%%%%%%%%%%%%%%%%%%
 boundary mode              = electronic           
 boundary is built as a function of a smooth density
 function type              =  2 
 using the modified SCCS function with parameters 
 rhomax                     =      0.0050000 
 rhomin                     =      0.0001000 
 volume of the QM region    =   1179.5747551 
 surface of the QM region   =    521.1903455 
 using solvent-aware boundary           
 filling threshold          =      0.6000000 
 filling spread             =      0.0200000 
 solvent radius x rad scale =      6.0000000 
 spread of solvent probe    =      0.5000000 

%%%% ELECTRONS %%%%%%%%%%%%%%%%%%%%%%%%%%%%%%%%%%%%%%%%%%%%%%%%%%%%%%%%%%%%%%%%%
 number of electrons        =         15
 total electronic charge    =     16.0000000
 number of spin components  =  1

%%%% BOUNDARY %%%%%%%%%%%%%%%%%%%%%%%%%%%%%%%%%%%%%%%%%%%%%%%%%%%%%%%%%%%%%%%%%%
 boundary mode              = electronic           
 boundary is built as a function of a smooth density
 function type              =  2 
 using the modified SCCS function with parameters 
 rhomax                     =      0.0050000 
 rhomin                     =      0.0001000 
 volume of the QM region    =    463.4160134 
 surface of the QM region   =    295.3799114 
 using solvent-aware boundary           
 filling threshold          =      0.6000000 
 filling spread             =      0.0200000 
 solvent radius x rad scale =      6.0000000 
 spread of solvent probe    =      0.5000000 

%%%% ELECTRONS %%%%%%%%%%%%%%%%%%%%%%%%%%%%%%%%%%%%%%%%%%%%%%%%%%%%%%%%%%%%%%%%%
 number of electrons        =         15
 total electronic charge    =     16.0000000
 number of spin components  =  1

%%%% BOUNDARY %%%%%%%%%%%%%%%%%%%%%%%%%%%%%%%%%%%%%%%%%%%%%%%%%%%%%%%%%%%%%%%%%%
 boundary mode              = electronic           
 boundary is built as a function of a smooth density
 function type              =  2 
 using the modified SCCS function with parameters 
 rhomax                     =      0.0050000 
 rhomin                     =      0.0001000 
 volume of the QM region    =    488.5668570 
 surface of the QM region   =    312.5258853 
 using solvent-aware boundary           
 filling threshold          =      0.6000000 
 filling spread             =      0.0200000 
 solvent radius x rad scale =      6.0000000 
 spread of solvent probe    =      0.5000000 

%%%% ELECTRONS %%%%%%%%%%%%%%%%%%%%%%%%%%%%%%%%%%%%%%%%%%%%%%%%%%%%%%%%%%%%%%%%%
 number of electrons        =         16
 total electronic charge    =     16.0000000
 number of spin components  =  1

%%%% BOUNDARY %%%%%%%%%%%%%%%%%%%%%%%%%%%%%%%%%%%%%%%%%%%%%%%%%%%%%%%%%%%%%%%%%%
 boundary mode              = electronic           
 boundary is built as a function of a smooth density
 function type              =  2 
 using the modified SCCS function with parameters 
 rhomax                     =      0.0050000 
 rhomin                     =      0.0001000 
 volume of the QM region    =    433.0791092 
 surface of the QM region   =    289.4348806 
 using solvent-aware boundary           
 filling threshold          =      0.6000000 
 filling spread             =      0.0200000 
 solvent radius x rad scale =      6.0000000 
 spread of solvent probe    =      0.5000000 

%%%% ELECTRONS %%%%%%%%%%%%%%%%%%%%%%%%%%%%%%%%%%%%%%%%%%%%%%%%%%%%%%%%%%%%%%%%%
 number of electrons        =         16
 total electronic charge    =     16.0000000
 number of spin components  =  1

%%%% BOUNDARY %%%%%%%%%%%%%%%%%%%%%%%%%%%%%%%%%%%%%%%%%%%%%%%%%%%%%%%%%%%%%%%%%%
 boundary mode              = electronic           
 boundary is built as a function of a smooth density
 function type              =  2 
 using the modified SCCS function with parameters 
 rhomax                     =      0.0050000 
 rhomin                     =      0.0001000 
 volume of the QM region    =    433.0791092 
 surface of the QM region   =    289.4348806 
 using solvent-aware boundary           
 filling threshold          =      0.6000000 
 filling spread             =      0.0200000 
 solvent radius x rad scale =      6.0000000 
 spread of solvent probe    =      0.5000000 
