
     Program PWSCF v.6.1 (svn rev. 13369) starts on  7Feb2018 at 14:15:35 

     This program is part of the open-source Quantum ESPRESSO suite
     for quantum simulation of materials; please cite
         "P. Giannozzi et al., J. Phys.:Condens. Matter 21 395502 (2009);
          URL http://www.quantum-espresso.org", 
     in publications or presentations arising from this work. More details at
     http://www.quantum-espresso.org/quote

     Parallel version (MPI), running on     1 processors
     Reading input from pw.in

     Current dimensions of program PWSCF are:
     Max number of different atomic species (ntypx) = 10
     Max number of k-points (npk) =  40000
     Max angular momentum in pseudopotentials (lmaxx) =  3
               file H.pbe-rrkjus.UPF: wavefunction(s)  1S renormalized
               file O.pbe-rrkjus.UPF: wavefunction(s)  2S renormalized

     gamma-point specific algorithms are used

     Subspace diagonalization in iterative solution of the eigenvalue problem:
     a serial algorithm will be used

 
     G-vector sticks info
     --------------------
     sticks:   dense  smooth     PW     G-vecs:    dense   smooth      PW
     Sum       14913    5973   1481              1371481   346971   43387
 


     bravais-lattice index     =            1
     lattice parameter (alat)  =      25.0000  a.u.
     unit-cell volume          =   15625.0000 (a.u.)^3
     number of atoms/cell      =            6
     number of atomic types    =            2
     number of electrons       =        16.00
     number of Kohn-Sham states=            8
     kinetic-energy cutoff     =      30.0000  Ry
     charge density cutoff     =     300.0000  Ry
     convergence threshold     =      5.0E-03
     mixing beta               =       0.7000
     number of iterations used =            8  plain     mixing
     Exchange-correlation      =  SLA  PW   PBE  PBE ( 1  4  3  4 0 0)
 

     Environ Module
     ==============

     Plese cite
         O. Andreussi, I. Dabo and N. Marzari, J. Chem. Phys. 136, 064102 (2012)         
     in publications or presentations arising from this work.

     compensation onset threshold      =               0.1000E+03 
     surface tension in input (dyn/cm) =                   100.00 
     surface tension in internal units =               0.1285E-03 



     celldm(1)=  25.000000  celldm(2)=   0.000000  celldm(3)=   0.000000
     celldm(4)=   0.000000  celldm(5)=   0.000000  celldm(6)=   0.000000

     crystal axes: (cart. coord. in units of alat)
               a(1) = (   1.000000   0.000000   0.000000 )  
               a(2) = (   0.000000   1.000000   0.000000 )  
               a(3) = (   0.000000   0.000000   1.000000 )  

     reciprocal axes: (cart. coord. in units 2 pi/alat)
               b(1) = (  1.000000  0.000000  0.000000 )  
               b(2) = (  0.000000  1.000000  0.000000 )  
               b(3) = (  0.000000  0.000000  1.000000 )  


     PseudoPot. # 1 for H  read from file:
     /home/fnattino/Programs/qe-6.1/Environ/tests/../..//pseudo/H.pbe-rrkjus.UPF
     MD5 check sum: 7cc9d459525c9a0585f487a71c3c9563
     Pseudo is Ultrasoft, Zval =  1.0
     Generated by new atomic code, or converted to UPF format
     Using radial grid of 1061 points,  2 beta functions with: 
                l(1) =   0
                l(2) =   0
     Q(r) pseudized with 0 coefficients 


     PseudoPot. # 2 for O  read from file:
     /home/fnattino/Programs/qe-6.1/Environ/tests/../..//pseudo/O.pbe-rrkjus.UPF
     MD5 check sum: 390ba29e75625707450f3bd3f0eb6be9
     Pseudo is Ultrasoft, Zval =  6.0
     Generated by new atomic code, or converted to UPF format
     Using radial grid of 1269 points,  4 beta functions with: 
                l(1) =   0
                l(2) =   0
                l(3) =   1
                l(4) =   1
     Q(r) pseudized with 0 coefficients 


     atomic species   valence    mass     pseudopotential
        H              1.00     1.00000     H ( 1.00)
        O              6.00    16.00000     O ( 1.00)

     No symmetry found



   Cartesian axes

     site n.     atom                  positions (alat units)
         1           O   tau(   1) = (   0.4716000   0.4820000   0.4600000  )
         2           H   tau(   2) = (   0.5380000   0.4488000   0.4600000  )
         3           H   tau(   3) = (   0.4224000   0.4264000   0.4600000  )
         4           O   tau(   4) = (   0.4716000   0.4820000   0.6200000  )
         5           H   tau(   5) = (   0.5380000   0.4488000   0.6200000  )
         6           H   tau(   6) = (   0.4224000   0.4264000   0.6200000  )

     number of k points=     1
                       cart. coord. in units 2pi/alat
        k(    1) = (   0.0000000   0.0000000   0.0000000), wk =   2.0000000

     Dense  grid:   685741 G-vectors     FFT dimensions: ( 144, 144, 144)

     Smooth grid:   173486 G-vectors     FFT dimensions: (  90,  90,  90)

     Estimated max dynamical RAM per process >     518.03MB

     Initial potential from superposition of free atoms
     Check: negative starting charge=   -0.001560

     starting charge   15.61518, renormalised to   16.00000

     negative rho (up, down):  1.598E-03 0.000E+00
     Starting wfc are   12 randomized atomic wfcs

     total cpu time spent up to now is       33.1 secs

     per-process dynamical memory:   902.5 Mb

     Self-consistent Calculation

     iteration #  1     ecut=    30.00 Ry     beta=0.70
     Davidson diagonalization with overlap
     ethr =  1.00E-02,  avg # of iterations =  2.0

     negative rho (up, down):  5.602E-04 0.000E+00

     add environment contribution to local potential

     total cpu time spent up to now is       35.4 secs

     total energy              =     -67.96929248 Ry
     Harris-Foulkes estimate   =     -69.14942366 Ry
     estimated scf accuracy    <       1.49013427 Ry
     cavitation energy         =       0.03486884 Ry
     correction to one-el term =       0.00000000 Ry

     iteration #  2     ecut=    30.00 Ry     beta=0.70
     Davidson diagonalization with overlap
     ethr =  9.31E-03,  avg # of iterations =  3.0

     negative rho (up, down):  9.938E-03 0.000E+00

     add environment contribution to local potential

     total cpu time spent up to now is       37.9 secs

     total energy              =     -68.13540464 Ry
     Harris-Foulkes estimate   =     -68.71055778 Ry
     estimated scf accuracy    <       1.08767360 Ry
     cavitation energy         =       0.03486884 Ry
     correction to one-el term =       0.00000000 Ry

     iteration #  3     ecut=    30.00 Ry     beta=0.70
     Davidson diagonalization with overlap
     ethr =  6.80E-03,  avg # of iterations =  2.0

     negative rho (up, down):  6.278E-04 0.000E+00

     add environment contribution to local potential

     total cpu time spent up to now is       40.1 secs

     total energy              =     -68.38827420 Ry
     Harris-Foulkes estimate   =     -68.45581160 Ry
     estimated scf accuracy    <       0.05991381 Ry
     cavitation energy         =       0.03486884 Ry
     correction to one-el term =       0.00000000 Ry

     iteration #  4     ecut=    30.00 Ry     beta=0.70
     Davidson diagonalization with overlap
     ethr =  3.74E-04,  avg # of iterations =  2.0

     negative rho (up, down):  4.234E-04 0.000E+00

     total cpu time spent up to now is       42.1 secs

     End of self-consistent calculation

          k = 0.0000 0.0000 0.0000 ( 21694 PWs)   bands (ev):

   -25.3702 -24.3847 -13.2310 -12.3699  -9.3889  -8.3932  -8.1690  -4.9382

     highest occupied level (ev):    -4.9382

!    total energy              =     -68.40129316 Ry
     Harris-Foulkes estimate   =     -68.43613895 Ry
     estimated scf accuracy    <       0.00038000 Ry

     The total energy is the sum of the following terms:

     one-electron contribution =    -167.77744284 Ry
     hartree contribution      =      86.99572646 Ry
     xc contribution           =     -16.84772511 Ry
     ewald contribution        =      29.19327949 Ry
     cavitation energy         =       0.03486884 Ry
     correction to one-el term =       0.00000000 Ry

     convergence has been achieved in   4 iterations

     Forces acting on atoms (cartesian axes, Ry/au):

     atom    1 type  2   force =     0.00281238   -0.01509843   -0.13816268
     atom    2 type  1   force =    -0.01853563    0.00418908   -0.00960431
     atom    3 type  1   force =     0.01572740    0.01090101   -0.00960371
     atom    4 type  2   force =     0.00280326   -0.01507479    0.13933858
     atom    5 type  1   force =    -0.01853303    0.00418654    0.00901599
     atom    6 type  1   force =     0.01572561    0.01089659    0.00901613

     Total force =     0.201932     Total SCF correction =     0.038252
     SCF correction compared to forces is large: reduce conv_thr to get better values

     Writing output data file pwscf.save
 
     init_run     :     32.20s CPU     32.97s WALL (       1 calls)
     electrons    :      8.52s CPU      9.19s WALL (       1 calls)
     forces       :      9.96s CPU     10.08s WALL (       1 calls)

     Called by init_run:
     wfcinit      :      0.12s CPU      0.12s WALL (       1 calls)
     potinit      :      1.17s CPU      1.25s WALL (       1 calls)

     Called by electrons:
     c_bands      :      0.95s CPU      0.95s WALL (       4 calls)
     sum_band     :      2.28s CPU      2.51s WALL (       4 calls)
     v_of_rho     :      4.43s CPU      4.69s WALL (       5 calls)
     newd         :      1.21s CPU      1.40s WALL (       5 calls)
     mix_rho      :      0.39s CPU      0.40s WALL (       4 calls)

     Called by c_bands:
     init_us_2    :      0.03s CPU      0.04s WALL (       9 calls)
     regterg      :      0.89s CPU      0.90s WALL (       4 calls)

     Called by sum_band:
     sum_band:bec :      0.00s CPU      0.00s WALL (       4 calls)
     addusdens    :      1.39s CPU      1.58s WALL (       4 calls)

     Called by *egterg:
     h_psi        :      0.93s CPU      0.92s WALL (      14 calls)
     s_psi        :      0.01s CPU      0.01s WALL (      14 calls)
     g_psi        :      0.00s CPU      0.01s WALL (       9 calls)
     rdiaghg      :      0.00s CPU      0.00s WALL (      13 calls)

     Called by h_psi:
     h_psi:pot    :      0.92s CPU      0.92s WALL (      14 calls)
     h_psi:calbec :      0.02s CPU      0.02s WALL (      14 calls)
     vloc_psi     :      0.90s CPU      0.89s WALL (      14 calls)
     add_vuspsi   :      0.00s CPU      0.01s WALL (      14 calls)

     General routines
     calbec       :      0.02s CPU      0.02s WALL (      22 calls)
     fft          :      5.42s CPU      5.76s WALL (     123 calls)
     ffts         :      0.07s CPU      0.07s WALL (       9 calls)
     fftw         :      0.75s CPU      0.77s WALL (     126 calls)
     interpolate  :      0.55s CPU      0.61s WALL (       9 calls)
     davcio       :      0.00s CPU      0.00s WALL (       1 calls)
 
     Parallel routines
     fft_scatter  :      1.71s CPU      1.85s WALL (     258 calls)
 
     Environ routines
 
     PWSCF        :    50.86s CPU        52.45s WALL

 
   This run was terminated on:  14:16:28   7Feb2018            

=------------------------------------------------------------------------------=
   JOB DONE.
=------------------------------------------------------------------------------=

%%%% IONS %%%%%%%%%%%%%%%%%%%%%%%%%%%%%%%%%%%%%%%%%%%%%%%%%%%%%%%%%%%%%%%%%%%%%%
 number of ions             =          6
 ionic center of charge     =      0.4737500     0.4709000     0.5400000
 total ionic charge         =    -16.0000000
 ionic dipole               =      0.0000000     0.0000000     0.0000000
 ionic quadrupole (pc)      =     -8.4907750    -4.0099000   -64.0000000
 ion   1 type =  2 coordinates =     11.7900000    12.0500000    11.5000000
 ion   2 type =  1 coordinates =     13.4500000    11.2200000    11.5000000
 ion   3 type =  1 coordinates =     10.5600000    10.6600000    11.5000000
 ion   4 type =  2 coordinates =     11.7900000    12.0500000    15.5000000
 ion   5 type =  1 coordinates =     13.4500000    11.2200000    15.5000000
 ion   6 type =  1 coordinates =     10.5600000    10.6600000    15.5000000

%%%% SYSTEM %%%%%%%%%%%%%%%%%%%%%%%%%%%%%%%%%%%%%%%%%%%%%%%%%%%%%%%%%%%%%%%%%%%%
 system is built from all present ionic types
 system defined dimension   =  0 
 system defined axis        =  3 
 system center              =      0.4737500     0.4709000     0.5400000 
 system width               =      0.1049622 

%%%% BOUNDARY %%%%%%%%%%%%%%%%%%%%%%%%%%%%%%%%%%%%%%%%%%%%%%%%%%%%%%%%%%%%%%%%%%
 boundary mode              = ionic                
 boundary is built from soft-spheres centered on ionic positions
 solvent-dependent scaling  =      1.0000000 
 softness parameter         =      0.5000000 
 volume of the QM region    =    381.6730459 
 surface of the QM region   =    271.4352430 
 using solvent-aware boundary           
 filling threshold          =      0.6000000 
 filling spread             =      0.0200000 
 solvent radius x rad scale =      6.0000000 
 spread of solvent probe    =      0.5000000 

%%%% ELECTRONS %%%%%%%%%%%%%%%%%%%%%%%%%%%%%%%%%%%%%%%%%%%%%%%%%%%%%%%%%%%%%%%%%
 number of electrons        =         15
 total electronic charge    =     16.0000000
 number of spin components  =  1

%%%% ELECTRONS %%%%%%%%%%%%%%%%%%%%%%%%%%%%%%%%%%%%%%%%%%%%%%%%%%%%%%%%%%%%%%%%%
 number of electrons        =         15
 total electronic charge    =     16.0000000
 number of spin components  =  1

%%%% ELECTRONS %%%%%%%%%%%%%%%%%%%%%%%%%%%%%%%%%%%%%%%%%%%%%%%%%%%%%%%%%%%%%%%%%
 number of electrons        =         16
 total electronic charge    =     16.0000000
 number of spin components  =  1

%%%% ELECTRONS %%%%%%%%%%%%%%%%%%%%%%%%%%%%%%%%%%%%%%%%%%%%%%%%%%%%%%%%%%%%%%%%%
 number of electrons        =         15
 total electronic charge    =     16.0000000
 number of spin components  =  1

%%%% ELECTRONS %%%%%%%%%%%%%%%%%%%%%%%%%%%%%%%%%%%%%%%%%%%%%%%%%%%%%%%%%%%%%%%%%
 number of electrons        =         15
 total electronic charge    =     16.0000000
 number of spin components  =  1
