
     Program CP v.6.1 (svn rev. 13369) starts on 29Jan2018 at 23: 7:51 

     This program is part of the open-source Quantum ESPRESSO suite
     for quantum simulation of materials; please cite
         "P. Giannozzi et al., J. Phys.:Condens. Matter 21 395502 (2009);
          URL http://www.quantum-espresso.org", 
     in publications or presentations arising from this work. More details at
     http://www.quantum-espresso.org/quote

     Parallel version (MPI), running on     1 processors

   Dumping input parameters

     Waiting for input...
     Reading input from standard input
Warning: card K_POINTS (AUTOMATIC) ignored
Warning: card  1 1 1 0 0 0 ignored

   Job Title: MD Simulation


   Atomic Pseudopotentials Parameters
   ----------------------------------

   Reading pseudopotential for specie #  1 from file :
   /home/fnattino/Programs/qe-6.1/pseudo/H.pbe-rrkjus.UPF
   file type is UPF v.1
               file H.pbe-rrkjus.UPF: wavefunction(s)  1S renormalized

   Reading pseudopotential for specie #  2 from file :
   /home/fnattino/Programs/qe-6.1/pseudo/O.pbe-rrkjus.UPF
   file type is UPF v.1
               file O.pbe-rrkjus.UPF: wavefunction(s)  2S renormalized


   Main Simulation Parameters (from input)
   ---------------------------------------
Warning: card  &BOUNDARY ignored
Warning: card  / ignored
Warning: card  &ELECTROSTATIC ignored
Warning: card    ! ignored
Warning: card    TOL = 1.D-12 ignored
Warning: card    ! ignored
Warning: card  / ignored
   Restart Mode       =      -1   from_scratch   
   Number of MD Steps =    2000
   Print out every           10 MD Steps
   Reads from unit    =      50
   Writes to unit     =      50
   MD Simulation time step            =       1.00
   Electronic fictitious mass (emass) =     400.00
   emass cut-off                      =       2.50

   Simulation Cell Parameters (from input)
   external pressure       =            0.00 [KBar]
   wmass (calculated)      =         2493.41 [AU]
   ibrav =    1
   alat  =    20.00000000
   a1    =    20.00000000    0.00000000    0.00000000
   a2    =     0.00000000   20.00000000    0.00000000
   a3    =     0.00000000    0.00000000   20.00000000
 
   b1    =     0.05000000    0.00000000    0.00000000
   b2    =     0.00000000    0.05000000    0.00000000
   b3    =     0.00000000    0.00000000    0.05000000
   omega =    8000.00000000

   Energy Cut-offs
   ---------------
   Ecutwfc =   30.0 Ry,      Ecutrho =  300.0 Ry,      Ecuts =  120.0 Ry
   Gcutwfc =   17.4     ,    Gcutrho =   55.1          Gcuts =   34.9
   NOTA BENE: refg, mmx =   0.050000  7200
   Eigenvalues calculated without the kinetic term contribution
   Orthog. with lagrange multipliers : eps =   0.10E-08,  max = 300
   verlet algorithm for electron dynamics
   with friction frice =  0.0500 , grease =  1.0000
   Electron dynamics : the temperature is not controlled
   initial random displacement of el. coordinates with  amplitude=  0.020000

   Electronic states
   -----------------
   Number of Electrons=     8, of States =     4
   Occupation numbers :
   2.00 2.00 2.00 2.00


   Exchange and correlations functionals
   -------------------------------------
     Exchange-correlation      =  SLA  PW   PBE  PBE ( 1  4  3  4 0 0)


   Ions Simulation Parameters
   --------------------------
   Ions are not allowed to move
   Ionic position (from input)
   sorted by specie, and converted to real a.u. coordinates
   Species   1 atoms =    2 mass =      1822.89 (a.u.),         1.00 (amu) rcmax =   0.50 (a.u.)
       13.450000    11.220000    11.500000
       10.560000    10.660000    11.500000
   Species   2 atoms =    1 mass =     29166.22 (a.u.),        16.00 (amu) rcmax =   0.50 (a.u.)
       11.790000    12.050000    11.500000
   Ionic position read from input file


   Cell Dynamics Parameters (from STDIN)
   -------------------------------------
   Starting cell generated from CELLDM
   Constant VOLUME Molecular dynamics
   cell parameters are not allowed to move

   Verbosity: iverbosity =  0



   Simulation dimensions initialization
   ------------------------------------

   unit vectors of full simulation cell
   in real space:                         in reciprocal space (units 2pi/alat):
   1    20.0000    0.0000    0.0000              1.0000    0.0000    0.0000
   2     0.0000   20.0000    0.0000              0.0000    1.0000    0.0000
   3     0.0000    0.0000   20.0000              0.0000    0.0000    1.0000
 
     G-vector sticks info
     --------------------
     sticks:   dense  smooth     PW     G-vecs:    dense   smooth      PW
     Sum        9549    3809    949               701475   177509   22119
 
 
   Real Mesh
   ---------
   Global Dimensions   Local  Dimensions   Processor Grid
   .X.   .Y.   .Z.     .X.   .Y.   .Z.     .X.   .Y.   .Z.
   120   120   120     120   120   120       1     1     1
   Array leading dimensions ( nr1x, nr2x, nr3x )   =    120   120   120
   Local number of cell to store the grid ( nrxx ) =    1728000
   Number of x-y planes for each processors: 
   nr3l =   120
 
   Smooth Real Mesh
   ----------------
   Global Dimensions   Local  Dimensions   Processor Grid
   .X.   .Y.   .Z.     .X.   .Y.   .Z.     .X.   .Y.   .Z.
    72    72    72      72    72    72       1     1     1
   Array leading dimensions ( nr1x, nr2x, nr3x )   =     72    72    72
   Local number of cell to store the grid ( nrxx ) =     373248
   Number of x-y planes for each processors: 
   nr3sl =    72
 
   Small Box Real Mesh
   -------------------
   Global Dimensions   Local  Dimensions   Processor Grid
   .X.   .Y.   .Z.     .X.   .Y.   .Z.     .X.   .Y.   .Z.
    24    24    24      24    24    24       1     1     1
   Array leading dimensions ( nr1x, nr2x, nr3x )   =     24    24    24
   Local number of cell to store the grid ( nrxx ) =      13824
 
   unit vectors of box grid cell
   in real space:                         in reciprocal space:
       4.0000    0.0000    0.0000              1.0000    0.0000    0.0000
       0.0000    4.0000    0.0000              0.0000    1.0000    0.0000
       0.0000    0.0000    4.0000              0.0000    0.0000    1.0000
 
   Reciprocal Space Mesh
   ---------------------
   Large Mesh
     Global(ngm_g)    MinLocal       MaxLocal      Average
         350738         350738         350738      350738.00
   Smooth Mesh
     Global(ngms_g)   MinLocal       MaxLocal      Average
          88755          88755          88755       88755.00
   Wave function Mesh
     Global(ngw_g)    MinLocal       MaxLocal      Average
          11060          11060          11060       11060.00

   Small box Mesh
   ngb =         2788 not distributed to processors


   System geometry initialization
   ------------------------------
   ibrav =    1       cell parameters read from input file
 
   unit vectors of box grid cell
   in real space:                         in reciprocal space:
       4.0000    0.0000    0.0000              1.0000    0.0000    0.0000
       0.0000    4.0000    0.0000              0.0000    1.0000    0.0000
       0.0000    0.0000    4.0000              0.0000    0.0000    1.0000

   Matrix Multiplication Performances
   ortho mmul, time for parallel driver      =   0.00000 with    1 procs

   Constraints matrixes will be distributed block like on
   ortho sub-group =    1*   1 procs



   Pseudopotentials initialization
   -------------------------------
  nlinit  nh(is), ngb, is, kkbeta, lmaxq =            2        2788           1
         629           3
 
                        qqq 
   0.0186   0.0152
   0.0152   0.0125
 
  nlinit  nh(is), ngb, is, kkbeta, lmaxq =            8        2788           2
         865           3
 
                        qqq 
  -0.1022   0.5410   0.0000   0.0000
   0.5410  -2.5883   0.0000   0.0000
   0.0000   0.0000   0.2297   0.2861
   0.0000   0.0000   0.2861   0.3565
 


   Common initialization

   Specie:     1
   1  indv=  1   ang. mom=  0
   2  indv=  2   ang. mom=  0
 
                        dion 
  -0.0211  -0.0150
  -0.0150  -0.0104

   Specie:     2
   1  indv=  1   ang. mom=  0
   2  indv=  2   ang. mom=  0
   3  indv=  3   ang. mom=  1
   4  indv=  3   ang. mom=  1
   5  indv=  3   ang. mom=  1
   6  indv=  4   ang. mom=  1
   7  indv=  4   ang. mom=  1
   8  indv=  4   ang. mom=  1
 
                        dion 
   0.4798  -1.3236   0.0000   0.0000
  -1.3236   2.2757   0.0000   0.0000
   0.0000   0.0000   0.6278   0.8512
   0.0000   0.0000   0.8512   1.1500

   Cell parameters from input file are used in electron mass preconditioning
   init_tpiba2=    0.09869604
 
   Short Legend and Physical Units in the Output
   ---------------------------------------------
   NFI    [int]          - step index
   EKINC  [HARTREE A.U.] - kinetic energy of the fictitious electronic dynamics
   TEMPH  [K]            - Temperature of the fictitious cell dynamics
   TEMP   [K]            - Ionic temperature
   ETOT   [HARTREE A.U.] - Scf total energy (Kohn-Sham hamiltonian)
   ENTHAL [HARTREE A.U.] - Enthalpy ( ETOT + P * V )
   ECONS  [HARTREE A.U.] - Enthalpy + kinetic energy of ions and cell
   ECONT  [HARTREE A.U.] - Constant of motion for the CP lagrangian
 


   Wave Initialization: random initial wave-functions
   Occupation number from init
   nbnd =     4
    2.00 2.00 2.00 2.00

   formf: eself=    30.31961
   formf:     vps(g=0)=  -0.0000605     rhops(g=0)=  -0.0001250
   formf: sum_g vps(g)=  -0.0888832 sum_g rhops(g)=  -0.7171034
   formf:     vps(g=0)=  -0.0001262     rhops(g=0)=  -0.0007500
   formf: sum_g vps(g)=   0.9003747 sum_g rhops(g)=  -4.3026204
   Delta V(G=0):   0.000785Ry,    0.021372eV

   from rhoofr: total integrated electronic density
   in g-space =      8.000000   in r-space =     8.000000
 
  nfi     ekinc              temph  tempp     etot                 enthal               econs                econt              vnhh    xnhh0   vnhp    xnhp0
      1    0.030124661179883    0.0    0.00       7.687062806692       7.687062806692       7.687062806692       7.717187467872   0.0000   0.0000   0.0000   0.0000
      2    0.093700251162422    0.0    0.00       7.610941838742       7.610941838742       7.610941838742       7.704642089905   0.0000   0.0000   0.0000   0.0000
      3    0.185945287603781    0.0    0.00       7.490502298180       7.490502298180       7.490502298180       7.676447585784   0.0000   0.0000   0.0000   0.0000
      4    0.297828797115603    0.0    0.00       7.329975569860       7.329975569860       7.329975569860       7.627804366976   0.0000   0.0000   0.0000   0.0000
      5    0.422397095259012    0.0    0.00       7.133110749636       7.133110749636       7.133110749636       7.555507844895   0.0000   0.0000   0.0000   0.0000
      6    0.554417460219508    0.0    0.00       6.903151571500       6.903151571500       6.903151571500       7.457569031719   0.0000   0.0000   0.0000   0.0000
      7    0.690093294833133    0.0    0.00       6.642805890146       6.642805890146       6.642805890146       7.332899184979   0.0000   0.0000   0.0000   0.0000
      8    0.826833901134577    0.0    0.00       6.354211836123       6.354211836123       6.354211836123       7.181045737257   0.0000   0.0000   0.0000   0.0000
      9    0.963064828218266    0.0    0.00       6.038905177160       6.038905177160       6.038905177160       7.001970005378   0.0000   0.0000   0.0000   0.0000
     10    1.098066377547822    0.0    0.00       5.697793294048       5.697793294048       5.697793294048       6.795859671596   0.0000   0.0000   0.0000   0.0000
     11    1.231828791187729    0.0    0.00       5.331142772539       5.331142772539       5.331142772539       6.562971563727   0.0000   0.0000   0.0000   0.0000
     12    1.364912618515537    0.0    0.00       4.938589786633       4.938589786633       4.938589786633       6.303502405149   0.0000   0.0000   0.0000   0.0000
     13    1.498302751155258    0.0    0.00       4.519184911910       4.519184911910       4.519184911910       6.017487663066   0.0000   0.0000   0.0000   0.0000
     14    1.633244819188055    0.0    0.00       4.071486193922       4.071486193922       4.071486193922       5.704731013110   0.0000   0.0000   0.0000   0.0000
     15    1.771053115711863    0.0    0.00       3.593716058002       3.593716058002       3.593716058002       5.364769173714   0.0000   0.0000   0.0000   0.0000
     16    1.912882434331205    0.0    0.00       3.083996691920       3.083996691920       3.083996691920       4.996879126251   0.0000   0.0000   0.0000   0.0000
     17    2.059462080914198    0.0    0.00       2.540673505300       2.540673505300       2.540673505300       4.600135586215   0.0000   0.0000   0.0000   0.0000
     18    2.210799888061082    0.0    0.00       1.962726776830       1.962726776830       1.962726776830       4.173526664891   0.0000   0.0000   0.0000   0.0000
     19    2.365879326768254    0.0    0.00       1.350253069483       1.350253069483       1.350253069483       3.716132396251   0.0000   0.0000   0.0000   0.0000
     20    2.522391831041695    0.0    0.00       0.704972312807       0.704972312807       0.704972312807       3.227364143849   0.0000   0.0000   0.0000   0.0000
     21    2.676564887901019    0.0    0.00       0.030686931715       0.030686931715       0.030686931715       2.707251819616   0.0000   0.0000   0.0000   0.0000
     22    2.823158114686367    0.0    0.00      -0.666406837863      -0.666406837863      -0.666406837863       2.156751276823   0.0000   0.0000   0.0000   0.0000
     23    2.955694893767824    0.0    0.00      -1.377666367304      -1.377666367304      -1.377666367304       1.578028526464   0.0000   0.0000   0.0000   0.0000
     24    3.066967479076670    0.0    0.00      -2.092301987431      -2.092301987431      -2.092301987431       0.974665491646   0.0000   0.0000   0.0000   0.0000
     25    3.149797780878886    0.0    0.00      -2.798067239500      -2.798067239500      -2.798067239500       0.351730541379   0.0000   0.0000   0.0000   0.0000
     26    3.197964800393788    0.0    0.00      -3.482295834542      -3.482295834542      -3.482295834542      -0.284331034148   0.0000   0.0000   0.0000   0.0000
     27    3.207144479849228    0.0    0.00      -4.133147264015      -4.133147264015      -4.133147264015      -0.926002784166   0.0000   0.0000   0.0000   0.0000
     28    3.175678321892315    0.0    0.00      -4.740856471661      -4.740856471661      -4.740856471661      -1.565178149769   0.0000   0.0000   0.0000   0.0000
     29    3.105009973834330    0.0    0.00      -5.298770207878      -5.298770207878      -5.298770207878      -2.193760234044   0.0000   0.0000   0.0000   0.0000
     30    2.999696991392293    0.0    0.00      -5.803996738818      -5.803996738818      -5.803996738818      -2.804299747426   0.0000   0.0000   0.0000   0.0000
     31    2.866993555879155    0.0    0.00      -6.257576635095      -6.257576635095      -6.257576635095      -3.390583079216   0.0000   0.0000   0.0000   0.0000
     32    2.716084360191018    0.0    0.00      -6.664176241225      -6.664176241225      -6.664176241225      -3.948091881034   0.0000   0.0000   0.0000   0.0000
     33    2.557111488919421    0.0    0.00      -7.031392709981      -7.031392709981      -7.031392709981      -4.474281221061   0.0000   0.0000   0.0000   0.0000
     34    2.400155056516868    0.0    0.00      -7.368809769457      -7.368809769457      -7.368809769457      -4.968654712940   0.0000   0.0000   0.0000   0.0000
     35    2.254310593267576    0.0    0.00      -7.686954884933      -7.686954884933      -7.686954884933      -5.432644291665   0.0000   0.0000   0.0000   0.0000
     36    2.126966836343061    0.0    0.00      -7.996293938632      -7.996293938632      -7.996293938632      -5.869327102289   0.0000   0.0000   0.0000   0.0000
     37    2.023338570595461    0.0    0.00      -8.306365210791      -8.306365210791      -8.306365210791      -6.283026640195   0.0000   0.0000   0.0000   0.0000
     38    1.946261722690477    0.0    0.00      -8.625112932304      -8.625112932304      -8.625112932304      -6.678851209614   0.0000   0.0000   0.0000   0.0000
     39    1.896220875677416    0.0    0.00      -8.958438462138      -8.958438462138      -8.958438462138      -7.062217586461   0.0000   0.0000   0.0000   0.0000
     40    1.871561366320573    0.0    0.00      -9.309962680804      -9.309962680804      -9.309962680804      -7.438401314483   0.0000   0.0000   0.0000   0.0000
     41    1.868834560964103    0.0    0.00      -9.680978743746      -9.680978743746      -9.680978743746      -7.812144182782   0.0000   0.0000   0.0000   0.0000
     42    1.883228714113903    0.0    0.00     -10.070569471481     -10.070569471481     -10.070569471481      -8.187340757367   0.0000   0.0000   0.0000   0.0000
     43    1.909044302213582    0.0    0.00     -10.475860332126     -10.475860332126     -10.475860332126      -8.566816029912   0.0000   0.0000   0.0000   0.0000
     44    1.940180294155162    0.0    0.00     -10.892380059166     -10.892380059166     -10.892380059166      -8.952199765011   0.0000   0.0000   0.0000   0.0000
     45    1.970603400626025    0.0    0.00     -11.314500551122     -11.314500551122     -11.314500551122      -9.343897150495   0.0000   0.0000   0.0000   0.0000
     46    1.994774192217922    0.0    0.00     -11.735923932645     -11.735923932645     -11.735923932645      -9.741149740427   0.0000   0.0000   0.0000   0.0000
     47    2.008004741804850    0.0    0.00     -12.150180035859     -12.150180035859     -12.150180035859     -10.142175294054   0.0000   0.0000   0.0000   0.0000
     48    2.006724726350005    0.0    0.00     -12.551094742893     -12.551094742893     -12.551094742893     -10.544370016543   0.0000   0.0000   0.0000   0.0000
     49    1.988638616008416    0.0    0.00     -12.933191186334     -12.933191186334     -12.933191186334     -10.944552570326   0.0000   0.0000   0.0000   0.0000
     50    1.952765941074317    0.0    0.00     -13.291992517874     -13.291992517874     -13.291992517874     -11.339226576800   0.0000   0.0000   0.0000   0.0000
     51    1.899369027963548    0.0    0.00     -13.624207166102     -13.624207166102     -13.624207166102     -11.724838138138   0.0000   0.0000   0.0000   0.0000
     52    1.829785542545608    0.0    0.00     -13.927793028271     -13.927793028271     -13.927793028271     -12.098007485725   0.0000   0.0000   0.0000   0.0000
     53    1.746193146490107    0.0    0.00     -14.201911971391     -14.201911971391     -14.201911971391     -12.455718824901   0.0000   0.0000   0.0000   0.0000
     54    1.651339204193760    0.0    0.00     -14.446797644593     -14.446797644593     -14.446797644593     -12.795458440399   0.0000   0.0000   0.0000   0.0000
     55    1.548268223003111    0.0    0.00     -14.663566358371     -14.663566358371     -14.663566358371     -13.115298135368   0.0000   0.0000   0.0000   0.0000
     56    1.440074253285847    0.0    0.00     -14.854000984621     -14.854000984621     -14.854000984621     -13.413926731335   0.0000   0.0000   0.0000   0.0000
     57    1.329697368050911    0.0    0.00     -15.020334278469     -15.020334278469     -15.020334278469     -13.690636910418   0.0000   0.0000   0.0000   0.0000
     58    1.219774025785389    0.0    0.00     -15.165051475417     -15.165051475417     -15.165051475417     -13.945277449632   0.0000   0.0000   0.0000   0.0000
     59    1.112542594051894    0.0    0.00     -15.290724357237     -15.290724357237     -15.290724357237     -14.178181763185   0.0000   0.0000   0.0000   0.0000
     60    1.009798724649170    0.0    0.00     -15.399881966645     -15.399881966645     -15.399881966645     -14.390083241996   0.0000   0.0000   0.0000   0.0000
     61    0.912891387683401    0.0    0.00     -15.494917532706     -15.494917532706     -15.494917532706     -14.582026145022   0.0000   0.0000   0.0000   0.0000
     62    0.822748894943495    0.0    0.00     -15.578028069637     -15.578028069637     -15.578028069637     -14.755279174693   0.0000   0.0000   0.0000   0.0000
     63    0.739924523399139    0.0    0.00     -15.651181046225     -15.651181046225     -15.651181046225     -14.911256522826   0.0000   0.0000   0.0000   0.0000
     64    0.664652716680875    0.0    0.00     -15.716101918898     -15.716101918898     -15.716101918898     -15.051449202218   0.0000   0.0000   0.0000   0.0000
     65    0.596908762807105    0.0    0.00     -15.774276159420     -15.774276159420     -15.774276159420     -15.177367396612   0.0000   0.0000   0.0000   0.0000
     66    0.536466952312531    0.0    0.00     -15.826961352290     -15.826961352290     -15.826961352290     -15.290494399977   0.0000   0.0000   0.0000   0.0000
     67    0.482953886191395    0.0    0.00     -15.875206224797     -15.875206224797     -15.875206224797     -15.392252338605   0.0000   0.0000   0.0000   0.0000
     68    0.435895057750502    0.0    0.00     -15.919873032806     -15.919873032806     -15.919873032806     -15.483977975055   0.0000   0.0000   0.0000   0.0000
     69    0.394754016233972    0.0    0.00     -15.961660584599     -15.961660584599     -15.961660584599     -15.566906568365   0.0000   0.0000   0.0000   0.0000
     70    0.358964177256482    0.0    0.00     -16.001126993945     -16.001126993945     -16.001126993945     -15.642162816688   0.0000   0.0000   0.0000   0.0000
     71    0.327953745899842    0.0    0.00     -16.038711202018     -16.038711202018     -16.038711202018     -15.710757456119   0.0000   0.0000   0.0000   0.0000
     72    0.301164462875450    0.0    0.00     -16.074752819726     -16.074752819726     -16.074752819726     -15.773588356851   0.0000   0.0000   0.0000   0.0000
     73    0.278065099142368    0.0    0.00     -16.109509587468     -16.109509587468     -16.109509587468     -15.831444488325   0.0000   0.0000   0.0000   0.0000
     74    0.258160591754960    0.0    0.00     -16.143172880785     -16.143172880785     -16.143172880785     -15.885012289030   0.0000   0.0000   0.0000   0.0000
     75    0.240997623563885    0.0    0.00     -16.175881193094     -16.175881193094     -16.175881193094     -15.934883569530   0.0000   0.0000   0.0000   0.0000
     76    0.226167411175033    0.0    0.00     -16.207731503736     -16.207731503736     -16.207731503736     -15.981564092561   0.0000   0.0000   0.0000   0.0000
     77    0.213306359300344    0.0    0.00     -16.238788921571     -16.238788921571     -16.238788921571     -16.025482562270   0.0000   0.0000   0.0000   0.0000
     78    0.202095123395214    0.0    0.00     -16.269094690216     -16.269094690216     -16.269094690216     -16.066999566821   0.0000   0.0000   0.0000   0.0000
     79    0.192256527362797    0.0    0.00     -16.298672750857     -16.298672750857     -16.298672750857     -16.106416223494   0.0000   0.0000   0.0000   0.0000
     80    0.183552723240070    0.0    0.00     -16.327535030208     -16.327535030208     -16.327535030208     -16.143982306968   0.0000   0.0000   0.0000   0.0000
     81    0.175781879573106    0.0    0.00     -16.355685671923     -16.355685671923     -16.355685671923     -16.179903792350   0.0000   0.0000   0.0000   0.0000
     82    0.168774599191507    0.0    0.00     -16.383124253065     -16.383124253065     -16.383124253065     -16.214349653873   0.0000   0.0000   0.0000   0.0000
     83    0.162390280001300    0.0    0.00     -16.409848235802     -16.409848235802     -16.409848235802     -16.247457955800   0.0000   0.0000   0.0000   0.0000
     84    0.156513553976825    0.0    0.00     -16.435854938757     -16.435854938757     -16.435854938757     -16.279341384780   0.0000   0.0000   0.0000   0.0000
     85    0.151050849948752    0.0    0.00     -16.461142575222     -16.461142575222     -16.461142575222     -16.310091725273   0.0000   0.0000   0.0000   0.0000
     86    0.145927159327455    0.0    0.00     -16.485711182647     -16.485711182647     -16.485711182647     -16.339784023319   0.0000   0.0000   0.0000   0.0000
     87    0.141083093604210    0.0    0.00     -16.509563056753     -16.509563056753     -16.509563056753     -16.368479963149   0.0000   0.0000   0.0000   0.0000
     88    0.136472239937254    0.0    0.00     -16.532702871480     -16.532702871480     -16.532702871480     -16.396230631543   0.0000   0.0000   0.0000   0.0000
     89    0.132058795929990    0.0    0.00     -16.555137798842     -16.555137798842     -16.555137798842     -16.423079002912   0.0000   0.0000   0.0000   0.0000
     90    0.127815502626195    0.0    0.00     -16.576877247642     -16.576877247642     -16.576877247642     -16.449061745016   0.0000   0.0000   0.0000   0.0000
     91    0.123721864227454    0.0    0.00     -16.597932673870     -16.597932673870     -16.597932673870     -16.474210809642   0.0000   0.0000   0.0000   0.0000
     92    0.119762632111936    0.0    0.00     -16.618317228186     -16.618317228186     -16.618317228186     -16.498554596074   0.0000   0.0000   0.0000   0.0000
     93    0.115926548440596    0.0    0.00     -16.638045382584     -16.638045382584     -16.638045382584     -16.522118834144   0.0000   0.0000   0.0000   0.0000
     94    0.112205308942785    0.0    0.00     -16.657132671903     -16.657132671903     -16.657132671903     -16.544927362960   0.0000   0.0000   0.0000   0.0000
     95    0.108592739091761    0.0    0.00     -16.675595272322     -16.675595272322     -16.675595272322     -16.567002533230   0.0000   0.0000   0.0000   0.0000
     96    0.105084147923888    0.0    0.00     -16.693449774848     -16.693449774848     -16.693449774848     -16.588365626924   0.0000   0.0000   0.0000   0.0000
     97    0.101675812409380    0.0    0.00     -16.710712889672     -16.710712889672     -16.710712889672     -16.609037077263   0.0000   0.0000   0.0000   0.0000
     98    0.098364606244398    0.0    0.00     -16.727401262156     -16.727401262156     -16.727401262156     -16.629036655911   0.0000   0.0000   0.0000   0.0000
     99    0.095147737333543    0.0    0.00     -16.743531247608     -16.743531247608     -16.743531247608     -16.648383510275   0.0000   0.0000   0.0000   0.0000

 * Physical Quantities at step:   100

   from rhoofr: total integrated electronic density
   in g-space =      8.000000   in r-space =     8.000000


                total energy =      -16.75911880210 Hartree a.u.
              kinetic energy =        8.07171 Hartree a.u.
        electrostatic energy =      -23.37390 Hartree a.u.
                         esr =        0.00133 Hartree a.u.
                       eself =       30.31961 Hartree a.u.
      pseudopotential energy =       -0.92356 Hartree a.u.
  n-l pseudopotential energy =        3.62922 Hartree a.u.
 exchange-correlation energy =       -4.16259 Hartree a.u.
           average potential =        0.00000 Hartree a.u.


   correction to one-el term =        0.00000 Hartree a.u.

   Eigenvalues (eV), kp =   1 , spin =  1

  -27.10  -14.83   -8.89   -7.09
 
   Allocated memory (kb) =    144540
 
   CELL_PARAMETERS
   20.00000000    0.00000000    0.00000000
    0.00000000   20.00000000    0.00000000
    0.00000000    0.00000000   20.00000000

   System Density [g/cm^3] :              0.0252137250


   System Volume [A.U.^3] :           8000.0000000000


   Center of mass square displacement (a.u.):   0.000000

   ATOMIC_POSITIONS
   O       0.11790000000000E+02     0.12050000000000E+02     0.11500000000000E+02
   H       0.13450000000000E+02     0.11220000000000E+02     0.11500000000000E+02
   H       0.10560000000000E+02     0.10660000000000E+02     0.11500000000000E+02
 
   ATOMIC_VELOCITIES
   O       0.00000000000000E+00     0.00000000000000E+00     0.00000000000000E+00
   H       0.00000000000000E+00     0.00000000000000E+00     0.00000000000000E+00
   H       0.00000000000000E+00     0.00000000000000E+00     0.00000000000000E+00
 
   Forces acting on atoms (au):
   O       0.21411699979480E-01     0.70754478101143E-01     0.98539913183013E-01
   H      -0.18449175783626E-01     0.51852046606318E-01    -0.62697737868707E-02
   H       0.22524129882059E-01     0.91521138155957E-01    -0.24118941372295E-02
 


   Partial temperatures (for each ionic specie) 
   Species  Temp (K)   Mean Square Displacement (a.u.)
        1   0.00E+00     0.0000E+00
        2   0.00E+00     0.0000E+00
 
  nfi     ekinc              temph  tempp     etot                 enthal               econs                econt              vnhh    xnhh0   vnhp    xnhp0
    100    0.092022555296508    0.0    0.00     -16.759118802100     -16.759118802100     -16.759118802100     -16.667096246803   0.0000   0.0000   0.0000   0.0000

   writing restart file: /home/fnattino/Programs/qe-6.1/tempdir/h2o_vacuum_50.save
   restart file written in    0.074 sec.

    101    0.088986438766640    0.0    0.00     -16.774179389742     -16.774179389742     -16.774179389742     -16.685192950975   0.0000   0.0000   0.0000   0.0000
    102    0.086036751156642    0.0    0.00     -16.788727895365     -16.788727895365     -16.788727895365     -16.702691144208   0.0000   0.0000   0.0000   0.0000
    103    0.083170811430941    0.0    0.00     -16.802778676513     -16.802778676513     -16.802778676513     -16.719607865082   0.0000   0.0000   0.0000   0.0000
    104    0.080385885628208    0.0    0.00     -16.816345455336     -16.816345455336     -16.816345455336     -16.735959569708   0.0000   0.0000   0.0000   0.0000
    105    0.077679221050243    0.0    0.00     -16.829441421741     -16.829441421741     -16.829441421741     -16.751762200691   0.0000   0.0000   0.0000   0.0000
    106    0.075048079567207    0.0    0.00     -16.842079190552     -16.842079190552     -16.842079190552     -16.767031110985   0.0000   0.0000   0.0000   0.0000
    107    0.072489770430408    0.0    0.00     -16.854270909443     -16.854270909443     -16.854270909443     -16.781781139013   0.0000   0.0000   0.0000   0.0000
    108    0.070001697342921    0.0    0.00     -16.866028283943     -16.866028283943     -16.866028283943     -16.796026586600   0.0000   0.0000   0.0000   0.0000
    109    0.067581389748844    0.0    0.00     -16.877362572973     -16.877362572973     -16.877362572973     -16.809781183224   0.0000   0.0000   0.0000   0.0000
    110    0.065226522493293    0.0    0.00     -16.888284798058     -16.888284798058     -16.888284798058     -16.823058275565   0.0000   0.0000   0.0000   0.0000
    111    0.062934946565313    0.0    0.00     -16.898805616479     -16.898805616479     -16.898805616479     -16.835870669914   0.0000   0.0000   0.0000   0.0000
    112    0.060704702338903    0.0    0.00     -16.908935551015     -16.908935551015     -16.908935551015     -16.848230848677   0.0000   0.0000   0.0000   0.0000
    113    0.058534019752637    0.0    0.00     -16.918684888712     -16.918684888712     -16.918684888712     -16.860150868959   0.0000   0.0000   0.0000   0.0000
    114    0.056421324707899    0.0    0.00     -16.928063728937     -16.928063728937     -16.928063728937     -16.871642404230   0.0000   0.0000   0.0000   0.0000
    115    0.054365229345396    0.0    0.00     -16.937082191842     -16.937082191842     -16.937082191842     -16.882716962497   0.0000   0.0000   0.0000   0.0000
    116    0.052364516453382    0.0    0.00     -16.945750272322     -16.945750272322     -16.945750272322     -16.893385755868   0.0000   0.0000   0.0000   0.0000
    117    0.050418126404407    0.0    0.00     -16.954077917198     -16.954077917198     -16.954077917198     -16.903659790794   0.0000   0.0000   0.0000   0.0000
    118    0.048525138900248    0.0    0.00     -16.962074892529     -16.962074892529     -16.962074892529     -16.913549753628   0.0000   0.0000   0.0000   0.0000
    119    0.046684751915487    0.0    0.00     -16.969751052429     -16.969751052429     -16.969751052429     -16.923066300514   0.0000   0.0000   0.0000   0.0000
    120    0.044896257294341    0.0    0.00     -16.977116189045     -16.977116189045     -16.977116189045     -16.932219931750   0.0000   0.0000   0.0000   0.0000
    121    0.043159021800997    0.0    0.00     -16.984179974844     -16.984179974844     -16.984179974844     -16.941020953043   0.0000   0.0000   0.0000   0.0000
    122    0.041472471757580    0.0    0.00     -16.990952036937     -16.990952036937     -16.990952036937     -16.949479565179   0.0000   0.0000   0.0000   0.0000
    123    0.039836068712348    0.0    0.00     -16.997441949355     -16.997441949355     -16.997441949355     -16.957605880643   0.0000   0.0000   0.0000   0.0000
    124    0.038249289648743    0.0    0.00     -17.003659168475     -17.003659168475     -17.003659168475     -16.965409878827   0.0000   0.0000   0.0000   0.0000
    125    0.036711613437412    0.0    0.00     -17.009613067798     -17.009613067798     -17.009613067798     -16.972901454361   0.0000   0.0000   0.0000   0.0000
    126    0.035222505750073    0.0    0.00     -17.015312913882     -17.015312913882     -17.015312913882     -16.980090408132   0.0000   0.0000   0.0000   0.0000
    127    0.033781407735774    0.0    0.00     -17.020767790133     -17.020767790133     -17.020767790133     -16.986986382398   0.0000   0.0000   0.0000   0.0000
    128    0.032387725978712    0.0    0.00     -17.025986732273     -17.025986732273     -17.025986732273     -16.993599006294   0.0000   0.0000   0.0000   0.0000
    129    0.031040825908693    0.0    0.00     -17.030978468273     -17.030978468273     -17.030978468273     -16.999937642364   0.0000   0.0000   0.0000   0.0000
    130    0.029740028273149    0.0    0.00     -17.035751574968     -17.035751574968     -17.035751574968     -17.006011546695   0.0000   0.0000   0.0000   0.0000
    131    0.028484603994797    0.0    0.00     -17.040314557440     -17.040314557440     -17.040314557440     -17.011829953446   0.0000   0.0000   0.0000   0.0000
    132    0.027273770460080    0.0    0.00     -17.044675681382     -17.044675681382     -17.044675681382     -17.017401910922   0.0000   0.0000   0.0000   0.0000
    133    0.026106693389423    0.0    0.00     -17.048842984961     -17.048842984961     -17.048842984961     -17.022736291571   0.0000   0.0000   0.0000   0.0000
    134    0.024982490547531    0.0    0.00     -17.052824297854     -17.052824297854     -17.052824297854     -17.027841807307   0.0000   0.0000   0.0000   0.0000
    135    0.023900238052519    0.0    0.00     -17.056627145408     -17.056627145408     -17.056627145408     -17.032726907355   0.0000   0.0000   0.0000   0.0000
    136    0.022858976822735    0.0    0.00     -17.060258805049     -17.060258805049     -17.060258805049     -17.037399828226   0.0000   0.0000   0.0000   0.0000
    137    0.021857716385065    0.0    0.00     -17.063726349415     -17.063726349415     -17.063726349415     -17.041868633030   0.0000   0.0000   0.0000   0.0000
    138    0.020895438209400    0.0    0.00     -17.067036620178     -17.067036620178     -17.067036620178     -17.046141181968   0.0000   0.0000   0.0000   0.0000
    139    0.019971098839369    0.0    0.00     -17.070196309094     -17.070196309094     -17.070196309094     -17.050225210254   0.0000   0.0000   0.0000   0.0000
    140    0.019083635895631    0.0    0.00     -17.073211787328     -17.073211787328     -17.073211787328     -17.054128151432   0.0000   0.0000   0.0000   0.0000
    141    0.018231973159419    0.0    0.00     -17.076089239604     -17.076089239604     -17.076089239604     -17.057857266445   0.0000   0.0000   0.0000   0.0000
    142    0.017415023967362    0.0    0.00     -17.078834673397     -17.078834673397     -17.078834673397     -17.061419649429   0.0000   0.0000   0.0000   0.0000
    143    0.016631696858606    0.0    0.00     -17.081453769428     -17.081453769428     -17.081453769428     -17.064822072570   0.0000   0.0000   0.0000   0.0000
    144    0.015880901906846    0.0    0.00     -17.083952058667     -17.083952058667     -17.083952058667     -17.068071156760   0.0000   0.0000   0.0000   0.0000
    145    0.015161555188700    0.0    0.00     -17.086334826469     -17.086334826469     -17.086334826469     -17.071173271280   0.0000   0.0000   0.0000   0.0000
    146    0.014472580044670    0.0    0.00     -17.088607220146     -17.088607220146     -17.088607220146     -17.074134640101   0.0000   0.0000   0.0000   0.0000
    147    0.013812909494658    0.0    0.00     -17.090774156770     -17.090774156770     -17.090774156770     -17.076961247275   0.0000   0.0000   0.0000   0.0000
    148    0.013181493388874    0.0    0.00     -17.092840250611     -17.092840250611     -17.092840250611     -17.079658757222   0.0000   0.0000   0.0000   0.0000
    149    0.012577299758116    0.0    0.00     -17.094810064586     -17.094810064586     -17.094810064586     -17.082232764828   0.0000   0.0000   0.0000   0.0000
    150    0.011999315644220    0.0    0.00     -17.096687894037     -17.096687894037     -17.096687894037     -17.084688578393   0.0000   0.0000   0.0000   0.0000
    151    0.011446550594402    0.0    0.00     -17.098477893132     -17.098477893132     -17.098477893132     -17.087031342537   0.0000   0.0000   0.0000   0.0000
    152    0.010918037553257    0.0    0.00     -17.100184035609     -17.100184035609     -17.100184035609     -17.089265998056   0.0000   0.0000   0.0000   0.0000
    153    0.010412834663856    0.0    0.00     -17.101810096041     -17.101810096041     -17.101810096041     -17.091397261377   0.0000   0.0000   0.0000   0.0000
    154    0.009930024776699    0.0    0.00     -17.103359781489     -17.103359781489     -17.103359781489     -17.093429756713   0.0000   0.0000   0.0000   0.0000
    155    0.009468716389342    0.0    0.00     -17.104836555141     -17.104836555141     -17.104836555141     -17.095367838752   0.0000   0.0000   0.0000   0.0000
    156    0.009028043852721    0.0    0.00     -17.106243795119     -17.106243795119     -17.106243795119     -17.097215751266   0.0000   0.0000   0.0000   0.0000
    157    0.008607167071035    0.0    0.00     -17.107584689884     -17.107584689884     -17.107584689884     -17.098977522813   0.0000   0.0000   0.0000   0.0000
    158    0.008205272245477    0.0    0.00     -17.108862299831     -17.108862299831     -17.108862299831     -17.100657027586   0.0000   0.0000   0.0000   0.0000
    159    0.007821571339669    0.0    0.00     -17.110079579088     -17.110079579088     -17.110079579088     -17.102258007749   0.0000   0.0000   0.0000   0.0000
    160    0.007455303171908    0.0    0.00     -17.111239286051     -17.111239286051     -17.111239286051     -17.103783982880   0.0000   0.0000   0.0000   0.0000
    161    0.007105731837876    0.0    0.00     -17.112344158168     -17.112344158168     -17.112344158168     -17.105238426330   0.0000   0.0000   0.0000   0.0000
    162    0.006772146286778    0.0    0.00     -17.113396699491     -17.113396699491     -17.113396699491     -17.106624553204   0.0000   0.0000   0.0000   0.0000
    163    0.006453861669801    0.0    0.00     -17.114399351756     -17.114399351756     -17.114399351756     -17.107945490087   0.0000   0.0000   0.0000   0.0000
    164    0.006150216661166    0.0    0.00     -17.115354505682     -17.115354505682     -17.115354505682     -17.109204289021   0.0000   0.0000   0.0000   0.0000
    165    0.005860574469632    0.0    0.00     -17.116264300671     -17.116264300671     -17.116264300671     -17.110403726201   0.0000   0.0000   0.0000   0.0000
    166    0.005584322479001    0.0    0.00     -17.117130938903     -17.117130938903     -17.117130938903     -17.111546616424   0.0000   0.0000   0.0000   0.0000
    167    0.005320869868844    0.0    0.00     -17.117956436484     -17.117956436484     -17.117956436484     -17.112635566615   0.0000   0.0000   0.0000   0.0000
    168    0.005069648512023    0.0    0.00     -17.118742755051     -17.118742755051     -17.118742755051     -17.113673106539   0.0000   0.0000   0.0000   0.0000
    169    0.004830113939089    0.0    0.00     -17.119491708135     -17.119491708135     -17.119491708135     -17.114661594196   0.0000   0.0000   0.0000   0.0000
    170    0.004601743644791    0.0    0.00     -17.120205080506     -17.120205080506     -17.120205080506     -17.115603336862   0.0000   0.0000   0.0000   0.0000
    171    0.004384033828028    0.0    0.00     -17.120884582503     -17.120884582503     -17.120884582503     -17.116500548675   0.0000   0.0000   0.0000   0.0000
    172    0.004176500753391    0.0    0.00     -17.121531830326     -17.121531830326     -17.121531830326     -17.117355329573   0.0000   0.0000   0.0000   0.0000
    173    0.003978679197576    0.0    0.00     -17.122148415176     -17.122148415176     -17.122148415176     -17.118169735978   0.0000   0.0000   0.0000   0.0000
    174    0.003790122918231    0.0    0.00     -17.122735774003     -17.122735774003     -17.122735774003     -17.118945651085   0.0000   0.0000   0.0000   0.0000
    175    0.003610405678107    0.0    0.00     -17.123295269297     -17.123295269297     -17.123295269297     -17.119684863619   0.0000   0.0000   0.0000   0.0000
    176    0.003439119952399    0.0    0.00     -17.123828185427     -17.123828185427     -17.123828185427     -17.120389065474   0.0000   0.0000   0.0000   0.0000
    177    0.003275876364124    0.0    0.00     -17.124335779379     -17.124335779379     -17.124335779379     -17.121059903014   0.0000   0.0000   0.0000   0.0000
    178    0.003120302193939    0.0    0.00     -17.124819247606     -17.124819247606     -17.124819247606     -17.121698945412   0.0000   0.0000   0.0000   0.0000
    179    0.002972041682469    0.0    0.00     -17.125279722097     -17.125279722097     -17.125279722097     -17.122307680414   0.0000   0.0000   0.0000   0.0000
    180    0.002830755927450    0.0    0.00     -17.125718258264     -17.125718258264     -17.125718258264     -17.122887502337   0.0000   0.0000   0.0000   0.0000
    181    0.002696121383964    0.0    0.00     -17.126135897832     -17.126135897832     -17.126135897832     -17.123439776448   0.0000   0.0000   0.0000   0.0000
    182    0.002567829160018    0.0    0.00     -17.126533627256     -17.126533627256     -17.126533627256     -17.123965798096   0.0000   0.0000   0.0000   0.0000
    183    0.002445584843143    0.0    0.00     -17.126912394568     -17.126912394568     -17.126912394568     -17.124466809725   0.0000   0.0000   0.0000   0.0000
    184    0.002329107395791    0.0    0.00     -17.127273076120     -17.127273076120     -17.127273076120     -17.124943968724   0.0000   0.0000   0.0000   0.0000
    185    0.002218128718547    0.0    0.00     -17.127616541058     -17.127616541058     -17.127616541058     -17.125398412340   0.0000   0.0000   0.0000   0.0000
    186    0.002112392707427    0.0    0.00     -17.127943613095     -17.127943613095     -17.127943613095     -17.125831220388   0.0000   0.0000   0.0000   0.0000
    187    0.002011655029655    0.0    0.00     -17.128255063341     -17.128255063341     -17.128255063341     -17.126243408312   0.0000   0.0000   0.0000   0.0000
    188    0.001915682645415    0.0    0.00     -17.128551632809     -17.128551632809     -17.128551632809     -17.126635950163   0.0000   0.0000   0.0000   0.0000
    189    0.001824253355404    0.0    0.00     -17.128834028271     -17.128834028271     -17.128834028271     -17.127009774915   0.0000   0.0000   0.0000   0.0000
    190    0.001737155341916    0.0    0.00     -17.129102919206     -17.129102919206     -17.129102919206     -17.127365763864   0.0000   0.0000   0.0000   0.0000
    191    0.001654186323511    0.0    0.00     -17.129358944556     -17.129358944556     -17.129358944556     -17.127704758233   0.0000   0.0000   0.0000   0.0000
    192    0.001575153420432    0.0    0.00     -17.129602717898     -17.129602717898     -17.129602717898     -17.128027564477   0.0000   0.0000   0.0000   0.0000
    193    0.001499872587211    0.0    0.00     -17.129834818468     -17.129834818468     -17.129834818468     -17.128334945881   0.0000   0.0000   0.0000   0.0000
    194    0.001428168160743    0.0    0.00     -17.130055810701     -17.130055810701     -17.130055810701     -17.128627642540   0.0000   0.0000   0.0000   0.0000
    195    0.001359872561857    0.0    0.00     -17.130266221326     -17.130266221326     -17.130266221326     -17.128906348764   0.0000   0.0000   0.0000   0.0000
    196    0.001294825899786    0.0    0.00     -17.130466549311     -17.130466549311     -17.130466549311     -17.129171723411   0.0000   0.0000   0.0000   0.0000
    197    0.001232875648388    0.0    0.00     -17.130657282263     -17.130657282263     -17.130657282263     -17.129424406614   0.0000   0.0000   0.0000   0.0000
    198    0.001173876265871    0.0    0.00     -17.130838875140     -17.130838875140     -17.130838875140     -17.129664998874   0.0000   0.0000   0.0000   0.0000
    199    0.001117688896638    0.0    0.00     -17.131011767330     -17.131011767330     -17.131011767330     -17.129894078433   0.0000   0.0000   0.0000   0.0000

 * Physical Quantities at step:   200

   from rhoofr: total integrated electronic density
   in g-space =      8.000000   in r-space =     8.000000


                total energy =      -17.13117637403 Hartree a.u.
              kinetic energy =        7.74104 Hartree a.u.
        electrostatic energy =      -23.20405 Hartree a.u.
                         esr =        0.00133 Hartree a.u.
                       eself =       30.31961 Hartree a.u.
      pseudopotential energy =       -0.91834 Hartree a.u.
  n-l pseudopotential energy =        3.44796 Hartree a.u.
 exchange-correlation energy =       -4.19779 Hartree a.u.
           average potential =        0.00000 Hartree a.u.


   correction to one-el term =        0.00000 Hartree a.u.

   Eigenvalues (eV), kp =   1 , spin =  1

  -25.00  -12.91   -9.02   -7.03
 
   Allocated memory (kb) =    144540
 
   CELL_PARAMETERS
   20.00000000    0.00000000    0.00000000
    0.00000000   20.00000000    0.00000000
    0.00000000    0.00000000   20.00000000

   System Density [g/cm^3] :              0.0252137250


   System Volume [A.U.^3] :           8000.0000000000


   Center of mass square displacement (a.u.):   0.000000

   ATOMIC_POSITIONS
   O       0.11790000000000E+02     0.12050000000000E+02     0.11500000000000E+02
   H       0.13450000000000E+02     0.11220000000000E+02     0.11500000000000E+02
   H       0.10560000000000E+02     0.10660000000000E+02     0.11500000000000E+02
 
   ATOMIC_VELOCITIES
   O       0.00000000000000E+00     0.00000000000000E+00     0.00000000000000E+00
   H       0.00000000000000E+00     0.00000000000000E+00     0.00000000000000E+00
   H       0.00000000000000E+00     0.00000000000000E+00     0.00000000000000E+00
 
   Forces acting on atoms (au):
   O      -0.10074686235920E-03    -0.41321597211791E-02     0.18891695255367E-03
   H      -0.54092608159365E-02     0.37828222361599E-02    -0.59049304881929E-03
   H       0.84416800228143E-02     0.85245518271318E-02     0.33780233038153E-03
 


   Partial temperatures (for each ionic specie) 
   Species  Temp (K)   Mean Square Displacement (a.u.)
        1   0.00E+00     0.0000E+00
        2   0.00E+00     0.0000E+00
 
  nfi     ekinc              temph  tempp     etot                 enthal               econs                econt              vnhh    xnhh0   vnhp    xnhp0
    200    0.001064181106044    0.0    0.00     -17.131176374028     -17.131176374028     -17.131176374028     -17.130112192922   0.0000   0.0000   0.0000   0.0000

   writing restart file: /home/fnattino/Programs/qe-6.1/tempdir/h2o_vacuum_50.save
   restart file written in    0.074 sec.

    201    0.001013226551596    0.0    0.00     -17.131333093450     -17.131333093450     -17.131333093450     -17.130319866898   0.0000   0.0000   0.0000   0.0000
    202    0.000964704695629    0.0    0.00     -17.131482301293     -17.131482301293     -17.131482301293     -17.130517596597   0.0000   0.0000   0.0000   0.0000
    203    0.000918500576840    0.0    0.00     -17.131624356807     -17.131624356807     -17.131624356807     -17.130705856230   0.0000   0.0000   0.0000   0.0000
    204    0.000874504543143    0.0    0.00     -17.131759602964     -17.131759602964     -17.131759602964     -17.130885098421   0.0000   0.0000   0.0000   0.0000
    205    0.000832612030329    0.0    0.00     -17.131888367805     -17.131888367805     -17.131888367805     -17.131055755774   0.0000   0.0000   0.0000   0.0000
    206    0.000792723326524    0.0    0.00     -17.132010961279     -17.132010961279     -17.132010961279     -17.131218237952   0.0000   0.0000   0.0000   0.0000
    207    0.000754743408328    0.0    0.00     -17.132127677535     -17.132127677535     -17.132127677535     -17.131372934127   0.0000   0.0000   0.0000   0.0000
    208    0.000718581721959    0.0    0.00     -17.132238803998     -17.132238803998     -17.132238803998     -17.131520222277   0.0000   0.0000   0.0000   0.0000
    209    0.000684151872012    0.0    0.00     -17.132344608334     -17.132344608334     -17.132344608334     -17.131660456462   0.0000   0.0000   0.0000   0.0000
    210    0.000651371486666    0.0    0.00     -17.132445339718     -17.132445339718     -17.132445339718     -17.131793968232   0.0000   0.0000   0.0000   0.0000
    211    0.000620162062780    0.0    0.00     -17.132541246889     -17.132541246889     -17.132541246889     -17.131921084826   0.0000   0.0000   0.0000   0.0000
    212    0.000590448769928    0.0    0.00     -17.132632559497     -17.132632559497     -17.132632559497     -17.132042110727   0.0000   0.0000   0.0000   0.0000
    213    0.000562160329629    0.0    0.00     -17.132719499672     -17.132719499672     -17.132719499672     -17.132157339342   0.0000   0.0000   0.0000   0.0000
    214    0.000535228834994    0.0    0.00     -17.132802279753     -17.132802279753     -17.132802279753     -17.132267050918   0.0000   0.0000   0.0000   0.0000
    215    0.000509589528166    0.0    0.00     -17.132881093241     -17.132881093241     -17.132881093241     -17.132371503712   0.0000   0.0000   0.0000   0.0000
    216    0.000485180675900    0.0    0.00     -17.132956134822     -17.132956134822     -17.132956134822     -17.132470954146   0.0000   0.0000   0.0000   0.0000
    217    0.000461943495646    0.0    0.00     -17.133027585210     -17.133027585210     -17.133027585210     -17.132565641714   0.0000   0.0000   0.0000   0.0000
    218    0.000439821985553    0.0    0.00     -17.133095617304     -17.133095617304     -17.133095617304     -17.132655795319   0.0000   0.0000   0.0000   0.0000
    219    0.000418762774390    0.0    0.00     -17.133160394305     -17.133160394305     -17.133160394305     -17.132741631531   0.0000   0.0000   0.0000   0.0000
    220    0.000398715013260    0.0    0.00     -17.133222072990     -17.133222072990     -17.133222072990     -17.132823357976   0.0000   0.0000   0.0000   0.0000
    221    0.000379630275466    0.0    0.00     -17.133280804093     -17.133280804093     -17.133280804093     -17.132901173818   0.0000   0.0000   0.0000   0.0000
    222    0.000361462415944    0.0    0.00     -17.133336728349     -17.133336728349     -17.133336728349     -17.132975265933   0.0000   0.0000   0.0000   0.0000
    223    0.000344167492419    0.0    0.00     -17.133389979630     -17.133389979630     -17.133389979630     -17.133045812138   0.0000   0.0000   0.0000   0.0000
    224    0.000327703656509    0.0    0.00     -17.133440688423     -17.133440688423     -17.133440688423     -17.133112984766   0.0000   0.0000   0.0000   0.0000
    225    0.000312031055825    0.0    0.00     -17.133488976663     -17.133488976663     -17.133488976663     -17.133176945607   0.0000   0.0000   0.0000   0.0000
    226    0.000297111702563    0.0    0.00     -17.133534958290     -17.133534958290     -17.133534958290     -17.133237846587   0.0000   0.0000   0.0000   0.0000
    227    0.000282909408541    0.0    0.00     -17.133578744849     -17.133578744849     -17.133578744849     -17.133295835441   0.0000   0.0000   0.0000   0.0000
    228    0.000269389736814    0.0    0.00     -17.133620445080     -17.133620445080     -17.133620445080     -17.133351055344   0.0000   0.0000   0.0000   0.0000
    229    0.000256519879399    0.0    0.00     -17.133660156428     -17.133660156428     -17.133660156428     -17.133403636549   0.0000   0.0000   0.0000   0.0000
    230    0.000244268586090    0.0    0.00     -17.133697972985     -17.133697972985     -17.133697972985     -17.133453704398   0.0000   0.0000   0.0000   0.0000
    231    0.000232606119939    0.0    0.00     -17.133733989498     -17.133733989498     -17.133733989498     -17.133501383378   0.0000   0.0000   0.0000   0.0000
    232    0.000221504164887    0.0    0.00     -17.133768289456     -17.133768289456     -17.133768289456     -17.133546785291   0.0000   0.0000   0.0000   0.0000
    233    0.000210935756346    0.0    0.00     -17.133800958317     -17.133800958317     -17.133800958317     -17.133590022561   0.0000   0.0000   0.0000   0.0000
    234    0.000200875221211    0.0    0.00     -17.133832070994     -17.133832070994     -17.133832070994     -17.133631195772   0.0000   0.0000   0.0000   0.0000
    235    0.000191298101249    0.0    0.00     -17.133861703815     -17.133861703815     -17.133861703815     -17.133670405714   0.0000   0.0000   0.0000   0.0000
    236    0.000182181143990    0.0    0.00     -17.133889929280     -17.133889929280     -17.133889929280     -17.133707748136   0.0000   0.0000   0.0000   0.0000
    237    0.000173502202130    0.0    0.00     -17.133916811989     -17.133916811989     -17.133916811989     -17.133743309787   0.0000   0.0000   0.0000   0.0000
    238    0.000165240172987    0.0    0.00     -17.133942419201     -17.133942419201     -17.133942419201     -17.133777179028   0.0000   0.0000   0.0000   0.0000
    239    0.000157374979310    0.0    0.00     -17.133966811627     -17.133966811627     -17.133966811627     -17.133809436648   0.0000   0.0000   0.0000   0.0000
    240    0.000149887500065    0.0    0.00     -17.133990044618     -17.133990044618     -17.133990044618     -17.133840157118   0.0000   0.0000   0.0000   0.0000
    241    0.000142759538942    0.0    0.00     -17.134012177982     -17.134012177982     -17.134012177982     -17.133869418443   0.0000   0.0000   0.0000   0.0000
    242    0.000135973770471    0.0    0.00     -17.134033262490     -17.134033262490     -17.134033262490     -17.133897288719   0.0000   0.0000   0.0000   0.0000
    243    0.000129513692273    0.0    0.00     -17.134053347564     -17.134053347564     -17.134053347564     -17.133923833872   0.0000   0.0000   0.0000   0.0000
    244    0.000123363608900    0.0    0.00     -17.134072483158     -17.134072483158     -17.134072483158     -17.133949119549   0.0000   0.0000   0.0000   0.0000
    245    0.000117508582749    0.0    0.00     -17.134090712282     -17.134090712282     -17.134090712282     -17.133973203699   0.0000   0.0000   0.0000   0.0000
    246    0.000111934387459    0.0    0.00     -17.134108079919     -17.134108079919     -17.134108079919     -17.133996145531   0.0000   0.0000   0.0000   0.0000
    247    0.000106627480818    0.0    0.00     -17.134124627122     -17.134124627122     -17.134124627122     -17.134017999641   0.0000   0.0000   0.0000   0.0000
    248    0.000101574973897    0.0    0.00     -17.134140393829     -17.134140393829     -17.134140393829     -17.134038818855   0.0000   0.0000   0.0000   0.0000
    249    0.000096764607483    0.0    0.00     -17.134155416853     -17.134155416853     -17.134155416853     -17.134058652245   0.0000   0.0000   0.0000   0.0000
    250    0.000092184712919    0.0    0.00     -17.134169732258     -17.134169732258     -17.134169732258     -17.134077547545   0.0000   0.0000   0.0000   0.0000
    251    0.000087824173123    0.0    0.00     -17.134183372003     -17.134183372003     -17.134183372003     -17.134095547830   0.0000   0.0000   0.0000   0.0000
    252    0.000083672410071    0.0    0.00     -17.134196372203     -17.134196372203     -17.134196372203     -17.134112699793   0.0000   0.0000   0.0000   0.0000
    253    0.000079719358936    0.0    0.00     -17.134208757666     -17.134208757666     -17.134208757666     -17.134129038307   0.0000   0.0000   0.0000   0.0000
    254    0.000075955434646    0.0    0.00     -17.134220560963     -17.134220560963     -17.134220560963     -17.134144605529   0.0000   0.0000   0.0000   0.0000
    255    0.000072371516968    0.0    0.00     -17.134231808533     -17.134231808533     -17.134231808533     -17.134159437016   0.0000   0.0000   0.0000   0.0000
    256    0.000068958930294    0.0    0.00     -17.134242529045     -17.134242529045     -17.134242529045     -17.134173570115   0.0000   0.0000   0.0000   0.0000
    257    0.000065709415421    0.0    0.00     -17.134252745691     -17.134252745691     -17.134252745691     -17.134187036275   0.0000   0.0000   0.0000   0.0000
    258    0.000062615116447    0.0    0.00     -17.134262483892     -17.134262483892     -17.134262483892     -17.134199868776   0.0000   0.0000   0.0000   0.0000
    259    0.000059668561182    0.0    0.00     -17.134271766449     -17.134271766449     -17.134271766449     -17.134212097888   0.0000   0.0000   0.0000   0.0000
    260    0.000056862631184    0.0    0.00     -17.134280613846     -17.134280613846     -17.134280613846     -17.134223751214   0.0000   0.0000   0.0000   0.0000
    261    0.000054190543441    0.0    0.00     -17.134289046817     -17.134289046817     -17.134289046817     -17.134234856273   0.0000   0.0000   0.0000   0.0000
    262    0.000051645848467    0.0    0.00     -17.134297085613     -17.134297085613     -17.134297085613     -17.134245439764   0.0000   0.0000   0.0000   0.0000
    263    0.000049222423749    0.0    0.00     -17.134304750363     -17.134304750363     -17.134304750363     -17.134255527939   0.0000   0.0000   0.0000   0.0000
    264    0.000046914437735    0.0    0.00     -17.134312056979     -17.134312056979     -17.134312056979     -17.134265142542   0.0000   0.0000   0.0000   0.0000
    265    0.000044716329248    0.0    0.00     -17.134319023295     -17.134319023295     -17.134319023295     -17.134274306966   0.0000   0.0000   0.0000   0.0000
    266    0.000042622805309    0.0    0.00     -17.134325664271     -17.134325664271     -17.134325664271     -17.134283041466   0.0000   0.0000   0.0000   0.0000
    267    0.000040628830976    0.0    0.00     -17.134331995205     -17.134331995205     -17.134331995205     -17.134291366374   0.0000   0.0000   0.0000   0.0000
    268    0.000038729621932    0.0    0.00     -17.134338032586     -17.134338032586     -17.134338032586     -17.134299302964   0.0000   0.0000   0.0000   0.0000
    269    0.000036920625728    0.0    0.00     -17.134343789433     -17.134343789433     -17.134343789433     -17.134306868808   0.0000   0.0000   0.0000   0.0000
    270    0.000035197507470    0.0    0.00     -17.134349279756     -17.134349279756     -17.134349279756     -17.134314082248   0.0000   0.0000   0.0000   0.0000
    271    0.000033556142880    0.0    0.00     -17.134354514204     -17.134354514204     -17.134354514204     -17.134320958061   0.0000   0.0000   0.0000   0.0000
    272    0.000031992606987    0.0    0.00     -17.134359506849     -17.134359506849     -17.134359506849     -17.134327514242   0.0000   0.0000   0.0000   0.0000
    273    0.000030503163570    0.0    0.00     -17.134364268394     -17.134364268394     -17.134364268394     -17.134333765231   0.0000   0.0000   0.0000   0.0000
    274    0.000029084256286    0.0    0.00     -17.134368809511     -17.134368809511     -17.134368809511     -17.134339725254   0.0000   0.0000   0.0000   0.0000
    275    0.000027732503068    0.0    0.00     -17.134373140760     -17.134373140760     -17.134373140760     -17.134345408257   0.0000   0.0000   0.0000   0.0000
    276    0.000026444683380    0.0    0.00     -17.134377272034     -17.134377272034     -17.134377272034     -17.134350827350   0.0000   0.0000   0.0000   0.0000
    277    0.000025217730894    0.0    0.00     -17.134381211555     -17.134381211555     -17.134381211555     -17.134355993824   0.0000   0.0000   0.0000   0.0000
    278    0.000024048729939    0.0    0.00     -17.134384970416     -17.134384970416     -17.134384970416     -17.134360921686   0.0000   0.0000   0.0000   0.0000
    279    0.000022934908966    0.0    0.00     -17.134388556950     -17.134388556950     -17.134388556950     -17.134365622041   0.0000   0.0000   0.0000   0.0000
    280    0.000021873623410    0.0    0.00     -17.134391976983     -17.134391976983     -17.134391976983     -17.134370103360   0.0000   0.0000   0.0000   0.0000
    281    0.000020862356146    0.0    0.00     -17.134395240275     -17.134395240275     -17.134395240275     -17.134374377919   0.0000   0.0000   0.0000   0.0000
    282    0.000019898718665    0.0    0.00     -17.134398354092     -17.134398354092     -17.134398354092     -17.134378455373   0.0000   0.0000   0.0000   0.0000
    283    0.000018980433238    0.0    0.00     -17.134401324805     -17.134401324805     -17.134401324805     -17.134382344372   0.0000   0.0000   0.0000   0.0000
    284    0.000018105334248    0.0    0.00     -17.134404160411     -17.134404160411     -17.134404160411     -17.134386055076   0.0000   0.0000   0.0000   0.0000
    285    0.000017271363329    0.0    0.00     -17.134406865739     -17.134406865739     -17.134406865739     -17.134389594376   0.0000   0.0000   0.0000   0.0000
    286    0.000016476557137    0.0    0.00     -17.134409447949     -17.134409447949     -17.134409447949     -17.134392971392   0.0000   0.0000   0.0000   0.0000
    287    0.000015719044157    0.0    0.00     -17.134411910882     -17.134411910882     -17.134411910882     -17.134396191837   0.0000   0.0000   0.0000   0.0000
    288    0.000014997045570    0.0    0.00     -17.134414261614     -17.134414261614     -17.134414261614     -17.134399264568   0.0000   0.0000   0.0000   0.0000
    289    0.000014308870885    0.0    0.00     -17.134416505026     -17.134416505026     -17.134416505026     -17.134402196155   0.0000   0.0000   0.0000   0.0000
    290    0.000013652908903    0.0    0.00     -17.134418646140     -17.134418646140     -17.134418646140     -17.134404993231   0.0000   0.0000   0.0000   0.0000
    291    0.000013027627173    0.0    0.00     -17.134420689668     -17.134420689668     -17.134420689668     -17.134407662041   0.0000   0.0000   0.0000   0.0000
    292    0.000012431568120    0.0    0.00     -17.134422641106     -17.134422641106     -17.134422641106     -17.134410209537   0.0000   0.0000   0.0000   0.0000
    293    0.000011863345576    0.0    0.00     -17.134424504574     -17.134424504574     -17.134424504574     -17.134412641228   0.0000   0.0000   0.0000   0.0000
    294    0.000011321638532    0.0    0.00     -17.134426283402     -17.134426283402     -17.134426283402     -17.134414961763   0.0000   0.0000   0.0000   0.0000
    295    0.000010805185721    0.0    0.00     -17.134427980459     -17.134427980459     -17.134427980459     -17.134417175273   0.0000   0.0000   0.0000   0.0000
    296    0.000010312787819    0.0    0.00     -17.134429600896     -17.134429600896     -17.134429600896     -17.134419288108   0.0000   0.0000   0.0000   0.0000
    297    0.000009843305844    0.0    0.00     -17.134431148993     -17.134431148993     -17.134431148993     -17.134421305687   0.0000   0.0000   0.0000   0.0000
    298    0.000009395654058    0.0    0.00     -17.134432626157     -17.134432626157     -17.134432626157     -17.134423230502   0.0000   0.0000   0.0000   0.0000
    299    0.000008968797491    0.0    0.00     -17.134434036314     -17.134434036314     -17.134434036314     -17.134425067517   0.0000   0.0000   0.0000   0.0000

 * Physical Quantities at step:   300

   from rhoofr: total integrated electronic density
   in g-space =      8.000000   in r-space =     8.000000


                total energy =      -17.13443538318 Hartree a.u.
              kinetic energy =        7.73469 Hartree a.u.
        electrostatic energy =      -23.20158 Hartree a.u.
                         esr =        0.00133 Hartree a.u.
                       eself =       30.31961 Hartree a.u.
      pseudopotential energy =       -0.91720 Hartree a.u.
  n-l pseudopotential energy =        3.44307 Hartree a.u.
 exchange-correlation energy =       -4.19342 Hartree a.u.
           average potential =        0.00000 Hartree a.u.


   correction to one-el term =        0.00000 Hartree a.u.

   Eigenvalues (eV), kp =   1 , spin =  1

  -25.09  -12.97   -9.12   -7.11
 
   Allocated memory (kb) =    144540
 
   CELL_PARAMETERS
   20.00000000    0.00000000    0.00000000
    0.00000000   20.00000000    0.00000000
    0.00000000    0.00000000   20.00000000

   System Density [g/cm^3] :              0.0252137250


   System Volume [A.U.^3] :           8000.0000000000


   Center of mass square displacement (a.u.):   0.000000

   ATOMIC_POSITIONS
   O       0.11790000000000E+02     0.12050000000000E+02     0.11500000000000E+02
   H       0.13450000000000E+02     0.11220000000000E+02     0.11500000000000E+02
   H       0.10560000000000E+02     0.10660000000000E+02     0.11500000000000E+02
 
   ATOMIC_VELOCITIES
   O       0.00000000000000E+00     0.00000000000000E+00     0.00000000000000E+00
   H       0.00000000000000E+00     0.00000000000000E+00     0.00000000000000E+00
   H       0.00000000000000E+00     0.00000000000000E+00     0.00000000000000E+00
 
   Forces acting on atoms (au):
   O       0.12095061114953E-02    -0.68391067141289E-02    -0.53242013970210E-04
   H      -0.67806661912881E-02     0.25050298417462E-02    -0.58338001521592E-04
   H       0.58185122562578E-02     0.52985123973059E-02     0.33881853953515E-04
 


   Partial temperatures (for each ionic specie) 
   Species  Temp (K)   Mean Square Displacement (a.u.)
        1   0.00E+00     0.0000E+00
        2   0.00E+00     0.0000E+00
 
  nfi     ekinc              temph  tempp     etot                 enthal               econs                econt              vnhh    xnhh0   vnhp    xnhp0
    300    0.000008561751626    0.0    0.00     -17.134435383183     -17.134435383183     -17.134435383183     -17.134426821432   0.0000   0.0000   0.0000   0.0000

   writing restart file: /home/fnattino/Programs/qe-6.1/tempdir/h2o_vacuum_50.save
   restart file written in    0.075 sec.

    301    0.000008173581029    0.0    0.00     -17.134436670068     -17.134436670068     -17.134436670068     -17.134428496487   0.0000   0.0000   0.0000   0.0000
    302    0.000007803395569    0.0    0.00     -17.134437899110     -17.134437899110     -17.134437899110     -17.134430095714   0.0000   0.0000   0.0000   0.0000
    303    0.000007450346934    0.0    0.00     -17.134439073329     -17.134439073329     -17.134439073329     -17.134431622982   0.0000   0.0000   0.0000   0.0000
    304    0.000007113626318    0.0    0.00     -17.134440194811     -17.134440194811     -17.134440194811     -17.134433081185   0.0000   0.0000   0.0000   0.0000
    305    0.000006792463725    0.0    0.00     -17.134441265500     -17.134441265500     -17.134441265500     -17.134434473036   0.0000   0.0000   0.0000   0.0000
    306    0.000006486126128    0.0    0.00     -17.134442287481     -17.134442287481     -17.134442287481     -17.134435801355   0.0000   0.0000   0.0000   0.0000
    307    0.000006193915096    0.0    0.00     -17.134443264162     -17.134443264162     -17.134443264162     -17.134437070247   0.0000   0.0000   0.0000   0.0000
    308    0.000005915166335    0.0    0.00     -17.134444197717     -17.134444197717     -17.134444197717     -17.134438282550   0.0000   0.0000   0.0000   0.0000
    309    0.000005649248634    0.0    0.00     -17.134445090252     -17.134445090252     -17.134445090252     -17.134439441004   0.0000   0.0000   0.0000   0.0000
    310    0.000005395560557    0.0    0.00     -17.134445942964     -17.134445942964     -17.134445942964     -17.134440547404   0.0000   0.0000   0.0000   0.0000
    311    0.000005153527578    0.0    0.00     -17.134446757373     -17.134446757373     -17.134446757373     -17.134441603846   0.0000   0.0000   0.0000   0.0000
    312    0.000004922603475    0.0    0.00     -17.134447535598     -17.134447535598     -17.134447535598     -17.134442612994   0.0000   0.0000   0.0000   0.0000
    313    0.000004702268555    0.0    0.00     -17.134448279393     -17.134448279393     -17.134448279393     -17.134443577124   0.0000   0.0000   0.0000   0.0000
    314    0.000004492026658    0.0    0.00     -17.134448990055     -17.134448990055     -17.134448990055     -17.134444498028   0.0000   0.0000   0.0000   0.0000
    315    0.000004291404489    0.0    0.00     -17.134449668391     -17.134449668391     -17.134449668391     -17.134445376986   0.0000   0.0000   0.0000   0.0000
    316    0.000004099953091    0.0    0.00     -17.134450317645     -17.134450317645     -17.134450317645     -17.134446217692   0.0000   0.0000   0.0000   0.0000
    317    0.000003917245760    0.0    0.00     -17.134450938391     -17.134450938391     -17.134450938391     -17.134447021145   0.0000   0.0000   0.0000   0.0000
    318    0.000003742874889    0.0    0.00     -17.134451531856     -17.134451531856     -17.134451531856     -17.134447788981   0.0000   0.0000   0.0000   0.0000
    319    0.000003576451843    0.0    0.00     -17.134452098686     -17.134452098686     -17.134452098686     -17.134448522234   0.0000   0.0000   0.0000   0.0000
    320    0.000003417605842    0.0    0.00     -17.134452640456     -17.134452640456     -17.134452640456     -17.134449222850   0.0000   0.0000   0.0000   0.0000
    321    0.000003265984291    0.0    0.00     -17.134453158335     -17.134453158335     -17.134453158335     -17.134449892351   0.0000   0.0000   0.0000   0.0000
    322    0.000003121251646    0.0    0.00     -17.134453653384     -17.134453653384     -17.134453653384     -17.134450532133   0.0000   0.0000   0.0000   0.0000
    323    0.000002983087862    0.0    0.00     -17.134454126771     -17.134454126771     -17.134454126771     -17.134451143684   0.0000   0.0000   0.0000   0.0000
    324    0.000002851188130    0.0    0.00     -17.134454579289     -17.134454579289     -17.134454579289     -17.134451728101   0.0000   0.0000   0.0000   0.0000
    325    0.000002725262014    0.0    0.00     -17.134455011933     -17.134455011933     -17.134455011933     -17.134452286671   0.0000   0.0000   0.0000   0.0000
    326    0.000002605033414    0.0    0.00     -17.134455425889     -17.134455425889     -17.134455425889     -17.134452820856   0.0000   0.0000   0.0000   0.0000
    327    0.000002490238837    0.0    0.00     -17.134455821439     -17.134455821439     -17.134455821439     -17.134453331200   0.0000   0.0000   0.0000   0.0000
    328    0.000002380627540    0.0    0.00     -17.134456200200     -17.134456200200     -17.134456200200     -17.134453819572   0.0000   0.0000   0.0000   0.0000
    329    0.000002275959881    0.0    0.00     -17.134456561275     -17.134456561275     -17.134456561275     -17.134454285315   0.0000   0.0000   0.0000   0.0000
    330    0.000002176007339    0.0    0.00     -17.134456907208     -17.134456907208     -17.134456907208     -17.134454731200   0.0000   0.0000   0.0000   0.0000
    331    0.000002080553178    0.0    0.00     -17.134457238387     -17.134457238387     -17.134457238387     -17.134455157834   0.0000   0.0000   0.0000   0.0000
    332    0.000001989390042    0.0    0.00     -17.134457554643     -17.134457554643     -17.134457554643     -17.134455565253   0.0000   0.0000   0.0000   0.0000
    333    0.000001902321171    0.0    0.00     -17.134457857784     -17.134457857784     -17.134457857784     -17.134455955463   0.0000   0.0000   0.0000   0.0000
    334    0.000001819158527    0.0    0.00     -17.134458147371     -17.134458147371     -17.134458147371     -17.134456328213   0.0000   0.0000   0.0000   0.0000
    335    0.000001739722504    0.0    0.00     -17.134458425007     -17.134458425007     -17.134458425007     -17.134456685284   0.0000   0.0000   0.0000   0.0000
    336    0.000001663842452    0.0    0.00     -17.134458690130     -17.134458690130     -17.134458690130     -17.134457026287   0.0000   0.0000   0.0000   0.0000
    337    0.000001591355378    0.0    0.00     -17.134458943925     -17.134458943925     -17.134458943925     -17.134457352570   0.0000   0.0000   0.0000   0.0000
    338    0.000001522106237    0.0    0.00     -17.134459186810     -17.134459186810     -17.134459186810     -17.134457664704   0.0000   0.0000   0.0000   0.0000
    339    0.000001455946769    0.0    0.00     -17.134459419066     -17.134459419066     -17.134459419066     -17.134457963119   0.0000   0.0000   0.0000   0.0000
    340    0.000001392735557    0.0    0.00     -17.134459641382     -17.134459641382     -17.134459641382     -17.134458248647   0.0000   0.0000   0.0000   0.0000
    341    0.000001332338114    0.0    0.00     -17.134459854100     -17.134459854100     -17.134459854100     -17.134458521762   0.0000   0.0000   0.0000   0.0000
    342    0.000001274626564    0.0    0.00     -17.134460057908     -17.134460057908     -17.134460057908     -17.134458783282   0.0000   0.0000   0.0000   0.0000
    343    0.000001219478906    0.0    0.00     -17.134460253228     -17.134460253228     -17.134460253228     -17.134459033749   0.0000   0.0000   0.0000   0.0000
    344    0.000001166778542    0.0    0.00     -17.134460439874     -17.134460439874     -17.134460439874     -17.134459273095   0.0000   0.0000   0.0000   0.0000
    345    0.000001116414213    0.0    0.00     -17.134460618634     -17.134460618634     -17.134460618634     -17.134459502220   0.0000   0.0000   0.0000   0.0000
    346    0.000001068279657    0.0    0.00     -17.134460789899     -17.134460789899     -17.134460789899     -17.134459721620   0.0000   0.0000   0.0000   0.0000
    347    0.000001022273585    0.0    0.00     -17.134460953487     -17.134460953487     -17.134460953487     -17.134459931213   0.0000   0.0000   0.0000   0.0000
    348    0.000000978299386    0.0    0.00     -17.134461109664     -17.134461109664     -17.134461109664     -17.134460131365   0.0000   0.0000   0.0000   0.0000
    349    0.000000936265166    0.0    0.00     -17.134461259664     -17.134461259664     -17.134461259664     -17.134460323399   0.0000   0.0000   0.0000   0.0000
    350    0.000000896083447    0.0    0.00     -17.134461403490     -17.134461403490     -17.134461403490     -17.134460507407   0.0000   0.0000   0.0000   0.0000
    351    0.000000857670517    0.0    0.00     -17.134461540875     -17.134461540875     -17.134461540875     -17.134460683204   0.0000   0.0000   0.0000   0.0000
    352    0.000000820946863    0.0    0.00     -17.134461672894     -17.134461672894     -17.134461672894     -17.134460851947   0.0000   0.0000   0.0000   0.0000
    353    0.000000785836647    0.0    0.00     -17.134461799142     -17.134461799142     -17.134461799142     -17.134461013306   0.0000   0.0000   0.0000   0.0000
    354    0.000000752267095    0.0    0.00     -17.134461920245     -17.134461920245     -17.134461920245     -17.134461167978   0.0000   0.0000   0.0000   0.0000
    355    0.000000720168679    0.0    0.00     -17.134462035646     -17.134462035646     -17.134462035646     -17.134461315477   0.0000   0.0000   0.0000   0.0000
    356    0.000000689475231    0.0    0.00     -17.134462146175     -17.134462146175     -17.134462146175     -17.134461456700   0.0000   0.0000   0.0000   0.0000
    357    0.000000660123846    0.0    0.00     -17.134462252267     -17.134462252267     -17.134462252267     -17.134461592143   0.0000   0.0000   0.0000   0.0000
    358    0.000000632054623    0.0    0.00     -17.134462354244     -17.134462354244     -17.134462354244     -17.134461722189   0.0000   0.0000   0.0000   0.0000
    359    0.000000605210231    0.0    0.00     -17.134462451762     -17.134462451762     -17.134462451762     -17.134461846552   0.0000   0.0000   0.0000   0.0000
    360    0.000000579535695    0.0    0.00     -17.134462545091     -17.134462545091     -17.134462545091     -17.134461965556   0.0000   0.0000   0.0000   0.0000
    361    0.000000554978696    0.0    0.00     -17.134462634438     -17.134462634438     -17.134462634438     -17.134462079459   0.0000   0.0000   0.0000   0.0000
    362    0.000000531489409    0.0    0.00     -17.134462720148     -17.134462720148     -17.134462720148     -17.134462188658   0.0000   0.0000   0.0000   0.0000
    363    0.000000509020187    0.0    0.00     -17.134462802144     -17.134462802144     -17.134462802144     -17.134462293124   0.0000   0.0000   0.0000   0.0000
    364    0.000000487525759    0.0    0.00     -17.134462881029     -17.134462881029     -17.134462881029     -17.134462393503   0.0000   0.0000   0.0000   0.0000
    365    0.000000466962942    0.0    0.00     -17.134462956738     -17.134462956738     -17.134462956738     -17.134462489775   0.0000   0.0000   0.0000   0.0000
    366    0.000000447290235    0.0    0.00     -17.134463029253     -17.134463029253     -17.134463029253     -17.134462581963   0.0000   0.0000   0.0000   0.0000
    367    0.000000428468084    0.0    0.00     -17.134463098381     -17.134463098381     -17.134463098381     -17.134462669913   0.0000   0.0000   0.0000   0.0000
    368    0.000000410458913    0.0    0.00     -17.134463164970     -17.134463164970     -17.134463164970     -17.134462754511   0.0000   0.0000   0.0000   0.0000
    369    0.000000393226714    0.0    0.00     -17.134463228460     -17.134463228460     -17.134463228460     -17.134462835234   0.0000   0.0000   0.0000   0.0000
    370    0.000000376736873    0.0    0.00     -17.134463289320     -17.134463289320     -17.134463289320     -17.134462912583   0.0000   0.0000   0.0000   0.0000
    371    0.000000360956580    0.0    0.00     -17.134463347647     -17.134463347647     -17.134463347647     -17.134462986690   0.0000   0.0000   0.0000   0.0000
    372    0.000000345854660    0.0    0.00     -17.134463403717     -17.134463403717     -17.134463403717     -17.134463057863   0.0000   0.0000   0.0000   0.0000
    373    0.000000331401145    0.0    0.00     -17.134463457096     -17.134463457096     -17.134463457096     -17.134463125695   0.0000   0.0000   0.0000   0.0000
    374    0.000000317567521    0.0    0.00     -17.134463508694     -17.134463508694     -17.134463508694     -17.134463191126   0.0000   0.0000   0.0000   0.0000
    375    0.000000304326566    0.0    0.00     -17.134463557877     -17.134463557877     -17.134463557877     -17.134463253551   0.0000   0.0000   0.0000   0.0000
    376    0.000000291652129    0.0    0.00     -17.134463605109     -17.134463605109     -17.134463605109     -17.134463313457   0.0000   0.0000   0.0000   0.0000
    377    0.000000279519625    0.0    0.00     -17.134463650956     -17.134463650956     -17.134463650956     -17.134463371437   0.0000   0.0000   0.0000   0.0000
    378    0.000000267905196    0.0    0.00     -17.134463694243     -17.134463694243     -17.134463694243     -17.134463426338   0.0000   0.0000   0.0000   0.0000
    379    0.000000256785981    0.0    0.00     -17.134463736062     -17.134463736062     -17.134463736062     -17.134463479276   0.0000   0.0000   0.0000   0.0000
    380    0.000000246140443    0.0    0.00     -17.134463775946     -17.134463775946     -17.134463775946     -17.134463529806   0.0000   0.0000   0.0000   0.0000
    381    0.000000235947887    0.0    0.00     -17.134463814354     -17.134463814354     -17.134463814354     -17.134463578406   0.0000   0.0000   0.0000   0.0000
[...]
    588    0.000000000089539    0.0    0.00     -17.134464743018     -17.134464743018     -17.134464743018     -17.134464742929   0.0000   0.0000   0.0000   0.0000
    589    0.000000000086505    0.0    0.00     -17.134464742984     -17.134464742984     -17.134464742984     -17.134464742898   0.0000   0.0000   0.0000   0.0000
    590    0.000000000083577    0.0    0.00     -17.134464746685     -17.134464746685     -17.134464746685     -17.134464746601   0.0000   0.0000   0.0000   0.0000
    591    0.000000000080750    0.0    0.00     -17.134464743071     -17.134464743071     -17.134464743071     -17.134464742990   0.0000   0.0000   0.0000   0.0000
    592    0.000000000078021    0.0    0.00     -17.134464743021     -17.134464743021     -17.134464743021     -17.134464742943   0.0000   0.0000   0.0000   0.0000
    593    0.000000000075388    0.0    0.00     -17.134464743160     -17.134464743160     -17.134464743160     -17.134464743085   0.0000   0.0000   0.0000   0.0000
    594    0.000000000072847    0.0    0.00     -17.134464743989     -17.134464743989     -17.134464743989     -17.134464743916   0.0000   0.0000   0.0000   0.0000
    595    0.000000000070393    0.0    0.00     -17.134464746163     -17.134464746163     -17.134464746163     -17.134464746093   0.0000   0.0000   0.0000   0.0000
    596    0.000000000068024    0.0    0.00     -17.134464743206     -17.134464743206     -17.134464743206     -17.134464743138   0.0000   0.0000   0.0000   0.0000
    597    0.000000000065737    0.0    0.00     -17.134464743174     -17.134464743174     -17.134464743174     -17.134464743108   0.0000   0.0000   0.0000   0.0000
    598    0.000000000063529    0.0    0.00     -17.134464746422     -17.134464746422     -17.134464746422     -17.134464746359   0.0000   0.0000   0.0000   0.0000
    599    0.000000000061396    0.0    0.00     -17.134464743247     -17.134464743247     -17.134464743247     -17.134464743186   0.0000   0.0000   0.0000   0.0000

 * Physical Quantities at step:   600

   from rhoofr: total integrated electronic density
   in g-space =      8.000000   in r-space =     8.000000


                total energy =      -17.13446474324 Hartree a.u.
              kinetic energy =        7.73446 Hartree a.u.
        electrostatic energy =      -23.20150 Hartree a.u.
                         esr =        0.00133 Hartree a.u.
                       eself =       30.31961 Hartree a.u.
      pseudopotential energy =       -0.91710 Hartree a.u.
  n-l pseudopotential energy =        3.44260 Hartree a.u.
 exchange-correlation energy =       -4.19292 Hartree a.u.
           average potential =        0.00000 Hartree a.u.


   correction to one-el term =        0.00000 Hartree a.u.

   Eigenvalues (eV), kp =   1 , spin =  1

  -25.10  -12.98   -9.13   -7.12
 
   Allocated memory (kb) =    144540
 
   CELL_PARAMETERS
   20.00000000    0.00000000    0.00000000
    0.00000000   20.00000000    0.00000000
    0.00000000    0.00000000   20.00000000

   System Density [g/cm^3] :              0.0252137250


   System Volume [A.U.^3] :           8000.0000000000


   Center of mass square displacement (a.u.):   0.000000

   ATOMIC_POSITIONS
   O       0.11790000000000E+02     0.12050000000000E+02     0.11500000000000E+02
   H       0.13450000000000E+02     0.11220000000000E+02     0.11500000000000E+02
   H       0.10560000000000E+02     0.10660000000000E+02     0.11500000000000E+02
 
   ATOMIC_VELOCITIES
   O       0.00000000000000E+00     0.00000000000000E+00     0.00000000000000E+00
   H       0.00000000000000E+00     0.00000000000000E+00     0.00000000000000E+00
   H       0.00000000000000E+00     0.00000000000000E+00     0.00000000000000E+00
 
   Forces acting on atoms (au):
   O       0.14307289695282E-02    -0.73908287883392E-02    -0.30365520831322E-05
   H      -0.69370852279769E-02     0.24922898341552E-02    -0.44917992456747E-06
   H       0.55539817280584E-02     0.49300719965115E-02    -0.71953709861413E-06
 


   Partial temperatures (for each ionic specie) 
   Species  Temp (K)   Mean Square Displacement (a.u.)
        1   0.00E+00     0.0000E+00
        2   0.00E+00     0.0000E+00
 
  nfi     ekinc              temph  tempp     etot                 enthal               econs                econt              vnhh    xnhh0   vnhp    xnhp0
    600    0.000000000059338    0.0    0.00     -17.134464743244     -17.134464743244     -17.134464743244     -17.134464743185   0.0000   0.0000   0.0000   0.0000

   writing restart file: /home/fnattino/Programs/qe-6.1/tempdir/h2o_vacuum_50.save
   restart file written in    0.075 sec.

    601    0.000000000057350    0.0    0.00     -17.134464746627     -17.134464746627     -17.134464746627     -17.134464746569   0.0000   0.0000   0.0000   0.0000
    602    0.000000000055431    0.0    0.00     -17.134464743336     -17.134464743336     -17.134464743336     -17.134464743280   0.0000   0.0000   0.0000   0.0000
    603    0.000000000053578    0.0    0.00     -17.134464743287     -17.134464743287     -17.134464743287     -17.134464743233   0.0000   0.0000   0.0000   0.0000
    604    0.000000000051789    0.0    0.00     -17.134464746750     -17.134464746750     -17.134464746750     -17.134464746698   0.0000   0.0000   0.0000   0.0000
    605    0.000000000050060    0.0    0.00     -17.134464743363     -17.134464743363     -17.134464743363     -17.134464743313   0.0000   0.0000   0.0000   0.0000
    606    0.000000000048391    0.0    0.00     -17.134464743312     -17.134464743312     -17.134464743312     -17.134464743264   0.0000   0.0000   0.0000   0.0000
    607    0.000000000046779    0.0    0.00     -17.134464746889     -17.134464746889     -17.134464746889     -17.134464746842   0.0000   0.0000   0.0000   0.0000
    608    0.000000000045223    0.0    0.00     -17.134464743463     -17.134464743463     -17.134464743463     -17.134464743417   0.0000   0.0000   0.0000   0.0000
    609    0.000000000043719    0.0    0.00     -17.134464743411     -17.134464743411     -17.134464743411     -17.134464743368   0.0000   0.0000   0.0000   0.0000
    610    0.000000000042266    0.0    0.00     -17.134464743456     -17.134464743456     -17.134464743456     -17.134464743414   0.0000   0.0000   0.0000   0.0000
    611    0.000000000040863    0.0    0.00     -17.134464744077     -17.134464744077     -17.134464744077     -17.134464744036   0.0000   0.0000   0.0000   0.0000
    612    0.000000000039509    0.0    0.00     -17.134464745782     -17.134464745782     -17.134464745782     -17.134464745743   0.0000   0.0000   0.0000   0.0000
    613    0.000000000038200    0.0    0.00     -17.134464743583     -17.134464743583     -17.134464743583     -17.134464743545   0.0000   0.0000   0.0000   0.0000
    614    0.000000000036936    0.0    0.00     -17.134464743557     -17.134464743557     -17.134464743557     -17.134464743520   0.0000   0.0000   0.0000   0.0000
    615    0.000000000035715    0.0    0.00     -17.134464745953     -17.134464745953     -17.134464745953     -17.134464745918   0.0000   0.0000   0.0000   0.0000
    616    0.000000000034535    0.0    0.00     -17.134464743608     -17.134464743608     -17.134464743608     -17.134464743574   0.0000   0.0000   0.0000   0.0000
    617    0.000000000033395    0.0    0.00     -17.134464743572     -17.134464743572     -17.134464743572     -17.134464743539   0.0000   0.0000   0.0000   0.0000
    618    0.000000000032294    0.0    0.00     -17.134464746055     -17.134464746055     -17.134464746055     -17.134464746023   0.0000   0.0000   0.0000   0.0000
    619    0.000000000031229    0.0    0.00     -17.134464743625     -17.134464743625     -17.134464743625     -17.134464743594   0.0000   0.0000   0.0000   0.0000
    620    0.000000000030201    0.0    0.00     -17.134464743587     -17.134464743587     -17.134464743587     -17.134464743557   0.0000   0.0000   0.0000   0.0000
    621    0.000000000029208    0.0    0.00     -17.134464746159     -17.134464746159     -17.134464746159     -17.134464746130   0.0000   0.0000   0.0000   0.0000
    622    0.000000000028248    0.0    0.00     -17.134464743678     -17.134464743678     -17.134464743678     -17.134464743650   0.0000   0.0000   0.0000   0.0000
    623    0.000000000027321    0.0    0.00     -17.134464743640     -17.134464743640     -17.134464743640     -17.134464743612   0.0000   0.0000   0.0000   0.0000
    624    0.000000000026425    0.0    0.00     -17.134464746194     -17.134464746194     -17.134464746194     -17.134464746167   0.0000   0.0000   0.0000   0.0000
    625    0.000000000025559    0.0    0.00     -17.134464743692     -17.134464743692     -17.134464743692     -17.134464743666   0.0000   0.0000   0.0000   0.0000
    626    0.000000000024722    0.0    0.00     -17.134464743653     -17.134464743653     -17.134464743653     -17.134464743628   0.0000   0.0000   0.0000   0.0000
    627    0.000000000023913    0.0    0.00     -17.134464746204     -17.134464746204     -17.134464746204     -17.134464746180   0.0000   0.0000   0.0000   0.0000
    628    0.000000000023131    0.0    0.00     -17.134464743790     -17.134464743790     -17.134464743790     -17.134464743767   0.0000   0.0000   0.0000   0.0000
    629    0.000000000022376    0.0    0.00     -17.134464743752     -17.134464743752     -17.134464743752     -17.134464743729   0.0000   0.0000   0.0000   0.0000
    630    0.000000000021647    0.0    0.00     -17.134464746281     -17.134464746281     -17.134464746281     -17.134464746259   0.0000   0.0000   0.0000   0.0000
    631    0.000000000020941    0.0    0.00     -17.134464743801     -17.134464743801     -17.134464743801     -17.134464743780   0.0000   0.0000   0.0000   0.0000
    632    0.000000000020260    0.0    0.00     -17.134464743763     -17.134464743763     -17.134464743763     -17.134464743742   0.0000   0.0000   0.0000   0.0000
    633    0.000000000019601    0.0    0.00     -17.134464746255     -17.134464746255     -17.134464746255     -17.134464746235   0.0000   0.0000   0.0000   0.0000
    634    0.000000000018963    0.0    0.00     -17.134464743810     -17.134464743810     -17.134464743810     -17.134464743792   0.0000   0.0000   0.0000   0.0000
    635    0.000000000018348    0.0    0.00     -17.134464743772     -17.134464743772     -17.134464743772     -17.134464743754   0.0000   0.0000   0.0000   0.0000
    636    0.000000000017752    0.0    0.00     -17.134464746216     -17.134464746216     -17.134464746216     -17.134464746198   0.0000   0.0000   0.0000   0.0000
    637    0.000000000017177    0.0    0.00     -17.134464743819     -17.134464743819     -17.134464743819     -17.134464743802   0.0000   0.0000   0.0000   0.0000
    638    0.000000000016621    0.0    0.00     -17.134464743782     -17.134464743782     -17.134464743782     -17.134464743765   0.0000   0.0000   0.0000   0.0000
    639    0.000000000016083    0.0    0.00     -17.134464746166     -17.134464746166     -17.134464746166     -17.134464746150   0.0000   0.0000   0.0000   0.0000
    640    0.000000000015563    0.0    0.00     -17.134464743826     -17.134464743826     -17.134464743826     -17.134464743811   0.0000   0.0000   0.0000   0.0000
    641    0.000000000015060    0.0    0.00     -17.134464743790     -17.134464743790     -17.134464743790     -17.134464743775   0.0000   0.0000   0.0000   0.0000
    642    0.000000000014574    0.0    0.00     -17.134464746108     -17.134464746108     -17.134464746108     -17.134464746094   0.0000   0.0000   0.0000   0.0000
    643    0.000000000014104    0.0    0.00     -17.134464743921     -17.134464743921     -17.134464743921     -17.134464743907   0.0000   0.0000   0.0000   0.0000
    644    0.000000000013651    0.0    0.00     -17.134464743885     -17.134464743885     -17.134464743885     -17.134464743872   0.0000   0.0000   0.0000   0.0000
    645    0.000000000013212    0.0    0.00     -17.134464746180     -17.134464746180     -17.134464746180     -17.134464746166   0.0000   0.0000   0.0000   0.0000
    646    0.000000000012788    0.0    0.00     -17.134464743974     -17.134464743974     -17.134464743974     -17.134464743961   0.0000   0.0000   0.0000   0.0000
    647    0.000000000012378    0.0    0.00     -17.134464743940     -17.134464743940     -17.134464743940     -17.134464743927   0.0000   0.0000   0.0000   0.0000
    648    0.000000000011981    0.0    0.00     -17.134464746112     -17.134464746112     -17.134464746112     -17.134464746100   0.0000   0.0000   0.0000   0.0000
    649    0.000000000011598    0.0    0.00     -17.134464743979     -17.134464743979     -17.134464743979     -17.134464743968   0.0000   0.0000   0.0000   0.0000
    650    0.000000000011227    0.0    0.00     -17.134464743946     -17.134464743946     -17.134464743946     -17.134464743935   0.0000   0.0000   0.0000   0.0000
    651    0.000000000010868    0.0    0.00     -17.134464746061     -17.134464746061     -17.134464746061     -17.134464746050   0.0000   0.0000   0.0000   0.0000
    652    0.000000000010521    0.0    0.00     -17.134464744005     -17.134464744005     -17.134464744005     -17.134464743994   0.0000   0.0000   0.0000   0.0000
    653    0.000000000010185    0.0    0.00     -17.134464743973     -17.134464743973     -17.134464743973     -17.134464743963   0.0000   0.0000   0.0000   0.0000
    654    0.000000000009861    0.0    0.00     -17.134464745988     -17.134464745988     -17.134464745988     -17.134464745978   0.0000   0.0000   0.0000   0.0000
    655    0.000000000009547    0.0    0.00     -17.134464744009     -17.134464744009     -17.134464744009     -17.134464743999   0.0000   0.0000   0.0000   0.0000
    656    0.000000000009243    0.0    0.00     -17.134464743978     -17.134464743978     -17.134464743978     -17.134464743969   0.0000   0.0000   0.0000   0.0000

   MAIN:          EKINC   (thr)          DETOT   (thr)       MAXFORCE   (thr)
   MAIN:   0.924291D-11  0.1D-10  0.307168D-10  0.1D-08  0.000000D+00  0.1D+11
   MAIN: convergence achieved for system relaxation

 * Physical Quantities at step:   657


                total energy =      -17.13446474591 Hartree a.u.
              kinetic energy =        7.73446 Hartree a.u.
        electrostatic energy =      -23.20150 Hartree a.u.
                         esr =        0.00133 Hartree a.u.
                       eself =       30.31961 Hartree a.u.
      pseudopotential energy =       -0.91710 Hartree a.u.
  n-l pseudopotential energy =        3.44260 Hartree a.u.
 exchange-correlation energy =       -4.19292 Hartree a.u.
           average potential =        0.00000 Hartree a.u.


   correction to one-el term =        0.00000 Hartree a.u.

   Eigenvalues (eV), kp =   1 , spin =  1

  -25.10  -12.98   -9.13   -7.12
 
   Allocated memory (kb) =    144540
 
   CELL_PARAMETERS
   20.00000000    0.00000000    0.00000000
    0.00000000   20.00000000    0.00000000
    0.00000000    0.00000000   20.00000000

   System Density [g/cm^3] :              0.0252137250


   System Volume [A.U.^3] :           8000.0000000000


   Center of mass square displacement (a.u.):   0.000000

   ATOMIC_POSITIONS
   O       0.11790000000000E+02     0.12050000000000E+02     0.11500000000000E+02
   H       0.13450000000000E+02     0.11220000000000E+02     0.11500000000000E+02
   H       0.10560000000000E+02     0.10660000000000E+02     0.11500000000000E+02
 
   ATOMIC_VELOCITIES
   O       0.00000000000000E+00     0.00000000000000E+00     0.00000000000000E+00
   H       0.00000000000000E+00     0.00000000000000E+00     0.00000000000000E+00
   H       0.00000000000000E+00     0.00000000000000E+00     0.00000000000000E+00
 
   Forces acting on atoms (au):
   O       0.14311820647054E-02    -0.73922183361831E-02    -0.17989265407691E-05
   H      -0.69368713487609E-02     0.24921453829153E-02    -0.25841711308538E-06
   H       0.55536338787913E-02     0.49294688957978E-02    -0.38848696384938E-06
 


   Partial temperatures (for each ionic specie) 
   Species  Temp (K)   Mean Square Displacement (a.u.)
        1   0.00E+00     0.0000E+00
        2   0.00E+00     0.0000E+00
    657    0.000000000008949    0.0    0.00     -17.134464745914     -17.134464745914     -17.134464745914     -17.134464745905   0.0000   0.0000   0.0000   0.0000

   writing restart file: /home/fnattino/Programs/qe-6.1/tempdir/h2o_vacuum_50.save
   restart file written in    0.077 sec.



   Averaged Physical Quantities
                      accumulated      this run
   ekinc         :        0.18918       0.18918 (AU)
   ekin          :        7.49014       7.49014 (AU)
   epot          :      -26.67226     -26.67226 (AU)
   total energy  :      -15.91507     -15.91507 (AU)
   temperature   :        0.00000       0.00000 (K )
   enthalpy      :      -15.91507     -15.91507 (AU)
   econs         :      -15.91507     -15.91507 (AU)
   pressure      :        0.00000       0.00000 (Gpa)
   volume        :     8000.00000    8000.00000 (AU)



     Called by MAIN_LOOP:
     initialize   :      2.47s CPU      2.53s WALL (       1 calls)
     main_loop    :    339.88s CPU    357.93s WALL (     657 calls)
     cpr_total    :    340.36s CPU    358.47s WALL (       1 calls)

     Called by INIT_RUN:

     Called by CPR:
     cpr_md       :    340.36s CPU    358.46s WALL (     657 calls)
     move_electro :    338.77s CPU    356.81s WALL (     657 calls)

     Called by move_electrons:
     rhoofr       :     47.16s CPU     52.87s WALL (     658 calls)
     vofrho       :    273.08s CPU    284.27s WALL (     658 calls)
     dforce       :      7.24s CPU      8.10s WALL (    1316 calls)
     calphi       :      0.14s CPU      0.20s WALL (     658 calls)
     newd         :      9.97s CPU     10.14s WALL (     658 calls)
     nlfl         :      0.00s CPU      0.01s WALL (     658 calls)

     Called by ortho:
     ortho_iter   :      0.00s CPU      0.01s WALL (     658 calls)
     rsg          :      0.05s CPU      0.05s WALL (     658 calls)
     rhoset       :      0.03s CPU      0.05s WALL (     658 calls)
     sigset       :      0.03s CPU      0.04s WALL (     658 calls)
     tauset       :      0.05s CPU      0.04s WALL (     658 calls)
     ortho        :      0.81s CPU      0.78s WALL (     658 calls)
     updatc       :      0.04s CPU      0.08s WALL (     658 calls)

     Small boxes:
     rhov         :     18.86s CPU     21.64s WALL (     658 calls)
     fftb         :      7.28s CPU      7.58s WALL (   35534 calls)

     Low-level routines:
     prefor       :      0.19s CPU      0.20s WALL (     658 calls)
     nlfq         :      1.02s CPU      1.00s WALL (     658 calls)
     nlsm1        :      0.63s CPU      0.60s WALL (    1975 calls)
     nlsm2        :      1.00s CPU      1.00s WALL (     658 calls)
     fft          :    125.33s CPU    130.75s WALL (    5922 calls)
     ffts         :      4.25s CPU      4.32s WALL (    1316 calls)
     fft_scatter  :     33.15s CPU     36.32s WALL (    9870 calls)
     betagx       :      0.79s CPU      0.79s WALL (       1 calls)
     qradx        :      0.57s CPU      0.57s WALL (       1 calls)
     gram         :      0.00s CPU      0.00s WALL (       1 calls)
     nlinit       :      1.45s CPU      1.45s WALL (       1 calls)
     init_dim     :      0.12s CPU      0.12s WALL (       1 calls)
     newnlinit    :      0.00s CPU      0.00s WALL (       1 calls)
     from_scratch :      0.90s CPU      0.95s WALL (       1 calls)
     strucf       :      0.00s CPU      0.00s WALL (       1 calls)
     calbec       :      0.00s CPU      0.00s WALL (     659 calls)
     ALLTOALL     :      0.44s CPU      0.46s WALL (    3948 calls)
 
     Environ routines
 
 
     CP           :  5m42.89s CPU     6m 1.07s WALL

 
   This run was terminated on:  23:13:52  29Jan2018            

=------------------------------------------------------------------------------=
   JOB DONE.
=------------------------------------------------------------------------------=
