
     Program CP v.6.1 (svn rev. 13369) starts on 29Jan2018 at 23:13:52 

     This program is part of the open-source Quantum ESPRESSO suite
     for quantum simulation of materials; please cite
         "P. Giannozzi et al., J. Phys.:Condens. Matter 21 395502 (2009);
          URL http://www.quantum-espresso.org", 
     in publications or presentations arising from this work. More details at
     http://www.quantum-espresso.org/quote

     Parallel version (MPI), running on     1 processors

   Dumping input parameters

     Waiting for input...
     Reading input from standard input
Warning: card K_POINTS (AUTOMATIC) ignored
Warning: card  1 1 1 0 0 0 ignored

   Job Title: MD Simulation


   Atomic Pseudopotentials Parameters
   ----------------------------------

   Reading pseudopotential for specie #  1 from file :
   /home/fnattino/Programs/qe-6.1/pseudo/H.pbe-rrkjus.UPF
   file type is UPF v.1
               file H.pbe-rrkjus.UPF: wavefunction(s)  1S renormalized

   Reading pseudopotential for specie #  2 from file :
   /home/fnattino/Programs/qe-6.1/pseudo/O.pbe-rrkjus.UPF
   file type is UPF v.1
               file O.pbe-rrkjus.UPF: wavefunction(s)  2S renormalized


   Main Simulation Parameters (from input)
   ---------------------------------------
   Restart Mode       =      -1   from_scratch   
   Number of MD Steps =    2000
   Print out every           10 MD Steps
   Reads from unit    =      50
   Writes to unit     =      50
   MD Simulation time step            =       1.00
   Electronic fictitious mass (emass) =     400.00
   emass cut-off                      =       2.50

   Simulation Cell Parameters (from input)
   external pressure       =            0.00 [KBar]
   wmass (calculated)      =         2493.41 [AU]
   ibrav =    1
   alat  =    20.00000000
   a1    =    20.00000000    0.00000000    0.00000000
   a2    =     0.00000000   20.00000000    0.00000000
   a3    =     0.00000000    0.00000000   20.00000000
 
   b1    =     0.05000000    0.00000000    0.00000000
   b2    =     0.00000000    0.05000000    0.00000000
   b3    =     0.00000000    0.00000000    0.05000000
   omega =    8000.00000000

   Energy Cut-offs
   ---------------
   Ecutwfc =   30.0 Ry,      Ecutrho =  300.0 Ry,      Ecuts =  120.0 Ry
   Gcutwfc =   17.4     ,    Gcutrho =   55.1          Gcuts =   34.9
   NOTA BENE: refg, mmx =   0.050000  7200
   Eigenvalues calculated without the kinetic term contribution
   Orthog. with lagrange multipliers : eps =   0.10E-08,  max = 300
   verlet algorithm for electron dynamics
   with friction frice =  0.0500 , grease =  1.0000
   Electron dynamics : the temperature is not controlled
   initial random displacement of el. coordinates with  amplitude=  0.020000

   Electronic states
   -----------------
   Number of Electrons=     8, of States =     4
   Occupation numbers :
   2.00 2.00 2.00 2.00


   Exchange and correlations functionals
   -------------------------------------
     Exchange-correlation      =  SLA  PW   PBE  PBE ( 1  4  3  4 0 0)


   Ions Simulation Parameters
   --------------------------
   Ions are not allowed to move
   Ionic position (from input)
   sorted by specie, and converted to real a.u. coordinates
   Species   1 atoms =    2 mass =      1822.89 (a.u.),         1.00 (amu) rcmax =   0.50 (a.u.)
       13.450000    11.220000    11.500000
       10.560000    10.660000    11.500000
   Species   2 atoms =    1 mass =     29166.22 (a.u.),        16.00 (amu) rcmax =   0.50 (a.u.)
       11.790000    12.050000    11.500000
   Ionic position read from input file


   Cell Dynamics Parameters (from STDIN)
   -------------------------------------
   Starting cell generated from CELLDM
   Constant VOLUME Molecular dynamics
   cell parameters are not allowed to move

   Verbosity: iverbosity =  0



   Simulation dimensions initialization
   ------------------------------------

   unit vectors of full simulation cell
   in real space:                         in reciprocal space (units 2pi/alat):
   1    20.0000    0.0000    0.0000              1.0000    0.0000    0.0000
   2     0.0000   20.0000    0.0000              0.0000    1.0000    0.0000
   3     0.0000    0.0000   20.0000              0.0000    0.0000    1.0000
 
     G-vector sticks info
     --------------------
     sticks:   dense  smooth     PW     G-vecs:    dense   smooth      PW
     Sum        9549    3809    949               701475   177509   22119
 
 
   Real Mesh
   ---------
   Global Dimensions   Local  Dimensions   Processor Grid
   .X.   .Y.   .Z.     .X.   .Y.   .Z.     .X.   .Y.   .Z.
   120   120   120     120   120   120       1     1     1
   Array leading dimensions ( nr1x, nr2x, nr3x )   =    120   120   120
   Local number of cell to store the grid ( nrxx ) =    1728000
   Number of x-y planes for each processors: 
   nr3l =   120
 
   Smooth Real Mesh
   ----------------
   Global Dimensions   Local  Dimensions   Processor Grid
   .X.   .Y.   .Z.     .X.   .Y.   .Z.     .X.   .Y.   .Z.
    72    72    72      72    72    72       1     1     1
   Array leading dimensions ( nr1x, nr2x, nr3x )   =     72    72    72
   Local number of cell to store the grid ( nrxx ) =     373248
   Number of x-y planes for each processors: 
   nr3sl =    72
 
   Small Box Real Mesh
   -------------------
   Global Dimensions   Local  Dimensions   Processor Grid
   .X.   .Y.   .Z.     .X.   .Y.   .Z.     .X.   .Y.   .Z.
    24    24    24      24    24    24       1     1     1
   Array leading dimensions ( nr1x, nr2x, nr3x )   =     24    24    24
   Local number of cell to store the grid ( nrxx ) =      13824
 
   unit vectors of box grid cell
   in real space:                         in reciprocal space:
       4.0000    0.0000    0.0000              1.0000    0.0000    0.0000
       0.0000    4.0000    0.0000              0.0000    1.0000    0.0000
       0.0000    0.0000    4.0000              0.0000    0.0000    1.0000
 
   Reciprocal Space Mesh
   ---------------------
   Large Mesh
     Global(ngm_g)    MinLocal       MaxLocal      Average
         350738         350738         350738      350738.00
   Smooth Mesh
     Global(ngms_g)   MinLocal       MaxLocal      Average
          88755          88755          88755       88755.00
   Wave function Mesh
     Global(ngw_g)    MinLocal       MaxLocal      Average
          11060          11060          11060       11060.00

   Small box Mesh
   ngb =         2788 not distributed to processors


   System geometry initialization
   ------------------------------
   ibrav =    1       cell parameters read from input file
 
   unit vectors of box grid cell
   in real space:                         in reciprocal space:
       4.0000    0.0000    0.0000              1.0000    0.0000    0.0000
       0.0000    4.0000    0.0000              0.0000    1.0000    0.0000
       0.0000    0.0000    4.0000              0.0000    0.0000    1.0000

   Matrix Multiplication Performances
   ortho mmul, time for parallel driver      =   0.00000 with    1 procs

   Constraints matrixes will be distributed block like on
   ortho sub-group =    1*   1 procs



   Pseudopotentials initialization
   -------------------------------
  nlinit  nh(is), ngb, is, kkbeta, lmaxq =            2        2788           1
         629           3
 
                        qqq 
   0.0186   0.0152
   0.0152   0.0125
 
  nlinit  nh(is), ngb, is, kkbeta, lmaxq =            8        2788           2
         865           3
 
                        qqq 
  -0.1022   0.5410   0.0000   0.0000
   0.5410  -2.5883   0.0000   0.0000
   0.0000   0.0000   0.2297   0.2861
   0.0000   0.0000   0.2861   0.3565
 


   Common initialization

   Specie:     1
   1  indv=  1   ang. mom=  0
   2  indv=  2   ang. mom=  0
 
                        dion 
  -0.0211  -0.0150
  -0.0150  -0.0104

   Specie:     2
   1  indv=  1   ang. mom=  0
   2  indv=  2   ang. mom=  0
   3  indv=  3   ang. mom=  1
   4  indv=  3   ang. mom=  1
   5  indv=  3   ang. mom=  1
   6  indv=  4   ang. mom=  1
   7  indv=  4   ang. mom=  1
   8  indv=  4   ang. mom=  1
 
                        dion 
   0.4798  -1.3236   0.0000   0.0000
  -1.3236   2.2757   0.0000   0.0000
   0.0000   0.0000   0.6278   0.8512
   0.0000   0.0000   0.8512   1.1500

   Cell parameters from input file are used in electron mass preconditioning
   init_tpiba2=    0.09869604
 
   Short Legend and Physical Units in the Output
   ---------------------------------------------
   NFI    [int]          - step index
   EKINC  [HARTREE A.U.] - kinetic energy of the fictitious electronic dynamics
   TEMPH  [K]            - Temperature of the fictitious cell dynamics
   TEMP   [K]            - Ionic temperature
   ETOT   [HARTREE A.U.] - Scf total energy (Kohn-Sham hamiltonian)
   ENTHAL [HARTREE A.U.] - Enthalpy ( ETOT + P * V )
   ECONS  [HARTREE A.U.] - Enthalpy + kinetic energy of ions and cell
   ECONT  [HARTREE A.U.] - Constant of motion for the CP lagrangian
 


   Wave Initialization: random initial wave-functions
   Occupation number from init
   nbnd =     4
    2.00 2.00 2.00 2.00

   formf: eself=    30.31961
   formf:     vps(g=0)=  -0.0000605     rhops(g=0)=  -0.0001250
   formf: sum_g vps(g)=  -0.0888832 sum_g rhops(g)=  -0.7171034
   formf:     vps(g=0)=  -0.0001262     rhops(g=0)=  -0.0007500
   formf: sum_g vps(g)=   0.9003747 sum_g rhops(g)=  -4.3026204
   Delta V(G=0):   0.000785Ry,    0.021372eV

   from rhoofr: total integrated electronic density
   in g-space =      8.000000   in r-space =     8.000000
 
  nfi     ekinc              temph  tempp     etot                 enthal               econs                econt              vnhh    xnhh0   vnhp    xnhp0
      1    0.030124661179883    0.0    0.00       7.739242544281       7.739242544281       7.739242544281       7.769367205460   0.0000   0.0000   0.0000   0.0000
      2    0.093700251162422    0.0    0.00       7.662547791320       7.662547791320       7.662547791320       7.756248042482   0.0000   0.0000   0.0000   0.0000
      3    0.185945287603781    0.0    0.00       7.541208160712       7.541208160712       7.541208160712       7.727153448315   0.0000   0.0000   0.0000   0.0000
      4    0.297828797115603    0.0    0.00       7.379498818403       7.379498818403       7.379498818403       7.677327615519   0.0000   0.0000   0.0000   0.0000
      5    0.422397095259012    0.0    0.00       7.181214839081       7.181214839081       7.181214839081       7.603611934340   0.0000   0.0000   0.0000   0.0000
      6    0.554417460219508    0.0    0.00       6.949646678261       6.949646678261       6.949646678261       7.504064138480   0.0000   0.0000   0.0000   0.0000
      7    0.690093294833133    0.0    0.00       6.687547208092       6.687547208092       6.687547208092       7.377640502925   0.0000   0.0000   0.0000   0.0000
      8    0.826833901134577    0.0    0.00       6.397095466515       6.397095466515       6.397095466515       7.223929367650   0.0000   0.0000   0.0000   0.0000
      9    0.963064828218266    0.0    0.00       6.079865194150       6.079865194150       6.079865194150       7.042930022369   0.0000   0.0000   0.0000   0.0000
     10    1.098066377547822    0.0    0.00       5.736798681009       5.736798681009       5.736798681009       6.834865058557   0.0000   0.0000   0.0000   0.0000
     11    1.231828791187729    0.0    0.00       5.368195263588       5.368195263588       5.368195263588       6.600024054775   0.0000   0.0000   0.0000   0.0000
     12    1.364912618515537    0.0    0.00       4.973719981320       4.973719981320       4.973719981320       6.338632599836   0.0000   0.0000   0.0000   0.0000
     13    1.498302751155258    0.0    0.00       4.552452255127       4.552452255127       4.552452255127       6.050755006283   0.0000   0.0000   0.0000   0.0000
     14    1.633244819188055    0.0    0.00       4.102975529999       4.102975529999       4.102975529999       5.736220349187   0.0000   0.0000   0.0000   0.0000
     15    1.771053115711863    0.0    0.00       3.623536167511       3.623536167511       3.623536167511       5.394589283223   0.0000   0.0000   0.0000   0.0000
     16    1.912882434331205    0.0    0.00       3.112278933310       3.112278933310       3.112278933310       5.025161367641   0.0000   0.0000   0.0000   0.0000
     17    2.059462080914198    0.0    0.00       2.567566788235       2.567566788235       2.567566788235       4.627028869149   0.0000   0.0000   0.0000   0.0000
     18    2.210799888061082    0.0    0.00       1.988395031185       1.988395031185       1.988395031185       4.199194919246   0.0000   0.0000   0.0000   0.0000
     19    2.365879326768254    0.0    0.00       1.374873716429       1.374873716429       1.374873716429       3.740753043197   0.0000   0.0000   0.0000   0.0000
     20    2.522391831041695    0.0    0.00       0.728731496128       0.728731496128       0.728731496128       3.251123327170   0.0000   0.0000   0.0000   0.0000
     21    2.676564887901019    0.0    0.00       0.053775950194       0.053775950194       0.053775950194       2.730340838095   0.0000   0.0000   0.0000   0.0000
     22    2.823158114686367    0.0    0.00      -0.643797718127      -0.643797718127      -0.643797718127       2.179360396559   0.0000   0.0000   0.0000   0.0000
     23    2.955694893767824    0.0    0.00      -1.355354902014      -1.355354902014      -1.355354902014       1.600339991754   0.0000   0.0000   0.0000   0.0000
     24    3.066967479076670    0.0    0.00      -2.070118002227      -2.070118002227      -2.070118002227       0.996849476849   0.0000   0.0000   0.0000   0.0000
     25    3.149797780878886    0.0    0.00      -2.775856806747      -2.775856806747      -2.775856806747       0.373940974132   0.0000   0.0000   0.0000   0.0000
     26    3.197964800393788    0.0    0.00      -3.459930641602      -3.459930641602      -3.459930641602      -0.261965841208   0.0000   0.0000   0.0000   0.0000
     27    3.207144479849228    0.0    0.00      -4.110551049770      -4.110551049770      -4.110551049770      -0.903406569921   0.0000   0.0000   0.0000   0.0000
     28    3.175678321892315    0.0    0.00      -4.718054174248      -4.718054174248      -4.718054174248      -1.542375852355   0.0000   0.0000   0.0000   0.0000
     29    3.105009973834330    0.0    0.00      -5.275895100848      -5.275895100848      -5.275895100848      -2.170885127014   0.0000   0.0000   0.0000   0.0000
     30    2.999696991392293    0.0    0.00      -5.781204318778      -5.781204318778      -5.781204318778      -2.781507327385   0.0000   0.0000   0.0000   0.0000
     31    2.866993555879155    0.0    0.00      -6.234958003199      -6.234958003199      -6.234958003199      -3.367964447320   0.0000   0.0000   0.0000   0.0000
     32    2.716084360191018    0.0    0.00      -6.641763819134      -6.641763819134      -6.641763819134      -3.925679458943   0.0000   0.0000   0.0000   0.0000
     33    2.557111488919421    0.0    0.00      -7.009201184085      -7.009201184085      -7.009201184085      -4.452089695165   0.0000   0.0000   0.0000   0.0000
     34    2.400155056516868    0.0    0.00      -7.346861674599      -7.346861674599      -7.346861674599      -4.946706618082   0.0000   0.0000   0.0000   0.0000
     35    2.254310593267576    0.0    0.00      -7.665264647812      -7.665264647812      -7.665264647812      -5.410954054545   0.0000   0.0000   0.0000   0.0000
     36    2.126966836343061    0.0    0.00      -7.974862950385      -7.974862950385      -7.974862950385      -5.847896114042   0.0000   0.0000   0.0000   0.0000
     37    2.023338570595461    0.0    0.00      -8.285160039603      -8.285160039603      -8.285160039603      -6.261821469007   0.0000   0.0000   0.0000   0.0000
     38    1.946261722690477    0.0    0.00      -8.604067153728      -8.604067153728      -8.604067153728      -6.657805431038   0.0000   0.0000   0.0000   0.0000
     39    1.896220875677416    0.0    0.00      -8.937462439818      -8.937462439818      -8.937462439818      -7.041241564141   0.0000   0.0000   0.0000   0.0000
     40    1.871561366320573    0.0    0.00      -9.288955713102      -9.288955713102      -9.288955713102      -7.417394346781   0.0000   0.0000   0.0000   0.0000
     41    1.868834560964103    0.0    0.00      -9.659843900078      -9.659843900078      -9.659843900078      -7.791009339114   0.0000   0.0000   0.0000   0.0000
     42    1.883228714113903    0.0    0.00     -10.049220111874     -10.049220111874     -10.049220111874      -8.165991397760   0.0000   0.0000   0.0000   0.0000
     43    1.909044302213582    0.0    0.00     -10.454224135633     -10.454224135633     -10.454224135633      -8.545179833419   0.0000   0.0000   0.0000   0.0000
     44    1.940180294155162    0.0    0.00     -10.870403757680     -10.870403757680     -10.870403757680      -8.930223463525   0.0000   0.0000   0.0000   0.0000
     45    1.970603400626025    0.0    0.00     -11.292151247113     -11.292151247113     -11.292151247113      -9.321547846487   0.0000   0.0000   0.0000   0.0000
     46    1.994774192217922    0.0    0.00     -11.713190207452     -11.713190207452     -11.713190207452      -9.718416015234   0.0000   0.0000   0.0000   0.0000
     47    2.008004741804850    0.0    0.00     -12.127074567003     -12.127074567003     -12.127074567003     -10.119069825198   0.0000   0.0000   0.0000   0.0000
     48    2.006724726350005    0.0    0.00     -12.527659786915     -12.527659786915     -12.527659786915     -10.520935060565   0.0000   0.0000   0.0000   0.0000
     49    1.988638616008416    0.0    0.00     -12.909504733074     -12.909504733074     -12.909504733074     -10.920866117065   0.0000   0.0000   0.0000   0.0000
     50    1.952765941074317    0.0    0.00     -13.268167629775     -13.268167629775     -13.268167629775     -11.315401688701   0.0000   0.0000   0.0000   0.0000
     51    1.899369027963548    0.0    0.00     -13.600382696163     -13.600382696163     -13.600382696163     -11.701013668199   0.0000   0.0000   0.0000   0.0000
     52    1.829785542545608    0.0    0.00     -13.904118180352     -13.904118180352     -13.904118180352     -12.074332637806   0.0000   0.0000   0.0000   0.0000
     53    1.746193146490107    0.0    0.00     -14.178527535385     -14.178527535385     -14.178527535385     -12.432334388894   0.0000   0.0000   0.0000   0.0000
     54    1.651339204193760    0.0    0.00     -14.423823002726     -14.423823002726     -14.423823002726     -12.772483798532   0.0000   0.0000   0.0000   0.0000
     55    1.548268223003111    0.0    0.00     -14.641095088639     -14.641095088639     -14.641095088639     -13.092826865636   0.0000   0.0000   0.0000   0.0000
     56    1.440074253285847    0.0    0.00     -14.832104049151     -14.832104049151     -14.832104049151     -13.392029795865   0.0000   0.0000   0.0000   0.0000
     57    1.329697368050911    0.0    0.00     -14.999059540719     -14.999059540719     -14.999059540719     -13.669362172668   0.0000   0.0000   0.0000   0.0000
     58    1.219774025785389    0.0    0.00     -15.144424802594     -15.144424802594     -15.144424802594     -13.924650776809   0.0000   0.0000   0.0000   0.0000
     59    1.112542594051894    0.0    0.00     -15.270756565732     -15.270756565732     -15.270756565732     -14.158213971680   0.0000   0.0000   0.0000   0.0000
     60    1.009798724649170    0.0    0.00     -15.380575898079     -15.380575898079     -15.380575898079     -14.370777173430   0.0000   0.0000   0.0000   0.0000
     61    0.912891387683401    0.0    0.00     -15.476270261712     -15.476270261712     -15.476270261712     -14.563378874029   0.0000   0.0000   0.0000   0.0000
     62    0.822748894943495    0.0    0.00     -15.560034139629     -15.560034139629     -15.560034139629     -14.737285244686   0.0000   0.0000   0.0000   0.0000
     63    0.739924523399139    0.0    0.00     -15.633829538256     -15.633829538256     -15.633829538256     -14.893905014857   0.0000   0.0000   0.0000   0.0000
     64    0.664652716680875    0.0    0.00     -15.699375008737     -15.699375008737     -15.699375008737     -15.034722292056   0.0000   0.0000   0.0000   0.0000
     65    0.596908762807105    0.0    0.00     -15.758152972919     -15.758152972919     -15.758152972919     -15.161244210112   0.0000   0.0000   0.0000   0.0000
     66    0.536466952312531    0.0    0.00     -15.811417305709     -15.811417305709     -15.811417305709     -15.274950353396   0.0000   0.0000   0.0000   0.0000
     67    0.482953886191395    0.0    0.00     -15.860212899456     -15.860212899456     -15.860212899456     -15.377259013265   0.0000   0.0000   0.0000   0.0000
     68    0.435895057750502    0.0    0.00     -15.905399673687     -15.905399673687     -15.905399673687     -15.469504615936   0.0000   0.0000   0.0000   0.0000
     69    0.394754016233972    0.0    0.00     -15.947674441702     -15.947674441702     -15.947674441702     -15.552920425468   0.0000   0.0000   0.0000   0.0000
     70    0.358964177256482    0.0    0.00     -15.987595609753     -15.987595609753     -15.987595609753     -15.628631432496   0.0000   0.0000   0.0000   0.0000
     71    0.327953745899842    0.0    0.00     -16.025603443943     -16.025603443943     -16.025603443943     -15.697649698043   0.0000   0.0000   0.0000   0.0000
     72    0.301164462875450    0.0    0.00     -16.062039641639     -16.062039641639     -16.062039641639     -15.760875178763   0.0000   0.0000   0.0000   0.0000
     73    0.278065099142368    0.0    0.00     -16.097164313411     -16.097164313411     -16.097164313411     -15.819099214269   0.0000   0.0000   0.0000   0.0000
     74    0.258160591754960    0.0    0.00     -16.131171259133     -16.131171259133     -16.131171259133     -15.873010667378   0.0000   0.0000   0.0000   0.0000
     75    0.240997623563885    0.0    0.00     -16.164201065188     -16.164201065188     -16.164201065188     -15.923203441624   0.0000   0.0000   0.0000   0.0000
     76    0.226167411175033    0.0    0.00     -16.196352645532     -16.196352645532     -16.196352645532     -15.970185234357   0.0000   0.0000   0.0000   0.0000
     77    0.213306359300344    0.0    0.00     -16.227692936141     -16.227692936141     -16.227692936141     -16.014386576841   0.0000   0.0000   0.0000   0.0000
     78    0.202095123395214    0.0    0.00     -16.258264944273     -16.258264944273     -16.258264944273     -16.056169820878   0.0000   0.0000   0.0000   0.0000
     79    0.192256527362797    0.0    0.00     -16.288093761228     -16.288093761228     -16.288093761228     -16.095837233865   0.0000   0.0000   0.0000   0.0000
     80    0.183552723240070    0.0    0.00     -16.317192536892     -16.317192536892     -16.317192536892     -16.133639813652   0.0000   0.0000   0.0000   0.0000
     81    0.175781879573106    0.0    0.00     -16.345566617020     -16.345566617020     -16.345566617020     -16.169784737447   0.0000   0.0000   0.0000   0.0000
     82    0.168774599191507    0.0    0.00     -16.373216674741     -16.373216674741     -16.373216674741     -16.204442075550   0.0000   0.0000   0.0000   0.0000
     83    0.162390280001300    0.0    0.00     -16.400141006445     -16.400141006445     -16.400141006445     -16.237750726443   0.0000   0.0000   0.0000   0.0000
     84    0.156513553976825    0.0    0.00     -16.426337866638     -16.426337866638     -16.426337866638     -16.269824312661   0.0000   0.0000   0.0000   0.0000
     85    0.151050849948752    0.0    0.00     -16.451806202281     -16.451806202281     -16.451806202281     -16.300755352333   0.0000   0.0000   0.0000   0.0000
     86    0.145927159327455    0.0    0.00     -16.476546705580     -16.476546705580     -16.476546705580     -16.330619546253   0.0000   0.0000   0.0000   0.0000
     87    0.141083093604210    0.0    0.00     -16.500562338032     -16.500562338032     -16.500562338032     -16.359479244428   0.0000   0.0000   0.0000   0.0000
     88    0.136472239937254    0.0    0.00     -16.523858389092     -16.523858389092     -16.523858389092     -16.387386149155   0.0000   0.0000   0.0000   0.0000
     89    0.132058795929990    0.0    0.00     -16.546442784970     -16.546442784970     -16.546442784970     -16.414383989040   0.0000   0.0000   0.0000   0.0000
     90    0.127815502626195    0.0    0.00     -16.568325551517     -16.568325551517     -16.568325551517     -16.440510048891   0.0000   0.0000   0.0000   0.0000
     91    0.123721864227454    0.0    0.00     -16.589518782846     -16.589518782846     -16.589518782846     -16.465796918619   0.0000   0.0000   0.0000   0.0000
     92    0.119762632111936    0.0    0.00     -16.610036115952     -16.610036115952     -16.610036115952     -16.490273483840   0.0000   0.0000   0.0000   0.0000
     93    0.115926548440596    0.0    0.00     -16.629892649120     -16.629892649120     -16.629892649120     -16.513966100679   0.0000   0.0000   0.0000   0.0000
     94    0.112205308942785    0.0    0.00     -16.649104445061     -16.649104445061     -16.649104445061     -16.536899136118   0.0000   0.0000   0.0000   0.0000
     95    0.108592739091761    0.0    0.00     -16.667687884934     -16.667687884934     -16.667687884934     -16.559095145842   0.0000   0.0000   0.0000   0.0000
     96    0.105084147923888    0.0    0.00     -16.685659872826     -16.685659872826     -16.685659872826     -16.580575724902   0.0000   0.0000   0.0000   0.0000
     97    0.101675812409380    0.0    0.00     -16.703037683574     -16.703037683574     -16.703037683574     -16.601361871165   0.0000   0.0000   0.0000   0.0000
     98    0.098364606244398    0.0    0.00     -16.719838462249     -16.719838462249     -16.719838462249     -16.621473856005   0.0000   0.0000   0.0000   0.0000
     99    0.095147737333543    0.0    0.00     -16.736078995898     -16.736078995898     -16.736078995898     -16.640931258565   0.0000   0.0000   0.0000   0.0000

 * Physical Quantities at step:   100

   from rhoofr: total integrated electronic density
   in g-space =      8.000000   in r-space =     8.000000


                total energy =      -16.75177567627 Hartree a.u.
              kinetic energy =        8.07171 Hartree a.u.
        electrostatic energy =      -23.37390 Hartree a.u.
                         esr =        0.00133 Hartree a.u.
                       eself =       30.31961 Hartree a.u.
      pseudopotential energy =       -0.92356 Hartree a.u.
  n-l pseudopotential energy =        3.62922 Hartree a.u.
 exchange-correlation energy =       -4.16259 Hartree a.u.
           average potential =        0.00000 Hartree a.u.


     electrostatic embedding =        0.00000 Hartree a.u.
           cavitation energy =        0.01383 Hartree a.u.
                   PV energy =       -0.00649 Hartree a.u.
   correction to one-el term =        0.00000 Hartree a.u.

   Eigenvalues (eV), kp =   1 , spin =  1

  -27.10  -14.83   -8.89   -7.09
 
   Allocated memory (kb) =    471180
 
   CELL_PARAMETERS
   20.00000000    0.00000000    0.00000000
    0.00000000   20.00000000    0.00000000
    0.00000000    0.00000000   20.00000000

   System Density [g/cm^3] :              0.0252137250


   System Volume [A.U.^3] :           8000.0000000000


   Center of mass square displacement (a.u.):   0.000000

   ATOMIC_POSITIONS
   O       0.11790000000000E+02     0.12050000000000E+02     0.11500000000000E+02
   H       0.13450000000000E+02     0.11220000000000E+02     0.11500000000000E+02
   H       0.10560000000000E+02     0.10660000000000E+02     0.11500000000000E+02
 
   ATOMIC_VELOCITIES
   O       0.00000000000000E+00     0.00000000000000E+00     0.00000000000000E+00
   H       0.00000000000000E+00     0.00000000000000E+00     0.00000000000000E+00
   H       0.00000000000000E+00     0.00000000000000E+00     0.00000000000000E+00
 
   Forces acting on atoms (au):
   O       0.21411699979480E-01     0.70754478101143E-01     0.98539913183013E-01
   H      -0.18449175783626E-01     0.51852046606318E-01    -0.62697737868707E-02
   H       0.22524129882059E-01     0.91521138155957E-01    -0.24118941372295E-02
 


   Partial temperatures (for each ionic specie) 
   Species  Temp (K)   Mean Square Displacement (a.u.)
        1   0.00E+00     0.0000E+00
        2   0.00E+00     0.0000E+00
 
  nfi     ekinc              temph  tempp     etot                 enthal               econs                econt              vnhh    xnhh0   vnhp    xnhp0
    100    0.092022555296508    0.0    0.00     -16.751775676268     -16.751775676268     -16.751775676268     -16.659753120972   0.0000   0.0000   0.0000   0.0000

   writing restart file: /home/fnattino/Programs/qe-6.1/tempdir/h2o_water_50.save
   restart file written in    0.074 sec.

    101    0.088986438766640    0.0    0.00     -16.766944371893     -16.766944371893     -16.766944371893     -16.677957933126   0.0000   0.0000   0.0000   0.0000
    102    0.086036751156642    0.0    0.00     -16.781600398008     -16.781600398008     -16.781600398008     -16.695563646851   0.0000   0.0000   0.0000   0.0000
    103    0.083170811430941    0.0    0.00     -16.795758483894     -16.795758483894     -16.795758483894     -16.712587672463   0.0000   0.0000   0.0000   0.0000
    104    0.080385885628208    0.0    0.00     -16.809432478743     -16.809432478743     -16.809432478743     -16.729046593114   0.0000   0.0000   0.0000   0.0000
    105    0.077679221050243    0.0    0.00     -16.822635838461     -16.822635838461     -16.822635838461     -16.744956617411   0.0000   0.0000   0.0000   0.0000
    106    0.075048079567207    0.0    0.00     -16.835381290217     -16.835381290217     -16.835381290217     -16.760333210650   0.0000   0.0000   0.0000   0.0000
    107    0.072489770430408    0.0    0.00     -16.847681040326     -16.847681040326     -16.847681040326     -16.775191269896   0.0000   0.0000   0.0000   0.0000
    108    0.070001697342921    0.0    0.00     -16.859547016613     -16.859547016613     -16.859547016613     -16.789545319270   0.0000   0.0000   0.0000   0.0000
    109    0.067581389748844    0.0    0.00     -16.870990555448     -16.870990555448     -16.870990555448     -16.803409165699   0.0000   0.0000   0.0000   0.0000
    110    0.065226522493293    0.0    0.00     -16.882022708450     -16.882022708450     -16.882022708450     -16.816796185957   0.0000   0.0000   0.0000   0.0000
    111    0.062934946565313    0.0    0.00     -16.892654146323     -16.892654146323     -16.892654146323     -16.829719199757   0.0000   0.0000   0.0000   0.0000
    112    0.060704702338903    0.0    0.00     -16.902895204222     -16.902895204222     -16.902895204222     -16.842190501883   0.0000   0.0000   0.0000   0.0000
    113    0.058534019752637    0.0    0.00     -16.912756195883     -16.912756195883     -16.912756195883     -16.854222176131   0.0000   0.0000   0.0000   0.0000
    114    0.056421324707899    0.0    0.00     -16.922247179954     -16.922247179954     -16.922247179954     -16.865825855246   0.0000   0.0000   0.0000   0.0000
    115    0.054365229345396    0.0    0.00     -16.931378192227     -16.931378192227     -16.931378192227     -16.877012962882   0.0000   0.0000   0.0000   0.0000
    116    0.052364516453382    0.0    0.00     -16.940159036614     -16.940159036614     -16.940159036614     -16.887794520160   0.0000   0.0000   0.0000   0.0000
    117    0.050418126404407    0.0    0.00     -16.948599305530     -16.948599305530     -16.948599305530     -16.898181179126   0.0000   0.0000   0.0000   0.0000
    118    0.048525138900248    0.0    0.00     -16.956708630017     -16.956708630017     -16.956708630017     -16.908183491117   0.0000   0.0000   0.0000   0.0000
    119    0.046684751915487    0.0    0.00     -16.964496497714     -16.964496497714     -16.964496497714     -16.917811745799   0.0000   0.0000   0.0000   0.0000
    120    0.044896257294341    0.0    0.00     -16.971972592553     -16.971972592553     -16.971972592553     -16.927076335259   0.0000   0.0000   0.0000   0.0000
    121    0.043159021800997    0.0    0.00     -16.979146225417     -16.979146225417     -16.979146225417     -16.935987203616   0.0000   0.0000   0.0000   0.0000
    122    0.041472471757580    0.0    0.00     -16.986026841666     -16.986026841666     -16.986026841666     -16.944554369908   0.0000   0.0000   0.0000   0.0000
    123    0.039836068712348    0.0    0.00     -16.992623783679     -16.992623783679     -16.992623783679     -16.952787714967   0.0000   0.0000   0.0000   0.0000
    124    0.038249289648743    0.0    0.00     -16.998946251782     -16.998946251782     -16.998946251782     -16.960696962133   0.0000   0.0000   0.0000   0.0000
    125    0.036711613437412    0.0    0.00     -17.005003350336     -17.005003350336     -17.005003350336     -16.968291736899   0.0000   0.0000   0.0000   0.0000
    126    0.035222505750073    0.0    0.00     -17.010804016545     -17.010804016545     -17.010804016545     -16.975581510795   0.0000   0.0000   0.0000   0.0000
    127    0.033781407735774    0.0    0.00     -17.016357065932     -17.016357065932     -17.016357065932     -16.982575658196   0.0000   0.0000   0.0000   0.0000
    128    0.032387725978712    0.0    0.00     -17.021671278553     -17.021671278553     -17.021671278553     -16.989283552575   0.0000   0.0000   0.0000   0.0000
    129    0.031040825908693    0.0    0.00     -17.026755144823     -17.026755144823     -17.026755144823     -16.995714318915   0.0000   0.0000   0.0000   0.0000
    130    0.029740028273149    0.0    0.00     -17.031616850591     -17.031616850591     -17.031616850591     -17.001876822318   0.0000   0.0000   0.0000   0.0000
    131    0.028484603994797    0.0    0.00     -17.036264626060     -17.036264626060     -17.036264626060     -17.007780022066   0.0000   0.0000   0.0000   0.0000
    132    0.027273770460080    0.0    0.00     -17.040706491045     -17.040706491045     -17.040706491045     -17.013432720585   0.0000   0.0000   0.0000   0.0000
    133    0.026106693389423    0.0    0.00     -17.044950235396     -17.044950235396     -17.044950235396     -17.018843542007   0.0000   0.0000   0.0000   0.0000
    134    0.024982490547531    0.0    0.00     -17.049003448551     -17.049003448551     -17.049003448551     -17.024020958003   0.0000   0.0000   0.0000   0.0000
    135    0.023900238052519    0.0    0.00     -17.052873436758     -17.052873436758     -17.052873436758     -17.028973198705   0.0000   0.0000   0.0000   0.0000
    136    0.022858976822735    0.0    0.00     -17.056567299725     -17.056567299725     -17.056567299725     -17.033708322903   0.0000   0.0000   0.0000   0.0000
    137    0.021857716385065    0.0    0.00     -17.060092001386     -17.060092001386     -17.060092001386     -17.038234285001   0.0000   0.0000   0.0000   0.0000
    138    0.020895438209400    0.0    0.00     -17.063454355292     -17.063454355292     -17.063454355292     -17.042558917083   0.0000   0.0000   0.0000   0.0000
    139    0.019971098839369    0.0    0.00     -17.066661037282     -17.066661037282     -17.066661037282     -17.046689938443   0.0000   0.0000   0.0000   0.0000
    140    0.019083635895631    0.0    0.00     -17.069718416880     -17.069718416880     -17.069718416880     -17.050634780985   0.0000   0.0000   0.0000   0.0000
    141    0.018231973159419    0.0    0.00     -17.072632808227     -17.072632808227     -17.072632808227     -17.054400835067   0.0000   0.0000   0.0000   0.0000
    142    0.017415023967362    0.0    0.00     -17.075410414301     -17.075410414301     -17.075410414301     -17.057995390334   0.0000   0.0000   0.0000   0.0000
    143    0.016631696858606    0.0    0.00     -17.078057158459     -17.078057158459     -17.078057158459     -17.061425461600   0.0000   0.0000   0.0000   0.0000
    144    0.015880901906846    0.0    0.00     -17.080578873016     -17.080578873016     -17.080578873016     -17.064697971109   0.0000   0.0000   0.0000   0.0000
    145    0.015161555188700    0.0    0.00     -17.082981200483     -17.082981200483     -17.082981200483     -17.067819645294   0.0000   0.0000   0.0000   0.0000
    146    0.014472580044670    0.0    0.00     -17.085269654572     -17.085269654572     -17.085269654572     -17.070797074527   0.0000   0.0000   0.0000   0.0000
    147    0.013812909494658    0.0    0.00     -17.087449507374     -17.087449507374     -17.087449507374     -17.073636597879   0.0000   0.0000   0.0000   0.0000
    148    0.013181493388874    0.0    0.00     -17.089525792259     -17.089525792259     -17.089525792259     -17.076344298871   0.0000   0.0000   0.0000   0.0000
    149    0.012577299758116    0.0    0.00     -17.091503428959     -17.091503428959     -17.091503428959     -17.078926129201   0.0000   0.0000   0.0000   0.0000
    150    0.011999315644220    0.0    0.00     -17.093386992458     -17.093386992458     -17.093386992458     -17.081387676814   0.0000   0.0000   0.0000   0.0000
    151    0.011446550594402    0.0    0.00     -17.095180908954     -17.095180908954     -17.095180908954     -17.083734358360   0.0000   0.0000   0.0000   0.0000
    152    0.010918037553257    0.0    0.00     -17.096889445970     -17.096889445970     -17.096889445970     -17.085971408416   0.0000   0.0000   0.0000   0.0000
    153    0.010412834663856    0.0    0.00     -17.098516665543     -17.098516665543     -17.098516665543     -17.088103830879   0.0000   0.0000   0.0000   0.0000
    154    0.009930024776699    0.0    0.00     -17.100066544425     -17.100066544425     -17.100066544425     -17.090136519648   0.0000   0.0000   0.0000   0.0000
    155    0.009468716389342    0.0    0.00     -17.101542749079     -17.101542749079     -17.101542749079     -17.092074032689   0.0000   0.0000   0.0000   0.0000
    156    0.009028043852721    0.0    0.00     -17.102948840545     -17.102948840545     -17.102948840545     -17.093920796692   0.0000   0.0000   0.0000   0.0000
    157    0.008607167071035    0.0    0.00     -17.104288166284     -17.104288166284     -17.104288166284     -17.095680999213   0.0000   0.0000   0.0000   0.0000
    158    0.008205272245477    0.0    0.00     -17.105563938867     -17.105563938867     -17.105563938867     -17.097358666621   0.0000   0.0000   0.0000   0.0000
    159    0.007821571339669    0.0    0.00     -17.106779233681     -17.106779233681     -17.106779233681     -17.098957662341   0.0000   0.0000   0.0000   0.0000
    160    0.007455303171908    0.0    0.00     -17.107936861530     -17.107936861530     -17.107936861530     -17.100481558358   0.0000   0.0000   0.0000   0.0000
    161    0.007105731837876    0.0    0.00     -17.109039606657     -17.109039606657     -17.109039606657     -17.101933874819   0.0000   0.0000   0.0000   0.0000
    162    0.006772146286778    0.0    0.00     -17.110090009847     -17.110090009847     -17.110090009847     -17.103317863560   0.0000   0.0000   0.0000   0.0000
    163    0.006453861669801    0.0    0.00     -17.111090545736     -17.111090545736     -17.111090545736     -17.104636684066   0.0000   0.0000   0.0000   0.0000
    164    0.006150216661166    0.0    0.00     -17.112043616364     -17.112043616364     -17.112043616364     -17.105893399703   0.0000   0.0000   0.0000   0.0000
    165    0.005860574469632    0.0    0.00     -17.112951351617     -17.112951351617     -17.112951351617     -17.107090777147   0.0000   0.0000   0.0000   0.0000
    166    0.005584322479001    0.0    0.00     -17.113815946302     -17.113815946302     -17.113815946302     -17.108231623823   0.0000   0.0000   0.0000   0.0000
    167    0.005320869868844    0.0    0.00     -17.114639420343     -17.114639420343     -17.114639420343     -17.109318550474   0.0000   0.0000   0.0000   0.0000
    168    0.005069648512023    0.0    0.00     -17.115423746232     -17.115423746232     -17.115423746232     -17.110354097720   0.0000   0.0000   0.0000   0.0000
    169    0.004830113939089    0.0    0.00     -17.116170746895     -17.116170746895     -17.116170746895     -17.111340632956   0.0000   0.0000   0.0000   0.0000
    170    0.004601743644791    0.0    0.00     -17.116882212548     -17.116882212548     -17.116882212548     -17.112280468904   0.0000   0.0000   0.0000   0.0000
    171    0.004384033828028    0.0    0.00     -17.117559852473     -17.117559852473     -17.117559852473     -17.113175818645   0.0000   0.0000   0.0000   0.0000
    172    0.004176500753391    0.0    0.00     -17.118205286881     -17.118205286881     -17.118205286881     -17.114028786128   0.0000   0.0000   0.0000   0.0000
    173    0.003978679197576    0.0    0.00     -17.118820110861     -17.118820110861     -17.118820110861     -17.114841431664   0.0000   0.0000   0.0000   0.0000
    174    0.003790122918231    0.0    0.00     -17.119405755149     -17.119405755149     -17.119405755149     -17.115615632230   0.0000   0.0000   0.0000   0.0000
    175    0.003610405678107    0.0    0.00     -17.119963588752     -17.119963588752     -17.119963588752     -17.116353183074   0.0000   0.0000   0.0000   0.0000
    176    0.003439119952399    0.0    0.00     -17.120494898316     -17.120494898316     -17.120494898316     -17.117055778363   0.0000   0.0000   0.0000   0.0000
    177    0.003275876364124    0.0    0.00     -17.121000935008     -17.121000935008     -17.121000935008     -17.117725058644   0.0000   0.0000   0.0000   0.0000
    178    0.003120302193939    0.0    0.00     -17.121482892576     -17.121482892576     -17.121482892576     -17.118362590382   0.0000   0.0000   0.0000   0.0000
    179    0.002972041682469    0.0    0.00     -17.121941902076     -17.121941902076     -17.121941902076     -17.118969860393   0.0000   0.0000   0.0000   0.0000
    180    0.002830755927450    0.0    0.00     -17.122379019075     -17.122379019075     -17.122379019075     -17.119548263148   0.0000   0.0000   0.0000   0.0000
    181    0.002696121383964    0.0    0.00     -17.122795290182     -17.122795290182     -17.122795290182     -17.120099168798   0.0000   0.0000   0.0000   0.0000
    182    0.002567829160018    0.0    0.00     -17.123191696197     -17.123191696197     -17.123191696197     -17.120623867037   0.0000   0.0000   0.0000   0.0000
    183    0.002445584843143    0.0    0.00     -17.123569176813     -17.123569176813     -17.123569176813     -17.121123591969   0.0000   0.0000   0.0000   0.0000
    184    0.002329107395791    0.0    0.00     -17.123928608331     -17.123928608331     -17.123928608331     -17.121599500936   0.0000   0.0000   0.0000   0.0000
    185    0.002218128718547    0.0    0.00     -17.124270863305     -17.124270863305     -17.124270863305     -17.122052734587   0.0000   0.0000   0.0000   0.0000
    186    0.002112392707427    0.0    0.00     -17.124596765324     -17.124596765324     -17.124596765324     -17.122484372617   0.0000   0.0000   0.0000   0.0000
    187    0.002011655029655    0.0    0.00     -17.124907085967     -17.124907085967     -17.124907085967     -17.122895430938   0.0000   0.0000   0.0000   0.0000
    188    0.001915682645415    0.0    0.00     -17.125202563704     -17.125202563704     -17.125202563704     -17.123286881058   0.0000   0.0000   0.0000   0.0000
    189    0.001824253355404    0.0    0.00     -17.125483901370     -17.125483901370     -17.125483901370     -17.123659648014   0.0000   0.0000   0.0000   0.0000
    190    0.001737155341916    0.0    0.00     -17.125751765332     -17.125751765332     -17.125751765332     -17.124014609990   0.0000   0.0000   0.0000   0.0000
    191    0.001654186323511    0.0    0.00     -17.126006791783     -17.126006791783     -17.126006791783     -17.124352605459   0.0000   0.0000   0.0000   0.0000
    192    0.001575153420432    0.0    0.00     -17.126249592547     -17.126249592547     -17.126249592547     -17.124674439126   0.0000   0.0000   0.0000   0.0000
    193    0.001499872587211    0.0    0.00     -17.126480746527     -17.126480746527     -17.126480746527     -17.124980873940   0.0000   0.0000   0.0000   0.0000
    194    0.001428168160743    0.0    0.00     -17.126700818590     -17.126700818590     -17.126700818590     -17.125272650429   0.0000   0.0000   0.0000   0.0000
    195    0.001359872561857    0.0    0.00     -17.126910336657     -17.126910336657     -17.126910336657     -17.125550464095   0.0000   0.0000   0.0000   0.0000
    196    0.001294825899786    0.0    0.00     -17.127109799602     -17.127109799602     -17.127109799602     -17.125814973703   0.0000   0.0000   0.0000   0.0000
    197    0.001232875648388    0.0    0.00     -17.127299693776     -17.127299693776     -17.127299693776     -17.126066818128   0.0000   0.0000   0.0000   0.0000
    198    0.001173876265871    0.0    0.00     -17.127480474231     -17.127480474231     -17.127480474231     -17.126306597966   0.0000   0.0000   0.0000   0.0000
    199    0.001117688896638    0.0    0.00     -17.127652579405     -17.127652579405     -17.127652579405     -17.126534890508   0.0000   0.0000   0.0000   0.0000

 * Physical Quantities at step:   200

   from rhoofr: total integrated electronic density
   in g-space =      8.000000   in r-space =     8.000000


                total energy =      -17.12781642453 Hartree a.u.
              kinetic energy =        7.74104 Hartree a.u.
        electrostatic energy =      -23.20405 Hartree a.u.
                         esr =        0.00133 Hartree a.u.
                       eself =       30.31961 Hartree a.u.
      pseudopotential energy =       -0.91834 Hartree a.u.
  n-l pseudopotential energy =        3.44796 Hartree a.u.
 exchange-correlation energy =       -4.19779 Hartree a.u.
           average potential =        0.00000 Hartree a.u.


     electrostatic embedding =        0.00000 Hartree a.u.
           cavitation energy =        0.00681 Hartree a.u.
                   PV energy =       -0.00345 Hartree a.u.
   correction to one-el term =        0.00000 Hartree a.u.

   Eigenvalues (eV), kp =   1 , spin =  1

  -25.00  -12.91   -9.02   -7.03
 
   Allocated memory (kb) =    471180
 
   CELL_PARAMETERS
   20.00000000    0.00000000    0.00000000
    0.00000000   20.00000000    0.00000000
    0.00000000    0.00000000   20.00000000

   System Density [g/cm^3] :              0.0252137250


   System Volume [A.U.^3] :           8000.0000000000


   Center of mass square displacement (a.u.):   0.000000

   ATOMIC_POSITIONS
   O       0.11790000000000E+02     0.12050000000000E+02     0.11500000000000E+02
   H       0.13450000000000E+02     0.11220000000000E+02     0.11500000000000E+02
   H       0.10560000000000E+02     0.10660000000000E+02     0.11500000000000E+02
 
   ATOMIC_VELOCITIES
   O       0.00000000000000E+00     0.00000000000000E+00     0.00000000000000E+00
   H       0.00000000000000E+00     0.00000000000000E+00     0.00000000000000E+00
   H       0.00000000000000E+00     0.00000000000000E+00     0.00000000000000E+00
 
   Forces acting on atoms (au):
   O      -0.10074686235920E-03    -0.41321597211791E-02     0.18891695255367E-03
   H      -0.54092608159365E-02     0.37828222361599E-02    -0.59049304881929E-03
   H       0.84416800228143E-02     0.85245518271318E-02     0.33780233038153E-03
 


   Partial temperatures (for each ionic specie) 
   Species  Temp (K)   Mean Square Displacement (a.u.)
        1   0.00E+00     0.0000E+00
        2   0.00E+00     0.0000E+00
 
  nfi     ekinc              temph  tempp     etot                 enthal               econs                econt              vnhh    xnhh0   vnhp    xnhp0
    200    0.001064181106044    0.0    0.00     -17.127816424526     -17.127816424526     -17.127816424526     -17.126752243420   0.0000   0.0000   0.0000   0.0000

   writing restart file: /home/fnattino/Programs/qe-6.1/tempdir/h2o_water_50.save
   restart file written in    0.075 sec.

    201    0.001013226551596    0.0    0.00     -17.127972407175     -17.127972407175     -17.127972407175     -17.126959180624   0.0000   0.0000   0.0000   0.0000
    202    0.000964704695629    0.0    0.00     -17.128120902051     -17.128120902051     -17.128120902051     -17.127156197355   0.0000   0.0000   0.0000   0.0000
    203    0.000918500576840    0.0    0.00     -17.128262268125     -17.128262268125     -17.128262268125     -17.127343767548   0.0000   0.0000   0.0000   0.0000
    204    0.000874504543143    0.0    0.00     -17.128396848541     -17.128396848541     -17.128396848541     -17.127522343998   0.0000   0.0000   0.0000   0.0000
    205    0.000832612030329    0.0    0.00     -17.128524970420     -17.128524970420     -17.128524970420     -17.127692358390   0.0000   0.0000   0.0000   0.0000
    206    0.000792723326524    0.0    0.00     -17.128646941992     -17.128646941992     -17.128646941992     -17.127854218665   0.0000   0.0000   0.0000   0.0000
    207    0.000754743408328    0.0    0.00     -17.128763056307     -17.128763056307     -17.128763056307     -17.128008312898   0.0000   0.0000   0.0000   0.0000
    208    0.000718581721959    0.0    0.00     -17.128873599818     -17.128873599818     -17.128873599818     -17.128155018096   0.0000   0.0000   0.0000   0.0000
    209    0.000684151872012    0.0    0.00     -17.128978839082     -17.128978839082     -17.128978839082     -17.128294687210   0.0000   0.0000   0.0000   0.0000
    210    0.000651371486666    0.0    0.00     -17.129079022276     -17.129079022276     -17.129079022276     -17.128427650789   0.0000   0.0000   0.0000   0.0000
    211    0.000620162062780    0.0    0.00     -17.129174396550     -17.129174396550     -17.129174396550     -17.128554234488   0.0000   0.0000   0.0000   0.0000
    212    0.000590448769928    0.0    0.00     -17.129265191080     -17.129265191080     -17.129265191080     -17.128674742310   0.0000   0.0000   0.0000   0.0000
    213    0.000562160329629    0.0    0.00     -17.129351627676     -17.129351627676     -17.129351627676     -17.128789467347   0.0000   0.0000   0.0000   0.0000
    214    0.000535228834994    0.0    0.00     -17.129433918944     -17.129433918944     -17.129433918944     -17.128898690109   0.0000   0.0000   0.0000   0.0000
    215    0.000509589528166    0.0    0.00     -17.129512258951     -17.129512258951     -17.129512258951     -17.129002669423   0.0000   0.0000   0.0000   0.0000
    216    0.000485180675900    0.0    0.00     -17.129586842128     -17.129586842128     -17.129586842128     -17.129101661452   0.0000   0.0000   0.0000   0.0000
    217    0.000461943495646    0.0    0.00     -17.129657848648     -17.129657848648     -17.129657848648     -17.129195905153   0.0000   0.0000   0.0000   0.0000
    218    0.000439821985553    0.0    0.00     -17.129725450941     -17.129725450941     -17.129725450941     -17.129285628956   0.0000   0.0000   0.0000   0.0000
    219    0.000418762774390    0.0    0.00     -17.129789811497     -17.129789811497     -17.129789811497     -17.129371048723   0.0000   0.0000   0.0000   0.0000
    220    0.000398715013260    0.0    0.00     -17.129851086570     -17.129851086570     -17.129851086570     -17.129452371557   0.0000   0.0000   0.0000   0.0000
    221    0.000379630275466    0.0    0.00     -17.129909426560     -17.129909426560     -17.129909426560     -17.129529796285   0.0000   0.0000   0.0000   0.0000
    222    0.000361462415944    0.0    0.00     -17.129964971984     -17.129964971984     -17.129964971984     -17.129603509568   0.0000   0.0000   0.0000   0.0000
    223    0.000344167492419    0.0    0.00     -17.130017856488     -17.130017856488     -17.130017856488     -17.129673688996   0.0000   0.0000   0.0000   0.0000
    224    0.000327703656509    0.0    0.00     -17.130068210265     -17.130068210265     -17.130068210265     -17.129740506609   0.0000   0.0000   0.0000   0.0000
    225    0.000312031055825    0.0    0.00     -17.130116154837     -17.130116154837     -17.130116154837     -17.129804123782   0.0000   0.0000   0.0000   0.0000
    226    0.000297111702563    0.0    0.00     -17.130161803726     -17.130161803726     -17.130161803726     -17.129864692023   0.0000   0.0000   0.0000   0.0000
    227    0.000282909408541    0.0    0.00     -17.130205268105     -17.130205268105     -17.130205268105     -17.129922358697   0.0000   0.0000   0.0000   0.0000
    228    0.000269389736814    0.0    0.00     -17.130246656458     -17.130246656458     -17.130246656458     -17.129977266721   0.0000   0.0000   0.0000   0.0000
    229    0.000256519879399    0.0    0.00     -17.130286065894     -17.130286065894     -17.130286065894     -17.130029546015   0.0000   0.0000   0.0000   0.0000
    230    0.000244268586090    0.0    0.00     -17.130323589974     -17.130323589974     -17.130323589974     -17.130079321388   0.0000   0.0000   0.0000   0.0000
    231    0.000232606119939    0.0    0.00     -17.130359323121     -17.130359323121     -17.130359323121     -17.130126717001   0.0000   0.0000   0.0000   0.0000
    232    0.000221504164887    0.0    0.00     -17.130393348670     -17.130393348670     -17.130393348670     -17.130171844505   0.0000   0.0000   0.0000   0.0000
    233    0.000210935756346    0.0    0.00     -17.130425751872     -17.130425751872     -17.130425751872     -17.130214816116   0.0000   0.0000   0.0000   0.0000
    234    0.000200875221211    0.0    0.00     -17.130456607280     -17.130456607280     -17.130456607280     -17.130255732058   0.0000   0.0000   0.0000   0.0000
    235    0.000191298101249    0.0    0.00     -17.130485990772     -17.130485990772     -17.130485990772     -17.130294692671   0.0000   0.0000   0.0000   0.0000
    236    0.000182181143990    0.0    0.00     -17.130513974593     -17.130513974593     -17.130513974593     -17.130331793449   0.0000   0.0000   0.0000   0.0000
    237    0.000173502202130    0.0    0.00     -17.130540623158     -17.130540623158     -17.130540623158     -17.130367120956   0.0000   0.0000   0.0000   0.0000
    238    0.000165240172987    0.0    0.00     -17.130566003427     -17.130566003427     -17.130566003427     -17.130400763254   0.0000   0.0000   0.0000   0.0000
    239    0.000157374979310    0.0    0.00     -17.130590175770     -17.130590175770     -17.130590175770     -17.130432800790   0.0000   0.0000   0.0000   0.0000
    240    0.000149887500065    0.0    0.00     -17.130613195249     -17.130613195249     -17.130613195249     -17.130463307749   0.0000   0.0000   0.0000   0.0000
    241    0.000142759538942    0.0    0.00     -17.130635121364     -17.130635121364     -17.130635121364     -17.130492361825   0.0000   0.0000   0.0000   0.0000
    242    0.000135973770471    0.0    0.00     -17.130656004706     -17.130656004706     -17.130656004706     -17.130520030936   0.0000   0.0000   0.0000   0.0000
    243    0.000129513692273    0.0    0.00     -17.130675894603     -17.130675894603     -17.130675894603     -17.130546380911   0.0000   0.0000   0.0000   0.0000
    244    0.000123363608900    0.0    0.00     -17.130694840811     -17.130694840811     -17.130694840811     -17.130571477202   0.0000   0.0000   0.0000   0.0000
    245    0.000117508582749    0.0    0.00     -17.130712886220     -17.130712886220     -17.130712886220     -17.130595377637   0.0000   0.0000   0.0000   0.0000
    246    0.000111934387459    0.0    0.00     -17.130730075704     -17.130730075704     -17.130730075704     -17.130618141316   0.0000   0.0000   0.0000   0.0000
    247    0.000106627480818    0.0    0.00     -17.130746450158     -17.130746450158     -17.130746450158     -17.130639822677   0.0000   0.0000   0.0000   0.0000
    248    0.000101574973897    0.0    0.00     -17.130762049324     -17.130762049324     -17.130762049324     -17.130660474350   0.0000   0.0000   0.0000   0.0000
    249    0.000096764607483    0.0    0.00     -17.130776909824     -17.130776909824     -17.130776909824     -17.130680145216   0.0000   0.0000   0.0000   0.0000
    250    0.000092184712919    0.0    0.00     -17.130791067564     -17.130791067564     -17.130791067564     -17.130698882851   0.0000   0.0000   0.0000   0.0000
    251    0.000087824173123    0.0    0.00     -17.130804554333     -17.130804554333     -17.130804554333     -17.130716730160   0.0000   0.0000   0.0000   0.0000
    252    0.000083672410071    0.0    0.00     -17.130817406050     -17.130817406050     -17.130817406050     -17.130733733640   0.0000   0.0000   0.0000   0.0000
    253    0.000079719358936    0.0    0.00     -17.130829647359     -17.130829647359     -17.130829647359     -17.130749928000   0.0000   0.0000   0.0000   0.0000
    254    0.000075955434646    0.0    0.00     -17.130841310654     -17.130841310654     -17.130841310654     -17.130765355219   0.0000   0.0000   0.0000   0.0000
    255    0.000072371516968    0.0    0.00     -17.130852422242     -17.130852422242     -17.130852422242     -17.130780050725   0.0000   0.0000   0.0000   0.0000
    256    0.000068958930294    0.0    0.00     -17.130863010663     -17.130863010663     -17.130863010663     -17.130794051732   0.0000   0.0000   0.0000   0.0000
    257    0.000065709415421    0.0    0.00     -17.130873098951     -17.130873098951     -17.130873098951     -17.130807389535   0.0000   0.0000   0.0000   0.0000
    258    0.000062615116447    0.0    0.00     -17.130882712398     -17.130882712398     -17.130882712398     -17.130820097282   0.0000   0.0000   0.0000   0.0000
    259    0.000059668561182    0.0    0.00     -17.130891873694     -17.130891873694     -17.130891873694     -17.130832205133   0.0000   0.0000   0.0000   0.0000
    260    0.000056862631184    0.0    0.00     -17.130900603230     -17.130900603230     -17.130900603230     -17.130843740598   0.0000   0.0000   0.0000   0.0000
    261    0.000054190543441    0.0    0.00     -17.130908921641     -17.130908921641     -17.130908921641     -17.130854731097   0.0000   0.0000   0.0000   0.0000
    262    0.000051645848467    0.0    0.00     -17.130916849060     -17.130916849060     -17.130916849060     -17.130865203212   0.0000   0.0000   0.0000   0.0000
    263    0.000049222423749    0.0    0.00     -17.130924405497     -17.130924405497     -17.130924405497     -17.130875183074   0.0000   0.0000   0.0000   0.0000
    264    0.000046914437735    0.0    0.00     -17.130931606773     -17.130931606773     -17.130931606773     -17.130884692335   0.0000   0.0000   0.0000   0.0000
    265    0.000044716329248    0.0    0.00     -17.130938470646     -17.130938470646     -17.130938470646     -17.130893754317   0.0000   0.0000   0.0000   0.0000
    266    0.000042622805309    0.0    0.00     -17.130945011989     -17.130945011989     -17.130945011989     -17.130902389184   0.0000   0.0000   0.0000   0.0000
    267    0.000040628830976    0.0    0.00     -17.130951246016     -17.130951246016     -17.130951246016     -17.130910617185   0.0000   0.0000   0.0000   0.0000
    268    0.000038729621932    0.0    0.00     -17.130957189131     -17.130957189131     -17.130957189131     -17.130918459509   0.0000   0.0000   0.0000   0.0000
    269    0.000036920625728    0.0    0.00     -17.130962854274     -17.130962854274     -17.130962854274     -17.130925933648   0.0000   0.0000   0.0000   0.0000
    270    0.000035197507470    0.0    0.00     -17.130968255364     -17.130968255364     -17.130968255364     -17.130933057857   0.0000   0.0000   0.0000   0.0000
    271    0.000033556142880    0.0    0.00     -17.130973402974     -17.130973402974     -17.130973402974     -17.130939846831   0.0000   0.0000   0.0000   0.0000
    272    0.000031992606987    0.0    0.00     -17.130978311099     -17.130978311099     -17.130978311099     -17.130946318492   0.0000   0.0000   0.0000   0.0000
    273    0.000030503163570    0.0    0.00     -17.130982990375     -17.130982990375     -17.130982990375     -17.130952487212   0.0000   0.0000   0.0000   0.0000
    274    0.000029084256286    0.0    0.00     -17.130987451414     -17.130987451414     -17.130987451414     -17.130958367157   0.0000   0.0000   0.0000   0.0000
    275    0.000027732503068    0.0    0.00     -17.130991704710     -17.130991704710     -17.130991704710     -17.130963972207   0.0000   0.0000   0.0000   0.0000
    276    0.000026444683380    0.0    0.00     -17.130995760085     -17.130995760085     -17.130995760085     -17.130969315402   0.0000   0.0000   0.0000   0.0000
    277    0.000025217730894    0.0    0.00     -17.130999625705     -17.130999625705     -17.130999625705     -17.130974407974   0.0000   0.0000   0.0000   0.0000
    278    0.000024048729939    0.0    0.00     -17.131003312604     -17.131003312604     -17.131003312604     -17.130979263874   0.0000   0.0000   0.0000   0.0000
    279    0.000022934908966    0.0    0.00     -17.131006829058     -17.131006829058     -17.131006829058     -17.130983894149   0.0000   0.0000   0.0000   0.0000
    280    0.000021873623410    0.0    0.00     -17.131010180836     -17.131010180836     -17.131010180836     -17.130988307212   0.0000   0.0000   0.0000   0.0000
    281    0.000020862356146    0.0    0.00     -17.131013377642     -17.131013377642     -17.131013377642     -17.130992515285   0.0000   0.0000   0.0000   0.0000
    282    0.000019898718665    0.0    0.00     -17.131016426688     -17.131016426688     -17.131016426688     -17.130996527969   0.0000   0.0000   0.0000   0.0000
    283    0.000018980433238    0.0    0.00     -17.131019334294     -17.131019334294     -17.131019334294     -17.131000353861   0.0000   0.0000   0.0000   0.0000
    284    0.000018105334248    0.0    0.00     -17.131022108406     -17.131022108406     -17.131022108406     -17.131004003072   0.0000   0.0000   0.0000   0.0000
    285    0.000017271363329    0.0    0.00     -17.131024753808     -17.131024753808     -17.131024753808     -17.131007482445   0.0000   0.0000   0.0000   0.0000
    286    0.000016476557137    0.0    0.00     -17.131027277619     -17.131027277619     -17.131027277619     -17.131010801062   0.0000   0.0000   0.0000   0.0000
    287    0.000015719044157    0.0    0.00     -17.131029683638     -17.131029683638     -17.131029683638     -17.131013964594   0.0000   0.0000   0.0000   0.0000
    288    0.000014997045570    0.0    0.00     -17.131031978906     -17.131031978906     -17.131031978906     -17.131016981860   0.0000   0.0000   0.0000   0.0000
    289    0.000014308870885    0.0    0.00     -17.131034168264     -17.131034168264     -17.131034168264     -17.131019859393   0.0000   0.0000   0.0000   0.0000
    290    0.000013652908903    0.0    0.00     -17.131036256696     -17.131036256696     -17.131036256696     -17.131022603787   0.0000   0.0000   0.0000   0.0000
    291    0.000013027627173    0.0    0.00     -17.131038248877     -17.131038248877     -17.131038248877     -17.131025221250   0.0000   0.0000   0.0000   0.0000
    292    0.000012431568120    0.0    0.00     -17.131040150265     -17.131040150265     -17.131040150265     -17.131027718697   0.0000   0.0000   0.0000   0.0000
    293    0.000011863345576    0.0    0.00     -17.131041964949     -17.131041964949     -17.131041964949     -17.131030101603   0.0000   0.0000   0.0000   0.0000
    294    0.000011321638532    0.0    0.00     -17.131043696224     -17.131043696224     -17.131043696224     -17.131032374585   0.0000   0.0000   0.0000   0.0000
    295    0.000010805185721    0.0    0.00     -17.131045346923     -17.131045346923     -17.131045346923     -17.131034541738   0.0000   0.0000   0.0000   0.0000
    296    0.000010312787819    0.0    0.00     -17.131046922168     -17.131046922168     -17.131046922168     -17.131036609380   0.0000   0.0000   0.0000   0.0000
    297    0.000009843305844    0.0    0.00     -17.131048426204     -17.131048426204     -17.131048426204     -17.131038582898   0.0000   0.0000   0.0000   0.0000
    298    0.000009395654058    0.0    0.00     -17.131049860407     -17.131049860407     -17.131049860407     -17.131040464753   0.0000   0.0000   0.0000   0.0000
    299    0.000008968797491    0.0    0.00     -17.131051228677     -17.131051228677     -17.131051228677     -17.131042259879   0.0000   0.0000   0.0000   0.0000

 * Physical Quantities at step:   300

   from rhoofr: total integrated electronic density
   in g-space =      8.000000   in r-space =     8.000000


                total energy =      -17.13105253470 Hartree a.u.
              kinetic energy =        7.73469 Hartree a.u.
        electrostatic energy =      -23.20158 Hartree a.u.
                         esr =        0.00133 Hartree a.u.
                       eself =       30.31961 Hartree a.u.
      pseudopotential energy =       -0.91720 Hartree a.u.
  n-l pseudopotential energy =        3.44307 Hartree a.u.
 exchange-correlation energy =       -4.19342 Hartree a.u.
           average potential =        0.00000 Hartree a.u.


     electrostatic embedding =        0.00000 Hartree a.u.
           cavitation energy =        0.00692 Hartree a.u.
                   PV energy =       -0.00354 Hartree a.u.
   correction to one-el term =        0.00000 Hartree a.u.

   Eigenvalues (eV), kp =   1 , spin =  1

  -25.09  -12.97   -9.12   -7.11
 
   Allocated memory (kb) =    471180
 
   CELL_PARAMETERS
   20.00000000    0.00000000    0.00000000
    0.00000000   20.00000000    0.00000000
    0.00000000    0.00000000   20.00000000

   System Density [g/cm^3] :              0.0252137250


   System Volume [A.U.^3] :           8000.0000000000


   Center of mass square displacement (a.u.):   0.000000

   ATOMIC_POSITIONS
   O       0.11790000000000E+02     0.12050000000000E+02     0.11500000000000E+02
   H       0.13450000000000E+02     0.11220000000000E+02     0.11500000000000E+02
   H       0.10560000000000E+02     0.10660000000000E+02     0.11500000000000E+02
 
   ATOMIC_VELOCITIES
   O       0.00000000000000E+00     0.00000000000000E+00     0.00000000000000E+00
   H       0.00000000000000E+00     0.00000000000000E+00     0.00000000000000E+00
   H       0.00000000000000E+00     0.00000000000000E+00     0.00000000000000E+00
 
   Forces acting on atoms (au):
   O       0.12095061114953E-02    -0.68391067141289E-02    -0.53242013970210E-04
   H      -0.67806661912881E-02     0.25050298417462E-02    -0.58338001521592E-04
   H       0.58185122562578E-02     0.52985123973059E-02     0.33881853953515E-04
 


   Partial temperatures (for each ionic specie) 
   Species  Temp (K)   Mean Square Displacement (a.u.)
        1   0.00E+00     0.0000E+00
        2   0.00E+00     0.0000E+00
 
  nfi     ekinc              temph  tempp     etot                 enthal               econs                econt              vnhh    xnhh0   vnhp    xnhp0
    300    0.000008561751626    0.0    0.00     -17.131052534697     -17.131052534697     -17.131052534697     -17.131043972946   0.0000   0.0000   0.0000   0.0000

   writing restart file: /home/fnattino/Programs/qe-6.1/tempdir/h2o_water_50.save
   restart file written in    0.075 sec.

    301    0.000011992646698    0.0    0.00     -17.141738952233     -17.141738952233     -17.141738952233     -17.141726959586   0.0000   0.0000   0.0000   0.0000
    302    0.000025768523837    0.0    0.00     -17.141756457675     -17.141756457675     -17.141756457675     -17.141730689151   0.0000   0.0000   0.0000   0.0000
    303    0.000050548386954    0.0    0.00     -17.141788731298     -17.141788731298     -17.141788731298     -17.141738182911   0.0000   0.0000   0.0000   0.0000
    304    0.000082641298469    0.0    0.00     -17.141833902040     -17.141833902040     -17.141833902040     -17.141751260742   0.0000   0.0000   0.0000   0.0000
    305    0.000119044785932    0.0    0.00     -17.141890129579     -17.141890129579     -17.141890129579     -17.141771084793   0.0000   0.0000   0.0000   0.0000
    306    0.000157354510047    0.0    0.00     -17.141955600984     -17.141955600984     -17.141955600984     -17.141798246474   0.0000   0.0000   0.0000   0.0000
    307    0.000195682323307    0.0    0.00     -17.142028638359     -17.142028638359     -17.142028638359     -17.141832956036   0.0000   0.0000   0.0000   0.0000
    308    0.000232582230725    0.0    0.00     -17.142107638722     -17.142107638722     -17.142107638722     -17.141875056492   0.0000   0.0000   0.0000   0.0000
    309    0.000266983500743    0.0    0.00     -17.142191263649     -17.142191263649     -17.142191263649     -17.141924280148   0.0000   0.0000   0.0000   0.0000
    310    0.000298131037275    0.0    0.00     -17.142278066775     -17.142278066775     -17.142278066775     -17.141979935738   0.0000   0.0000   0.0000   0.0000
    311    0.000325532199142    0.0    0.00     -17.142366917294     -17.142366917294     -17.142366917294     -17.142041385095   0.0000   0.0000   0.0000   0.0000
    312    0.000348909246414    0.0    0.00     -17.142456828955     -17.142456828955     -17.142456828955     -17.142107919709   0.0000   0.0000   0.0000   0.0000
    313    0.000368157985763    0.0    0.00     -17.142546842111     -17.142546842111     -17.142546842111     -17.142178684125   0.0000   0.0000   0.0000   0.0000
    314    0.000383311841201    0.0    0.00     -17.142636101579     -17.142636101579     -17.142636101579     -17.142252789738   0.0000   0.0000   0.0000   0.0000
    315    0.000394510513807    0.0    0.00     -17.142723872538     -17.142723872538     -17.142723872538     -17.142329362024   0.0000   0.0000   0.0000   0.0000
    316    0.000401972626107    0.0    0.00     -17.142809716131     -17.142809716131     -17.142809716131     -17.142407743505   0.0000   0.0000   0.0000   0.0000
    317    0.000405972456506    0.0    0.00     -17.142893298171     -17.142893298171     -17.142893298171     -17.142487325714   0.0000   0.0000   0.0000   0.0000
    318    0.000406821250617    0.0    0.00     -17.142974152321     -17.142974152321     -17.142974152321     -17.142567331071   0.0000   0.0000   0.0000   0.0000
    319    0.000404851446905    0.0    0.00     -17.143052123525     -17.143052123525     -17.143052123525     -17.142647272078   0.0000   0.0000   0.0000   0.0000
    320    0.000400403778347    0.0    0.00     -17.143126884975     -17.143126884975     -17.143126884975     -17.142726481197   0.0000   0.0000   0.0000   0.0000
    321    0.000393816738534    0.0    0.00     -17.143198416602     -17.143198416602     -17.143198416602     -17.142804599863   0.0000   0.0000   0.0000   0.0000
    322    0.000385418363529    0.0    0.00     -17.143266611675     -17.143266611675     -17.143266611675     -17.142881193312   0.0000   0.0000   0.0000   0.0000
    323    0.000375520252501    0.0    0.00     -17.143331647188     -17.143331647188     -17.143331647188     -17.142956126935   0.0000   0.0000   0.0000   0.0000
    324    0.000364413620266    0.0    0.00     -17.143393337861     -17.143393337861     -17.143393337861     -17.143028924240   0.0000   0.0000   0.0000   0.0000
    325    0.000352366763277    0.0    0.00     -17.143451807105     -17.143451807105     -17.143451807105     -17.143099440342   0.0000   0.0000   0.0000   0.0000
    326    0.000339622688538    0.0    0.00     -17.143507212265     -17.143507212265     -17.143507212265     -17.143167589576   0.0000   0.0000   0.0000   0.0000
    327    0.000326398504716    0.0    0.00     -17.143559565694     -17.143559565694     -17.143559565694     -17.143233167189   0.0000   0.0000   0.0000   0.0000
    328    0.000312885620158    0.0    0.00     -17.143609060603     -17.143609060603     -17.143609060603     -17.143296174983   0.0000   0.0000   0.0000   0.0000
    329    0.000299250561281    0.0    0.00     -17.143655693803     -17.143655693803     -17.143655693803     -17.143356443242   0.0000   0.0000   0.0000   0.0000
    330    0.000285636106372    0.0    0.00     -17.143699646506     -17.143699646506     -17.143699646506     -17.143414010399   0.0000   0.0000   0.0000   0.0000
    331    0.000272162278898    0.0    0.00     -17.143741176604     -17.143741176604     -17.143741176604     -17.143469014325   0.0000   0.0000   0.0000   0.0000
    332    0.000258928180182    0.0    0.00     -17.143780409689     -17.143780409689     -17.143780409689     -17.143521481508   0.0000   0.0000   0.0000   0.0000
    333    0.000246014370611    0.0    0.00     -17.143817306157     -17.143817306157     -17.143817306157     -17.143571291786   0.0000   0.0000   0.0000   0.0000
    334    0.000233484422407    0.0    0.00     -17.143852118817     -17.143852118817     -17.143852118817     -17.143618634395   0.0000   0.0000   0.0000   0.0000
    335    0.000221386383667    0.0    0.00     -17.143885059569     -17.143885059569     -17.143885059569     -17.143663673185   0.0000   0.0000   0.0000   0.0000
    336    0.000209755226182    0.0    0.00     -17.143916098986     -17.143916098986     -17.143916098986     -17.143706343760   0.0000   0.0000   0.0000   0.0000
    337    0.000198614813353    0.0    0.00     -17.143945320552     -17.143945320552     -17.143945320552     -17.143746705738   0.0000   0.0000   0.0000   0.0000
    338    0.000187978888259    0.0    0.00     -17.143973059033     -17.143973059033     -17.143973059033     -17.143785080145   0.0000   0.0000   0.0000   0.0000
    339    0.000177852922461    0.0    0.00     -17.143999209160     -17.143999209160     -17.143999209160     -17.143821356238   0.0000   0.0000   0.0000   0.0000
    340    0.000168235777762    0.0    0.00     -17.144023963314     -17.144023963314     -17.144023963314     -17.143855727536   0.0000   0.0000   0.0000   0.0000
    341    0.000159120581301    0.0    0.00     -17.144047443376     -17.144047443376     -17.144047443376     -17.143888322794   0.0000   0.0000   0.0000   0.0000
    342    0.000150496208470    0.0    0.00     -17.144069613089     -17.144069613089     -17.144069613089     -17.143919116880   0.0000   0.0000   0.0000   0.0000
    343    0.000142348178338    0.0    0.00     -17.144090634013     -17.144090634013     -17.144090634013     -17.143948285835   0.0000   0.0000   0.0000   0.0000
    344    0.000134659331874    0.0    0.00     -17.144110584019     -17.144110584019     -17.144110584019     -17.143975924687   0.0000   0.0000   0.0000   0.0000
    345    0.000127410697920    0.0    0.00     -17.144129544799     -17.144129544799     -17.144129544799     -17.144002134101   0.0000   0.0000   0.0000   0.0000
    346    0.000120582168009    0.0    0.00     -17.144147524495     -17.144147524495     -17.144147524495     -17.144026942327   0.0000   0.0000   0.0000   0.0000
    347    0.000114153012393    0.0    0.00     -17.144164578271     -17.144164578271     -17.144164578271     -17.144050425259   0.0000   0.0000   0.0000   0.0000
    348    0.000108102273627    0.0    0.00     -17.144180726230     -17.144180726230     -17.144180726230     -17.144072623956   0.0000   0.0000   0.0000   0.0000
    349    0.000102409017212    0.0    0.00     -17.144196094287     -17.144196094287     -17.144196094287     -17.144093685270   0.0000   0.0000   0.0000   0.0000
    350    0.000097052633095    0.0    0.00     -17.144210695865     -17.144210695865     -17.144210695865     -17.144113643232   0.0000   0.0000   0.0000   0.0000
    351    0.000092013143765    0.0    0.00     -17.144224567566     -17.144224567566     -17.144224567566     -17.144132554422   0.0000   0.0000   0.0000   0.0000
    352    0.000087271308185    0.0    0.00     -17.144237742405     -17.144237742405     -17.144237742405     -17.144150471097   0.0000   0.0000   0.0000   0.0000
    353    0.000082808713141    0.0    0.00     -17.144250256729     -17.144250256729     -17.144250256729     -17.144167448016   0.0000   0.0000   0.0000   0.0000
    354    0.000078607840857    0.0    0.00     -17.144262141502     -17.144262141502     -17.144262141502     -17.144183533661   0.0000   0.0000   0.0000   0.0000
    355    0.000074652090833    0.0    0.00     -17.144273457416     -17.144273457416     -17.144273457416     -17.144198805325   0.0000   0.0000   0.0000   0.0000
    356    0.000070925749496    0.0    0.00     -17.144284268088     -17.144284268088     -17.144284268088     -17.144213342338   0.0000   0.0000   0.0000   0.0000
    357    0.000067414026301    0.0    0.00     -17.144294601925     -17.144294601925     -17.144294601925     -17.144227187899   0.0000   0.0000   0.0000   0.0000
    358    0.000064103083979    0.0    0.00     -17.144304476941     -17.144304476941     -17.144304476941     -17.144240373857   0.0000   0.0000   0.0000   0.0000
    359    0.000060979995970    0.0    0.00     -17.144313927630     -17.144313927630     -17.144313927630     -17.144252947634   0.0000   0.0000   0.0000   0.0000
    360    0.000058032713303    0.0    0.00     -17.144322962975     -17.144322962975     -17.144322962975     -17.144264930261   0.0000   0.0000   0.0000   0.0000
    361    0.000055250046843    0.0    0.00     -17.144331570492     -17.144331570492     -17.144331570492     -17.144276320445   0.0000   0.0000   0.0000   0.0000
    362    0.000052621586258    0.0    0.00     -17.144339799145     -17.144339799145     -17.144339799145     -17.144287177558   0.0000   0.0000   0.0000   0.0000
    363    0.000050137634954    0.0    0.00     -17.144347655931     -17.144347655931     -17.144347655931     -17.144297518296   0.0000   0.0000   0.0000   0.0000
    364    0.000047789157449    0.0    0.00     -17.144355183011     -17.144355183011     -17.144355183011     -17.144307393854   0.0000   0.0000   0.0000   0.0000
    365    0.000045567731384    0.0    0.00     -17.144362397671     -17.144362397671     -17.144362397671     -17.144316829939   0.0000   0.0000   0.0000   0.0000
    366    0.000043465535342    0.0    0.00     -17.144369298645     -17.144369298645     -17.144369298645     -17.144325833110   0.0000   0.0000   0.0000   0.0000
    367    0.000041475299214    0.0    0.00     -17.144375894488     -17.144375894488     -17.144375894488     -17.144334419189   0.0000   0.0000   0.0000   0.0000
    368    0.000039590253514    0.0    0.00     -17.144382195705     -17.144382195705     -17.144382195705     -17.144342605451   0.0000   0.0000   0.0000   0.0000
    369    0.000037804077449    0.0    0.00     -17.144388236161     -17.144388236161     -17.144388236161     -17.144350432083   0.0000   0.0000   0.0000   0.0000
    370    0.000036110872047    0.0    0.00     -17.144394021982     -17.144394021982     -17.144394021982     -17.144357911110   0.0000   0.0000   0.0000   0.0000
    371    0.000034505149054    0.0    0.00     -17.144399555633     -17.144399555633     -17.144399555633     -17.144365050484   0.0000   0.0000   0.0000   0.0000
    372    0.000032981782575    0.0    0.00     -17.144404850447     -17.144404850447     -17.144404850447     -17.144371868665   0.0000   0.0000   0.0000   0.0000
    373    0.000031535974951    0.0    0.00     -17.144409922383     -17.144409922383     -17.144409922383     -17.144378386408   0.0000   0.0000   0.0000   0.0000
    374    0.000030163235053    0.0    0.00     -17.144414790645     -17.144414790645     -17.144414790645     -17.144384627410   0.0000   0.0000   0.0000   0.0000
    375    0.000028859360011    0.0    0.00     -17.144419449232     -17.144419449232     -17.144419449232     -17.144390589872   0.0000   0.0000   0.0000   0.0000
    376    0.000027620415045    0.0    0.00     -17.144423914589     -17.144423914589     -17.144423914589     -17.144396294173   0.0000   0.0000   0.0000   0.0000
    377    0.000026442714613    0.0    0.00     -17.144428190810     -17.144428190810     -17.144428190810     -17.144401748095   0.0000   0.0000   0.0000   0.0000
    378    0.000025322806823    0.0    0.00     -17.144432287259     -17.144432287259     -17.144432287259     -17.144406964452   0.0000   0.0000   0.0000   0.0000
    379    0.000024257446519    0.0    0.00     -17.144436232287     -17.144436232287     -17.144436232287     -17.144411974840   0.0000   0.0000   0.0000   0.0000
    380    0.000023243589197    0.0    0.00     -17.144440028278     -17.144440028278     -17.144440028278     -17.144416784689   0.0000   0.0000   0.0000   0.0000
[...]
    747    0.000000000083596    0.0    0.00     -17.144541072623     -17.144541072623     -17.144541072623     -17.144541072540   0.0000   0.0000   0.0000   0.0000
    748    0.000000000080866    0.0    0.00     -17.144541072574     -17.144541072574     -17.144541072574     -17.144541072494   0.0000   0.0000   0.0000   0.0000
    749    0.000000000078225    0.0    0.00     -17.144541070934     -17.144541070934     -17.144541070934     -17.144541070856   0.0000   0.0000   0.0000   0.0000
    750    0.000000000075671    0.0    0.00     -17.144541071165     -17.144541071165     -17.144541071165     -17.144541071089   0.0000   0.0000   0.0000   0.0000
    751    0.000000000073199    0.0    0.00     -17.144541072307     -17.144541072307     -17.144541072307     -17.144541072234   0.0000   0.0000   0.0000   0.0000
    752    0.000000000070809    0.0    0.00     -17.144541071274     -17.144541071274     -17.144541071274     -17.144541071203   0.0000   0.0000   0.0000   0.0000
    753    0.000000000068496    0.0    0.00     -17.144541071311     -17.144541071311     -17.144541071311     -17.144541071243   0.0000   0.0000   0.0000   0.0000
    754    0.000000000066259    0.0    0.00     -17.144541071585     -17.144541071585     -17.144541071585     -17.144541071519   0.0000   0.0000   0.0000   0.0000
    755    0.000000000064095    0.0    0.00     -17.144541071335     -17.144541071335     -17.144541071335     -17.144541071271   0.0000   0.0000   0.0000   0.0000
    756    0.000000000062002    0.0    0.00     -17.144541071436     -17.144541071436     -17.144541071436     -17.144541071374   0.0000   0.0000   0.0000   0.0000
    757    0.000000000059977    0.0    0.00     -17.144541071504     -17.144541071504     -17.144541071504     -17.144541071444   0.0000   0.0000   0.0000   0.0000
    758    0.000000000058018    0.0    0.00     -17.144541070854     -17.144541070854     -17.144541070854     -17.144541070796   0.0000   0.0000   0.0000   0.0000
    759    0.000000000056123    0.0    0.00     -17.144541071555     -17.144541071555     -17.144541071555     -17.144541071499   0.0000   0.0000   0.0000   0.0000
    760    0.000000000054289    0.0    0.00     -17.144541071630     -17.144541071630     -17.144541071630     -17.144541071576   0.0000   0.0000   0.0000   0.0000
    761    0.000000000052516    0.0    0.00     -17.144541070488     -17.144541070488     -17.144541070488     -17.144541070435   0.0000   0.0000   0.0000   0.0000
    762    0.000000000050801    0.0    0.00     -17.144541071670     -17.144541071670     -17.144541071670     -17.144541071619   0.0000   0.0000   0.0000   0.0000
    763    0.000000000049142    0.0    0.00     -17.144541071748     -17.144541071748     -17.144541071748     -17.144541071699   0.0000   0.0000   0.0000   0.0000
    764    0.000000000047537    0.0    0.00     -17.144541070252     -17.144541070252     -17.144541070252     -17.144541070205   0.0000   0.0000   0.0000   0.0000
    765    0.000000000045985    0.0    0.00     -17.144541071871     -17.144541071871     -17.144541071871     -17.144541071825   0.0000   0.0000   0.0000   0.0000
    766    0.000000000044484    0.0    0.00     -17.144541072037     -17.144541072037     -17.144541072037     -17.144541071993   0.0000   0.0000   0.0000   0.0000
    767    0.000000000043032    0.0    0.00     -17.144541070177     -17.144541070177     -17.144541070177     -17.144541070134   0.0000   0.0000   0.0000   0.0000
    768    0.000000000041627    0.0    0.00     -17.144541072060     -17.144541072060     -17.144541072060     -17.144541072018   0.0000   0.0000   0.0000   0.0000
    769    0.000000000040269    0.0    0.00     -17.144541072141     -17.144541072141     -17.144541072141     -17.144541072100   0.0000   0.0000   0.0000   0.0000
    770    0.000000000038955    0.0    0.00     -17.144541070124     -17.144541070124     -17.144541070124     -17.144541070085   0.0000   0.0000   0.0000   0.0000
    771    0.000000000037684    0.0    0.00     -17.144541072252     -17.144541072252     -17.144541072252     -17.144541072215   0.0000   0.0000   0.0000   0.0000
    772    0.000000000036454    0.0    0.00     -17.144541072333     -17.144541072333     -17.144541072333     -17.144541072296   0.0000   0.0000   0.0000   0.0000
    773    0.000000000035265    0.0    0.00     -17.144541070026     -17.144541070026     -17.144541070026     -17.144541069991   0.0000   0.0000   0.0000   0.0000
    774    0.000000000034114    0.0    0.00     -17.144541072344     -17.144541072344     -17.144541072344     -17.144541072310   0.0000   0.0000   0.0000   0.0000
    775    0.000000000033001    0.0    0.00     -17.144541072424     -17.144541072424     -17.144541072424     -17.144541072391   0.0000   0.0000   0.0000   0.0000
    776    0.000000000031924    0.0    0.00     -17.144541069970     -17.144541069970     -17.144541069970     -17.144541069939   0.0000   0.0000   0.0000   0.0000
    777    0.000000000030882    0.0    0.00     -17.144541072431     -17.144541072431     -17.144541072431     -17.144541072400   0.0000   0.0000   0.0000   0.0000
    778    0.000000000029874    0.0    0.00     -17.144541072509     -17.144541072509     -17.144541072509     -17.144541072479   0.0000   0.0000   0.0000   0.0000
    779    0.000000000028899    0.0    0.00     -17.144541069951     -17.144541069951     -17.144541069951     -17.144541069922   0.0000   0.0000   0.0000   0.0000
    780    0.000000000027956    0.0    0.00     -17.144541072512     -17.144541072512     -17.144541072512     -17.144541072484   0.0000   0.0000   0.0000   0.0000
    781    0.000000000027043    0.0    0.00     -17.144541072589     -17.144541072589     -17.144541072589     -17.144541072562   0.0000   0.0000   0.0000   0.0000
    782    0.000000000026161    0.0    0.00     -17.144541069961     -17.144541069961     -17.144541069961     -17.144541069935   0.0000   0.0000   0.0000   0.0000
    783    0.000000000025307    0.0    0.00     -17.144541072693     -17.144541072693     -17.144541072693     -17.144541072668   0.0000   0.0000   0.0000   0.0000
    784    0.000000000024481    0.0    0.00     -17.144541072769     -17.144541072769     -17.144541072769     -17.144541072744   0.0000   0.0000   0.0000   0.0000
    785    0.000000000023683    0.0    0.00     -17.144541070098     -17.144541070098     -17.144541070098     -17.144541070074   0.0000   0.0000   0.0000   0.0000
    786    0.000000000022910    0.0    0.00     -17.144541072766     -17.144541072766     -17.144541072766     -17.144541072743   0.0000   0.0000   0.0000   0.0000
    787    0.000000000022163    0.0    0.00     -17.144541072919     -17.144541072919     -17.144541072919     -17.144541072897   0.0000   0.0000   0.0000   0.0000
    788    0.000000000021440    0.0    0.00     -17.144541070231     -17.144541070231     -17.144541070231     -17.144541070210   0.0000   0.0000   0.0000   0.0000
    789    0.000000000020741    0.0    0.00     -17.144541072914     -17.144541072914     -17.144541072914     -17.144541072893   0.0000   0.0000   0.0000   0.0000
    790    0.000000000020064    0.0    0.00     -17.144541072986     -17.144541072986     -17.144541072986     -17.144541072966   0.0000   0.0000   0.0000   0.0000
    791    0.000000000019410    0.0    0.00     -17.144541070301     -17.144541070301     -17.144541070301     -17.144541070281   0.0000   0.0000   0.0000   0.0000
    792    0.000000000018777    0.0    0.00     -17.144541072980     -17.144541072980     -17.144541072980     -17.144541072961   0.0000   0.0000   0.0000   0.0000
    793    0.000000000018164    0.0    0.00     -17.144541072979     -17.144541072979     -17.144541072979     -17.144541072961   0.0000   0.0000   0.0000   0.0000
    794    0.000000000017572    0.0    0.00     -17.144541070313     -17.144541070313     -17.144541070313     -17.144541070295   0.0000   0.0000   0.0000   0.0000
    795    0.000000000016999    0.0    0.00     -17.144541072972     -17.144541072972     -17.144541072972     -17.144541072955   0.0000   0.0000   0.0000   0.0000
    796    0.000000000016444    0.0    0.00     -17.144541073039     -17.144541073039     -17.144541073039     -17.144541073023   0.0000   0.0000   0.0000   0.0000
    797    0.000000000015908    0.0    0.00     -17.144541070405     -17.144541070405     -17.144541070405     -17.144541070389   0.0000   0.0000   0.0000   0.0000
    798    0.000000000015389    0.0    0.00     -17.144541073030     -17.144541073030     -17.144541073030     -17.144541073015   0.0000   0.0000   0.0000   0.0000
    799    0.000000000014887    0.0    0.00     -17.144541073095     -17.144541073095     -17.144541073095     -17.144541073080   0.0000   0.0000   0.0000   0.0000

 * Physical Quantities at step:   800

   from rhoofr: total integrated electronic density
   in g-space =      8.000000   in r-space =     8.000000


                total energy =      -17.14454107051 Hartree a.u.
              kinetic energy =        7.74073 Hartree a.u.
        electrostatic energy =      -23.20976 Hartree a.u.
                         esr =        0.00133 Hartree a.u.
                       eself =       30.31961 Hartree a.u.
      pseudopotential energy =       -0.91728 Hartree a.u.
  n-l pseudopotential energy =        3.45899 Hartree a.u.
 exchange-correlation energy =       -4.20330 Hartree a.u.
           average potential =        0.00000 Hartree a.u.


     electrostatic embedding =       -0.01727 Hartree a.u.
           cavitation energy =        0.00684 Hartree a.u.
                   PV energy =       -0.00349 Hartree a.u.
   correction to one-el term =       -0.03770 Hartree a.u.

   Eigenvalues (eV), kp =   1 , spin =  1

  -24.61  -12.38   -8.81   -6.85
 
   Allocated memory (kb) =    471180
 
   CELL_PARAMETERS
   20.00000000    0.00000000    0.00000000
    0.00000000   20.00000000    0.00000000
    0.00000000    0.00000000   20.00000000

   System Density [g/cm^3] :              0.0252137250


   System Volume [A.U.^3] :           8000.0000000000


   Center of mass square displacement (a.u.):   0.000000

   ATOMIC_POSITIONS
   O       0.11790000000000E+02     0.12050000000000E+02     0.11500000000000E+02
   H       0.13450000000000E+02     0.11220000000000E+02     0.11500000000000E+02
   H       0.10560000000000E+02     0.10660000000000E+02     0.11500000000000E+02
 
   ATOMIC_VELOCITIES
   O       0.00000000000000E+00     0.00000000000000E+00     0.00000000000000E+00
   H       0.00000000000000E+00     0.00000000000000E+00     0.00000000000000E+00
   H       0.00000000000000E+00     0.00000000000000E+00     0.00000000000000E+00
 
   Forces acting on atoms (au):
   O       0.11686732363551E-02    -0.62840136675825E-02    -0.74868212884995E-06
   H      -0.53720125409491E-02     0.22293724085278E-02    -0.65683097416229E-07
   H       0.41778697655937E-02     0.41067292055100E-02    -0.66828292039329E-07
 


   Partial temperatures (for each ionic specie) 
   Species  Temp (K)   Mean Square Displacement (a.u.)
        1   0.00E+00     0.0000E+00
        2   0.00E+00     0.0000E+00
 
  nfi     ekinc              temph  tempp     etot                 enthal               econs                econt              vnhh    xnhh0   vnhp    xnhp0
    800    0.000000000014402    0.0    0.00     -17.144541070506     -17.144541070506     -17.144541070506     -17.144541070491   0.0000   0.0000   0.0000   0.0000

   writing restart file: /home/fnattino/Programs/qe-6.1/tempdir/h2o_water_50.save
   restart file written in    0.075 sec.

    801    0.000000000013932    0.0    0.00     -17.144541073086     -17.144541073086     -17.144541073086     -17.144541073072   0.0000   0.0000   0.0000   0.0000
    802    0.000000000013477    0.0    0.00     -17.144541073149     -17.144541073149     -17.144541073149     -17.144541073135   0.0000   0.0000   0.0000   0.0000
    803    0.000000000013037    0.0    0.00     -17.144541070611     -17.144541070611     -17.144541070611     -17.144541070598   0.0000   0.0000   0.0000   0.0000
    804    0.000000000012612    0.0    0.00     -17.144541073138     -17.144541073138     -17.144541073138     -17.144541073126   0.0000   0.0000   0.0000   0.0000
    805    0.000000000012200    0.0    0.00     -17.144541073198     -17.144541073198     -17.144541073198     -17.144541073186   0.0000   0.0000   0.0000   0.0000
    806    0.000000000011802    0.0    0.00     -17.144541070721     -17.144541070721     -17.144541070721     -17.144541070709   0.0000   0.0000   0.0000   0.0000
    807    0.000000000011417    0.0    0.00     -17.144541073188     -17.144541073188     -17.144541073188     -17.144541073176   0.0000   0.0000   0.0000   0.0000
    808    0.000000000011045    0.0    0.00     -17.144541073246     -17.144541073246     -17.144541073246     -17.144541073235   0.0000   0.0000   0.0000   0.0000
    809    0.000000000010684    0.0    0.00     -17.144541070833     -17.144541070833     -17.144541070833     -17.144541070822   0.0000   0.0000   0.0000   0.0000
    810    0.000000000010336    0.0    0.00     -17.144541073235     -17.144541073235     -17.144541073235     -17.144541073224   0.0000   0.0000   0.0000   0.0000
    811    0.000000000009998    0.0    0.00     -17.144541073290     -17.144541073290     -17.144541073290     -17.144541073280   0.0000   0.0000   0.0000   0.0000

   MAIN:          EKINC   (thr)          DETOT   (thr)       MAXFORCE   (thr)
   MAIN:   0.999826D-11  0.1D-10  0.558984D-10  0.1D-08  0.000000D+00  0.1D+11
   MAIN: convergence achieved for system relaxation

 * Physical Quantities at step:   812


                total energy =      -17.14454107095 Hartree a.u.
              kinetic energy =        7.74073 Hartree a.u.
        electrostatic energy =      -23.20976 Hartree a.u.
                         esr =        0.00133 Hartree a.u.
                       eself =       30.31961 Hartree a.u.
      pseudopotential energy =       -0.91728 Hartree a.u.
  n-l pseudopotential energy =        3.45899 Hartree a.u.
 exchange-correlation energy =       -4.20330 Hartree a.u.
           average potential =        0.00000 Hartree a.u.


     electrostatic embedding =       -0.01727 Hartree a.u.
           cavitation energy =        0.00684 Hartree a.u.
                   PV energy =       -0.00349 Hartree a.u.
   correction to one-el term =       -0.03770 Hartree a.u.

   Eigenvalues (eV), kp =   1 , spin =  1

  -24.61  -12.38   -8.81   -6.85
 
   Allocated memory (kb) =    471180
 
   CELL_PARAMETERS
   20.00000000    0.00000000    0.00000000
    0.00000000   20.00000000    0.00000000
    0.00000000    0.00000000   20.00000000

   System Density [g/cm^3] :              0.0252137250


   System Volume [A.U.^3] :           8000.0000000000


   Center of mass square displacement (a.u.):   0.000000

   ATOMIC_POSITIONS
   O       0.11790000000000E+02     0.12050000000000E+02     0.11500000000000E+02
   H       0.13450000000000E+02     0.11220000000000E+02     0.11500000000000E+02
   H       0.10560000000000E+02     0.10660000000000E+02     0.11500000000000E+02
 
   ATOMIC_VELOCITIES
   O       0.00000000000000E+00     0.00000000000000E+00     0.00000000000000E+00
   H       0.00000000000000E+00     0.00000000000000E+00     0.00000000000000E+00
   H       0.00000000000000E+00     0.00000000000000E+00     0.00000000000000E+00
 
   Forces acting on atoms (au):
   O       0.11685058765330E-02    -0.62831991205957E-02    -0.71276797141215E-06
   H      -0.53722238822623E-02     0.22295467280743E-02    -0.61840378865784E-07
   H       0.41779964875533E-02     0.41069674813667E-02    -0.62440117267116E-07
 


   Partial temperatures (for each ionic specie) 
   Species  Temp (K)   Mean Square Displacement (a.u.)
        1   0.00E+00     0.0000E+00
        2   0.00E+00     0.0000E+00
    812    0.000000000009672    0.0    0.00     -17.144541070947     -17.144541070947     -17.144541070947     -17.144541070937   0.0000   0.0000   0.0000   0.0000

   writing restart file: /home/fnattino/Programs/qe-6.1/tempdir/h2o_water_50.save
   restart file written in    0.075 sec.



   Averaged Physical Quantities
                      accumulated      this run
   ekinc         :        0.15309       0.15309 (AU)
   ekin          :        7.54164       7.54164 (AU)
   epot          :      -26.99751     -26.99751 (AU)
   total energy  :      -16.15060     -16.15060 (AU)
   temperature   :        0.00000       0.00000 (K )
   enthalpy      :      -16.15060     -16.15060 (AU)
   econs         :      -16.15060     -16.15060 (AU)
   pressure      :        0.00000       0.00000 (Gpa)
   volume        :     8000.00000    8000.00000 (AU)



     Called by MAIN_LOOP:
     initialize   :      3.68s CPU      3.82s WALL (       1 calls)
     main_loop    :   2459.00s CPU   2651.81s WALL (     812 calls)
     cpr_total    :   2459.61s CPU   2652.50s WALL (       1 calls)

     Called by INIT_RUN:

     Called by CPR:
     cpr_md       :   2459.61s CPU   2652.50s WALL (     812 calls)
     move_electro :   2291.88s CPU   2484.18s WALL (     812 calls)

     Called by move_electrons:
     rhoofr       :     58.17s CPU     64.10s WALL (     813 calls)
     vofrho       :   2211.74s CPU   2396.32s WALL (     813 calls)
     dforce       :      9.03s CPU     10.37s WALL (    1626 calls)
     calphi       :      0.26s CPU      0.24s WALL (     813 calls)
     newd         :     12.03s CPU     12.41s WALL (     813 calls)
     nlfl         :      0.00s CPU      0.01s WALL (     813 calls)

     Called by ortho:
     ortho_iter   :      0.00s CPU      0.01s WALL (     813 calls)
     rsg          :      0.06s CPU      0.06s WALL (     813 calls)
     rhoset       :      0.08s CPU      0.06s WALL (     813 calls)
     sigset       :      0.06s CPU      0.04s WALL (     813 calls)
     tauset       :      0.06s CPU      0.04s WALL (     813 calls)
     ortho        :      0.96s CPU      0.96s WALL (     813 calls)
     updatc       :      0.06s CPU      0.09s WALL (     813 calls)

     Small boxes:
     rhov         :     23.10s CPU     26.18s WALL (     813 calls)
     fftb         :      8.63s CPU      9.20s WALL (   43904 calls)

     Low-level routines:
     prefor       :      0.25s CPU      0.24s WALL (     813 calls)
     nlfq         :      1.22s CPU      1.23s WALL (     813 calls)
     nlsm1        :      0.68s CPU      0.74s WALL (    2440 calls)
     nlsm2        :      1.22s CPU      1.23s WALL (     813 calls)
     fft          :    997.98s CPU   1054.09s WALL (   47517 calls)
     ffts         :      5.28s CPU      5.28s WALL (    1626 calls)
     fft_scatter  :    256.98s CPU    285.95s WALL (   52395 calls)
     betagx       :      0.78s CPU      0.78s WALL (       1 calls)
     qradx        :      0.56s CPU      0.57s WALL (       1 calls)
     gram         :      0.00s CPU      0.00s WALL (       1 calls)
     nlinit       :      1.43s CPU      1.44s WALL (       1 calls)
     init_dim     :      0.11s CPU      0.12s WALL (       1 calls)
     newnlinit    :      0.00s CPU      0.00s WALL (       1 calls)
     from_scratch :      2.10s CPU      2.19s WALL (       1 calls)
     strucf       :      0.00s CPU      0.00s WALL (       1 calls)
     calbec       :      0.00s CPU      0.00s WALL (     814 calls)
     ALLTOALL     :      0.48s CPU      0.56s WALL (    4878 calls)
 
     Environ routines
     calc_eelect  :      2.31s CPU      2.31s WALL (    1626 calls)
     calc_velect  :   1050.89s CPU   1171.77s WALL (    1024 calls)
     dielectric   :     42.15s CPU     42.15s WALL (     814 calls)
     calc_felect  :     30.38s CPU     34.34s WALL (     813 calls)
 
 
     CP           : 41m 3.36s CPU    44m16.38s WALL

 
   This run was terminated on:  23:58: 9  29Jan2018            

=------------------------------------------------------------------------------=
   JOB DONE.
=------------------------------------------------------------------------------=
