
     Program PWSCF v.7.0 starts on  2May2022 at 20:22:13 

     This program is part of the open-source Quantum ESPRESSO suite
     for quantum simulation of materials; please cite
         "P. Giannozzi et al., J. Phys.:Condens. Matter 21 395502 (2009);
         "P. Giannozzi et al., J. Phys.:Condens. Matter 29 465901 (2017);
         "P. Giannozzi et al., J. Chem. Phys. 152 154105 (2020);
          URL http://www.quantum-espresso.org", 
     in publications or presentations arising from this work. More details at
     http://www.quantum-espresso.org/quote

     Parallel version (MPI), running on     1 processors

     MPI processes distributed on     1 nodes
     19437 MiB available memory on the printing compute node when the environment starts

     Waiting for input...
     Reading input from standard input

     Current dimensions of program PWSCF are:
     Max number of different atomic species (ntypx) = 10
     Max number of k-points (npk) =  40000
     Max angular momentum in pseudopotentials (lmaxx) =  4

     Reading input from environ.in:
     * setting up vacuum environment
     * using electronic solvent mode
     * setting boundary derivatives method to SCCS default
     
     file H.pbe-rrkjus.UPF: wavefunction(s)  1S renormalized
     file O.pbe-rrkjus.UPF: wavefunction(s)  2S renormalized

     Subspace diagonalization in iterative solution of the eigenvalue problem:
     a serial algorithm will be used


     G-vector sticks info
     --------------------
     sticks:   dense  smooth     PW     G-vecs:    dense   smooth      PW
     Sum        9549    3809    949               701475   177509   22119

     Using Slab Decomposition



     bravais-lattice index     =            1
     lattice parameter (alat)  =      20.0000  a.u.
     unit-cell volume          =    8000.0000 (a.u.)^3
     number of atoms/cell      =            3
     number of atomic types    =            2
     number of electrons       =         8.00
     number of Kohn-Sham states=            4
     kinetic-energy cutoff     =      30.0000  Ry
     charge density cutoff     =     300.0000  Ry
     scf convergence threshold =      5.0E-09
     mixing beta               =       0.4000
     number of iterations used =            8  plain     mixing
     energy convergence thresh.=      1.0E-04
     force convergence thresh. =      1.0E-03
     Exchange-correlation= SLA  PW   PBE  PBE
                           (   1   4   3   4   0   0   0)
     nstep                     =           50


     ================================================================================

                                  Environ Setup Summary

     ================================================================================

     Please cite

          O. Andreussi, I. Dabo and N. Marzari, J. Chem. Phys. 136, 064102 (2012)

     in publications or presentations arising from this work.

     ================================================================================

     Parameters
     ==========

     compensation onset threshold      =               0.1000E+00

     Electrostatic Setup
     ===================

     electrostatic problem to solve    =                  poisson
     numerical solver adopted          =                   direct
     type of auxiliary density adopted =                     none
     numerical core for poisson        =                      fft
     type of pbc corrections           =                parabolic
     numerical core for corrections    =                      1da

     ================================================================================


     celldm(1)=  20.000000  celldm(2)=   0.000000  celldm(3)=   0.000000
     celldm(4)=   0.000000  celldm(5)=   0.000000  celldm(6)=   0.000000

     crystal axes: (cart. coord. in units of alat)
               a(1) = (   1.000000   0.000000   0.000000 )  
               a(2) = (   0.000000   1.000000   0.000000 )  
               a(3) = (   0.000000   0.000000   1.000000 )  

     reciprocal axes: (cart. coord. in units 2 pi/alat)
               b(1) = (  1.000000  0.000000  0.000000 )  
               b(2) = (  0.000000  1.000000  0.000000 )  
               b(3) = (  0.000000  0.000000  1.000000 )  


     PseudoPot. # 1 for H  read from file:
     MD5 check sum: 2d52a7f45632fd764c17cc6affed14c8
     Pseudo is Ultrasoft, Zval =  1.0
     Generated by new atomic code, or converted to UPF format
     Using radial grid of 1061 points,  2 beta functions with: 
                l(1) =   0
                l(2) =   0
     Q(r) pseudized with 0 coefficients 


     PseudoPot. # 2 for O  read from file:
     MD5 check sum: fadcf19ee70a498d3030e2e79cf929a4
     Pseudo is Ultrasoft, Zval =  6.0
     Generated by new atomic code, or converted to UPF format
     Using radial grid of 1269 points,  4 beta functions with: 
                l(1) =   0
                l(2) =   0
                l(3) =   1
                l(4) =   1
     Q(r) pseudized with 0 coefficients 


     atomic species   valence    mass     pseudopotential
        H              1.00     1.00000     H ( 1.00)
        O              6.00    16.00000     O ( 1.00)

     No symmetry found


                                    s                        frac. trans.

      isym =  1     identity                                     

 cryst.   s( 1) = (     1          0          0      )
                  (     0          1          0      )
                  (     0          0          1      )

 cart.    s( 1) = (  1.0000000  0.0000000  0.0000000 )
                  (  0.0000000  1.0000000  0.0000000 )
                  (  0.0000000  0.0000000  1.0000000 )


     point group C_1 (1)    
     there are  1 classes
     the character table:

       E    
A      1.00

     the symmetry operations in each class and the name of the first element:

     E        1
          identity                                               

   Cartesian axes

     site n.     atom                  positions (alat units)
         1           O   tau(   1) = (   0.5895000   0.6025000   0.5750000  )
         2           H   tau(   2) = (   0.6725000   0.5610000   0.5750000  )
         3           H   tau(   3) = (   0.5280000   0.5330000   0.5750000  )

   Crystallographic axes

     site n.     atom                  positions (cryst. coord.)
         1           O   tau(   1) = (  0.5895000  0.6025000  0.5750000  )
         2           H   tau(   2) = (  0.6725000  0.5610000  0.5750000  )
         3           H   tau(   3) = (  0.5280000  0.5330000  0.5750000  )

     number of k points=     1
                       cart. coord. in units 2pi/alat
        k(    1) = (   0.0000000   0.0000000   0.0000000), wk =   2.0000000

                       cryst. coord.
        k(    1) = (   0.0000000   0.0000000   0.0000000), wk =   2.0000000

     Dense  grid:   701475 G-vectors     FFT dimensions: ( 120, 120, 120)

     Smooth grid:   177509 G-vectors     FFT dimensions: (  72,  72,  72)

     Dynamical RAM for                 wfc:       1.35 MB

     Dynamical RAM for     wfc (w. buffer):       1.35 MB

     Dynamical RAM for           str. fact:      21.41 MB

     Dynamical RAM for           local pot:       0.00 MB

     Dynamical RAM for          nlocal pot:       4.06 MB

     Dynamical RAM for                qrad:       0.79 MB

     Dynamical RAM for          rho,v,vnew:      71.66 MB

     Dynamical RAM for               rhoin:      23.89 MB

     Dynamical RAM for            rho*nmix:     171.26 MB

     Dynamical RAM for           G-vectors:      41.49 MB

     Dynamical RAM for          h,s,v(r/c):       0.00 MB

     Dynamical RAM for          <psi|beta>:       0.00 MB

     Dynamical RAM for      wfcinit/wfcrot:       4.07 MB

     Dynamical RAM for           addusdens:     481.66 MB

     Dynamical RAM for          addusforce:     508.43 MB

     Estimated static dynamical RAM per process >     262.69 MB

     Estimated max dynamical RAM per process >     942.38 MB

     Initial potential from superposition of free atoms

     starting charge       7.8076, renormalised to       8.0000

     negative rho (up, down):  7.936E-04 0.000E+00
     Starting wfcs are    6 randomized atomic wfcs

     total cpu time spent up to now is        3.4 secs

     Self-consistent Calculation

     iteration #  1     ecut=    30.00 Ry     beta= 0.40
     CG style diagonalization

---- Real-time Memory Report at c_bands before calling an iterative solver
          1038 MiB given to the printing process from OS
             0 MiB allocation reported by mallinfo(arena+hblkhd)
         18483 MiB available memory on the node where the printing process lives
------------------
     ethr =  1.00E-02,  avg # of iterations =  3.0

     negative rho (up, down):  4.640E-04 0.000E+00

     total cpu time spent up to now is        5.8 secs

     total energy              =     -34.21986745 Ry
     estimated scf accuracy    <       0.67783981 Ry
     electrostatic embedding   =       0.00000000 Ry
     correction to one-el term =      -0.00000000 Ry

     iteration #  2     ecut=    30.00 Ry     beta= 0.40
     CG style diagonalization

---- Real-time Memory Report at c_bands before calling an iterative solver
          1097 MiB given to the printing process from OS
             0 MiB allocation reported by mallinfo(arena+hblkhd)
         18858 MiB available memory on the node where the printing process lives
------------------
     ethr =  8.47E-03,  avg # of iterations =  3.8

     negative rho (up, down):  2.931E-04 0.000E+00

     add environment contribution to local potential

     total cpu time spent up to now is        8.3 secs

     total energy              =     -34.27778002 Ry
     estimated scf accuracy    <       0.09826032 Ry
     electrostatic embedding   =       0.00000000 Ry
     correction to one-el term =      -0.00000000 Ry

     iteration #  3     ecut=    30.00 Ry     beta= 0.40
     CG style diagonalization

---- Real-time Memory Report at c_bands before calling an iterative solver
          1119 MiB given to the printing process from OS
             0 MiB allocation reported by mallinfo(arena+hblkhd)
         18852 MiB available memory on the node where the printing process lives
------------------
     ethr =  1.23E-03,  avg # of iterations =  3.0

     negative rho (up, down):  1.275E-03 0.000E+00

     add environment contribution to local potential

     total cpu time spent up to now is       10.6 secs

     total energy              =     -34.26475968 Ry
     estimated scf accuracy    <       0.02877340 Ry
     electrostatic embedding   =       0.00015673 Ry
     correction to one-el term =       0.09307040 Ry

     iteration #  4     ecut=    30.00 Ry     beta= 0.40
     CG style diagonalization

---- Real-time Memory Report at c_bands before calling an iterative solver
          1125 MiB given to the printing process from OS
             0 MiB allocation reported by mallinfo(arena+hblkhd)
         18844 MiB available memory on the node where the printing process lives
------------------
     ethr =  3.60E-04,  avg # of iterations =  3.2

     negative rho (up, down):  5.527E-04 0.000E+00

     add environment contribution to local potential

     total cpu time spent up to now is       12.9 secs

     total energy              =     -34.26761353 Ry
     estimated scf accuracy    <       0.00097631 Ry
     electrostatic embedding   =       0.00021930 Ry
     correction to one-el term =       0.04945200 Ry

     iteration #  5     ecut=    30.00 Ry     beta= 0.40
     CG style diagonalization

---- Real-time Memory Report at c_bands before calling an iterative solver
          1130 MiB given to the printing process from OS
             0 MiB allocation reported by mallinfo(arena+hblkhd)
         18842 MiB available memory on the node where the printing process lives
------------------
     ethr =  1.22E-05,  avg # of iterations =  4.2

     negative rho (up, down):  7.557E-04 0.000E+00

     add environment contribution to local potential

     total cpu time spent up to now is       15.1 secs

     total energy              =     -34.26801111 Ry
     estimated scf accuracy    <       0.00026117 Ry
     electrostatic embedding   =       0.00025079 Ry
     correction to one-el term =       0.05058699 Ry

     iteration #  6     ecut=    30.00 Ry     beta= 0.40
     CG style diagonalization

---- Real-time Memory Report at c_bands before calling an iterative solver
          1135 MiB given to the printing process from OS
             0 MiB allocation reported by mallinfo(arena+hblkhd)
         18836 MiB available memory on the node where the printing process lives
------------------
     ethr =  3.26E-06,  avg # of iterations =  4.0

     negative rho (up, down):  4.488E-04 0.000E+00

     add environment contribution to local potential

     total cpu time spent up to now is       17.4 secs

     total energy              =     -34.26804411 Ry
     estimated scf accuracy    <       0.00003183 Ry
     electrostatic embedding   =       0.00027232 Ry
     correction to one-el term =       0.04628018 Ry

     iteration #  7     ecut=    30.00 Ry     beta= 0.40
     CG style diagonalization

---- Real-time Memory Report at c_bands before calling an iterative solver
          1141 MiB given to the printing process from OS
             0 MiB allocation reported by mallinfo(arena+hblkhd)
         18830 MiB available memory on the node where the printing process lives
------------------
     ethr =  3.98E-07,  avg # of iterations =  4.0

     negative rho (up, down):  3.066E-04 0.000E+00

     add environment contribution to local potential

     total cpu time spent up to now is       19.7 secs

     total energy              =     -34.26804647 Ry
     estimated scf accuracy    <       0.00000793 Ry
     electrostatic embedding   =       0.00027232 Ry
     correction to one-el term =       0.04623855 Ry

     iteration #  8     ecut=    30.00 Ry     beta= 0.40
     CG style diagonalization

---- Real-time Memory Report at c_bands before calling an iterative solver
          1146 MiB given to the printing process from OS
             0 MiB allocation reported by mallinfo(arena+hblkhd)
         18820 MiB available memory on the node where the printing process lives
------------------
     ethr =  9.92E-08,  avg # of iterations =  3.8

     negative rho (up, down):  2.381E-04 0.000E+00

     add environment contribution to local potential

     total cpu time spent up to now is       22.0 secs

     total energy              =     -34.26804794 Ry
     estimated scf accuracy    <       0.00000074 Ry
     electrostatic embedding   =       0.00027666 Ry
     correction to one-el term =       0.04620299 Ry

     iteration #  9     ecut=    30.00 Ry     beta= 0.40
     CG style diagonalization

---- Real-time Memory Report at c_bands before calling an iterative solver
          1152 MiB given to the printing process from OS
             0 MiB allocation reported by mallinfo(arena+hblkhd)
         18815 MiB available memory on the node where the printing process lives
------------------
     ethr =  9.29E-09,  avg # of iterations =  3.2

     negative rho (up, down):  2.299E-04 0.000E+00

     add environment contribution to local potential

     total cpu time spent up to now is       24.4 secs

     total energy              =     -34.26804810 Ry
     estimated scf accuracy    <       0.00000023 Ry
     electrostatic embedding   =       0.00027626 Ry
     correction to one-el term =       0.04620084 Ry

     iteration # 10     ecut=    30.00 Ry     beta= 0.40
     CG style diagonalization

---- Real-time Memory Report at c_bands before calling an iterative solver
          1157 MiB given to the printing process from OS
             0 MiB allocation reported by mallinfo(arena+hblkhd)
         18807 MiB available memory on the node where the printing process lives
------------------
     ethr =  2.82E-09,  avg # of iterations =  3.0

     negative rho (up, down):  2.217E-04 0.000E+00

     add environment contribution to local potential

     total cpu time spent up to now is       26.6 secs

     total energy              =     -34.26804809 Ry
     estimated scf accuracy    <       0.00000007 Ry
     electrostatic embedding   =       0.00027606 Ry
     correction to one-el term =       0.04617003 Ry

     iteration # 11     ecut=    30.00 Ry     beta= 0.40
     CG style diagonalization

---- Real-time Memory Report at c_bands before calling an iterative solver
          1162 MiB given to the printing process from OS
             0 MiB allocation reported by mallinfo(arena+hblkhd)
         18810 MiB available memory on the node where the printing process lives
------------------
     ethr =  8.37E-10,  avg # of iterations =  4.0

     negative rho (up, down):  2.138E-04 0.000E+00

     the potential shift due to the Gaussian-smeared nuclei is    -0.0214 ev

     total cpu time spent up to now is       28.6 secs

     End of self-consistent calculation

          k = 0.0000 0.0000 0.0000 ( 22119 PWs)   bands (ev):

   -25.1646 -13.0391  -9.1877  -7.1794

     occupation numbers 
     1.0000   1.0000   1.0000   1.0000

     highest occupied level (ev):    -7.1794

!    total energy              =     -34.26804813 Ry
     estimated scf accuracy    <          3.3E-09 Ry

     The total energy is the sum of the following terms:
     one-electron contribution =     -63.82312311 Ry
     hartree contribution      =      33.33670256 Ry
     xc contribution           =      -8.38542009 Ry
     ewald contribution        =       4.55735774 Ry
     electrostatic embedding   =       0.00027580 Ry
     correction to one-el term =       0.04615896 Ry

     WARNING: you are using the parabolic pbc correction;
              the potential shift above must be added to 
              band and Fermi energies.

     convergence has been achieved in  11 iterations
     The dielectric solvent contribution to forces
     atom    1 type  2   force =    -0.00086741    0.00447687    0.00000001
     atom    2 type  1   force =    -0.00014457    0.00074615    0.00000000
     atom    3 type  1   force =    -0.00014457    0.00074615    0.00000000


     Forces acting on atoms (cartesian axes, Ry/au):

     atom    1 type  2   force =     0.00285227   -0.01495987    0.00000000
     atom    2 type  1   force =    -0.01380830    0.00506088   -0.00000000
     atom    3 type  1   force =     0.01095604    0.00989899   -0.00000000
     The non-local contrib.  to forces
     atom    1 type  2   force =     0.47529419   -2.45261159   -0.00000001
     atom    2 type  1   force =    -0.17603856    0.07924621   -0.00000000
     atom    3 type  1   force =     0.13367243    0.13923111   -0.00000000
     The ionic contribution  to forces
     atom    1 type  2   force =    -0.80474894    4.15284562    0.00000000
     atom    2 type  1   force =     3.32883149   -1.50955609    0.00000000
     atom    3 type  1   force =    -2.52408255   -2.64328953    0.00000000
     The local contribution  to forces
     atom    1 type  2   force =     0.33320920   -1.71967914   -0.00000002
     atom    2 type  1   force =    -3.16641738    1.43463324   -0.00000000
     atom    3 type  1   force =     2.40153558    2.51321695   -0.00000000
     The core correction contribution to forces
     atom    1 type  2   force =     0.00000000    0.00000000    0.00000000
     atom    2 type  1   force =     0.00000000    0.00000000    0.00000000
     atom    3 type  1   force =     0.00000000    0.00000000    0.00000000
     The Hubbard contrib.    to forces
     atom    1 type  2   force =     0.00000000    0.00000000    0.00000000
     atom    2 type  1   force =     0.00000000    0.00000000    0.00000000
     atom    3 type  1   force =     0.00000000    0.00000000    0.00000000
     The SCF correction term to forces
     atom    1 type  2   force =    -0.00000408    0.00002210    0.00000003
     atom    2 type  1   force =    -0.00000859    0.00000511   -0.00000000
     atom    3 type  1   force =     0.00000583    0.00000806   -0.00000000

     Total force =     0.025812     Total SCF correction =     0.000027

     BFGS Geometry Optimization
     Energy error            =      0.0E+00 Ry
     Gradient error          =      1.5E-02 Ry/Bohr

     number of scf cycles    =   1
     number of bfgs steps    =   0

     energy             new  =     -34.2680481319 Ry

     new trust radius        =       0.0152293512 bohr
     new conv_thr            =       0.0000000050 Ry


ATOMIC_POSITIONS (bohr)
O            11.7928522673       12.0350401301       11.5000000019
H            13.4361916963       11.2250608790       11.4999999995
H            10.5709560363       10.6698989910       11.4999999986



     NEW-OLD atomic charge density approx. for the potential

     negative rho (up, down):  8.708E-04 0.000E+00

     add environment contribution to local potential

     total cpu time spent up to now is       32.5 secs

     Self-consistent Calculation

     iteration #  1     ecut=    30.00 Ry     beta= 0.40
     CG style diagonalization

---- Real-time Memory Report at c_bands before calling an iterative solver
          1162 MiB given to the printing process from OS
             0 MiB allocation reported by mallinfo(arena+hblkhd)
         18865 MiB available memory on the node where the printing process lives
------------------
     ethr =  1.00E-06,  avg # of iterations =  4.8

     negative rho (up, down):  5.666E-04 0.000E+00

     add environment contribution to local potential

     total cpu time spent up to now is       34.9 secs

     total energy              =     -34.26801008 Ry
     estimated scf accuracy    <       0.00068671 Ry
     electrostatic embedding   =       0.00027408 Ry
     correction to one-el term =       0.04627340 Ry

     iteration #  2     ecut=    30.00 Ry     beta= 0.40
     CG style diagonalization

---- Real-time Memory Report at c_bands before calling an iterative solver
          1162 MiB given to the printing process from OS
             0 MiB allocation reported by mallinfo(arena+hblkhd)
         18828 MiB available memory on the node where the printing process lives
------------------
     ethr =  8.58E-06,  avg # of iterations =  4.0

     negative rho (up, down):  4.167E-04 0.000E+00

     add environment contribution to local potential

     total cpu time spent up to now is       37.2 secs

     total energy              =     -34.26814777 Ry
     estimated scf accuracy    <       0.00004300 Ry
     electrostatic embedding   =       0.00027639 Ry
     correction to one-el term =       0.04594228 Ry

     iteration #  3     ecut=    30.00 Ry     beta= 0.40
     CG style diagonalization

---- Real-time Memory Report at c_bands before calling an iterative solver
          1162 MiB given to the printing process from OS
             0 MiB allocation reported by mallinfo(arena+hblkhd)
         18820 MiB available memory on the node where the printing process lives
------------------
     ethr =  5.38E-07,  avg # of iterations =  3.8

     negative rho (up, down):  2.739E-04 0.000E+00

     add environment contribution to local potential

     total cpu time spent up to now is       39.7 secs

     total energy              =     -34.26815393 Ry
     estimated scf accuracy    <       0.00000778 Ry
     electrostatic embedding   =       0.00027381 Ry
     correction to one-el term =       0.04603137 Ry

     iteration #  4     ecut=    30.00 Ry     beta= 0.40
     CG style diagonalization

---- Real-time Memory Report at c_bands before calling an iterative solver
          1162 MiB given to the printing process from OS
             0 MiB allocation reported by mallinfo(arena+hblkhd)
         18813 MiB available memory on the node where the printing process lives
------------------
     ethr =  9.73E-08,  avg # of iterations =  3.8

     negative rho (up, down):  2.407E-04 0.000E+00

     add environment contribution to local potential

     total cpu time spent up to now is       42.1 secs

     total energy              =     -34.26815501 Ry
     estimated scf accuracy    <       0.00000038 Ry
     electrostatic embedding   =       0.00027192 Ry
     correction to one-el term =       0.04605717 Ry

     iteration #  5     ecut=    30.00 Ry     beta= 0.40
     CG style diagonalization

---- Real-time Memory Report at c_bands before calling an iterative solver
          1162 MiB given to the printing process from OS
             0 MiB allocation reported by mallinfo(arena+hblkhd)
         18807 MiB available memory on the node where the printing process lives
------------------
     ethr =  4.75E-09,  avg # of iterations =  3.5

     negative rho (up, down):  2.240E-04 0.000E+00

     add environment contribution to local potential

     total cpu time spent up to now is       44.5 secs

     total energy              =     -34.26815506 Ry
     estimated scf accuracy    <       0.00000006 Ry
     electrostatic embedding   =       0.00027206 Ry
     correction to one-el term =       0.04607332 Ry

     iteration #  6     ecut=    30.00 Ry     beta= 0.40
     CG style diagonalization

---- Real-time Memory Report at c_bands before calling an iterative solver
          1162 MiB given to the printing process from OS
             0 MiB allocation reported by mallinfo(arena+hblkhd)
         18805 MiB available memory on the node where the printing process lives
------------------
     ethr =  7.72E-10,  avg # of iterations =  3.8

     negative rho (up, down):  2.183E-04 0.000E+00

     add environment contribution to local potential

     total cpu time spent up to now is       46.9 secs

     total energy              =     -34.26815508 Ry
     estimated scf accuracy    <       0.00000001 Ry
     electrostatic embedding   =       0.00027213 Ry
     correction to one-el term =       0.04608556 Ry

     iteration #  7     ecut=    30.00 Ry     beta= 0.40
     CG style diagonalization

---- Real-time Memory Report at c_bands before calling an iterative solver
          1162 MiB given to the printing process from OS
             0 MiB allocation reported by mallinfo(arena+hblkhd)
         18795 MiB available memory on the node where the printing process lives
------------------
     ethr =  1.75E-10,  avg # of iterations =  3.8

     negative rho (up, down):  2.154E-04 0.000E+00

     the potential shift due to the Gaussian-smeared nuclei is    -0.0214 ev

     total cpu time spent up to now is       49.1 secs

     End of self-consistent calculation

          k = 0.0000 0.0000 0.0000 ( 22119 PWs)   bands (ev):

   -25.2926 -13.1881  -9.1735  -7.2049

     occupation numbers 
     1.0000   1.0000   1.0000   1.0000

     highest occupied level (ev):    -7.2049

!    total energy              =     -34.26815511 Ry
     estimated scf accuracy    <          4.5E-10 Ry

     The total energy is the sum of the following terms:
     one-electron contribution =     -64.11261402 Ry
     hartree contribution      =      33.47553960 Ry
     xc contribution           =      -8.40866063 Ry
     ewald contribution        =       4.73122292 Ry
     electrostatic embedding   =       0.00027218 Ry
     correction to one-el term =       0.04608483 Ry

     WARNING: you are using the parabolic pbc correction;
              the potential shift above must be added to 
              band and Fermi energies.

     convergence has been achieved in   7 iterations
     The dielectric solvent contribution to forces
     atom    1 type  2   force =    -0.00086185    0.00444737    0.00000001
     atom    2 type  1   force =    -0.00014364    0.00074123    0.00000000
     atom    3 type  1   force =    -0.00014364    0.00074123    0.00000000


     Forces acting on atoms (cartesian axes, Ry/au):

     atom    1 type  2   force =    -0.00250819    0.01358254   -0.00000000
     atom    2 type  1   force =     0.00723569   -0.00560967    0.00000000
     atom    3 type  1   force =    -0.00472750   -0.00797287    0.00000000
     The non-local contrib.  to forces
     atom    1 type  2   force =     0.47469880   -2.44869723   -0.00000002
     atom    2 type  1   force =    -0.18373128    0.08144624    0.00000000
     atom    3 type  1   force =     0.14001144    0.14417956    0.00000000
     The ionic contribution  to forces
     atom    1 type  2   force =    -0.81952173    4.23080535    0.00000001
     atom    2 type  1   force =     3.42354685   -1.53142350   -0.00000000
     atom    3 type  1   force =    -2.60402511   -2.69938185   -0.00000001
     The local contribution  to forces
     atom    1 type  2   force =     0.34325264   -1.77302617   -0.00000001
     atom    2 type  1   force =    -3.23237035    1.44363139    0.00000000
     atom    3 type  1   force =     2.45949342    2.54649302    0.00000000
     The core correction contribution to forces
     atom    1 type  2   force =     0.00000000    0.00000000    0.00000000
     atom    2 type  1   force =     0.00000000    0.00000000    0.00000000
     atom    3 type  1   force =     0.00000000    0.00000000    0.00000000
     The Hubbard contrib.    to forces
     atom    1 type  2   force =     0.00000000    0.00000000    0.00000000
     atom    2 type  1   force =     0.00000000    0.00000000    0.00000000
     atom    3 type  1   force =     0.00000000    0.00000000    0.00000000
     The SCF correction term to forces
     atom    1 type  2   force =    -0.00001163    0.00006107   -0.00000000
     atom    2 type  1   force =    -0.00000148    0.00000282   -0.00000000
     atom    3 type  1   force =     0.00000081    0.00000302   -0.00000000

     Total force =     0.018987     Total SCF correction =     0.000062
     Energy error            =      1.1E-04 Ry
     Gradient error          =      1.4E-02 Ry/Bohr

     number of scf cycles    =   2
     number of bfgs steps    =   1

     energy             old  =     -34.2680481319 Ry
     energy             new  =     -34.2681551090 Ry

     CASE: energy            _new < energy            _old

     new trust radius        =       0.0078685380 bohr
     new conv_thr            =            5.3E-11 Ry


ATOMIC_POSITIONS (bohr)
O            11.7914247379       12.0427780917       11.5000000011
H            13.4402238318       11.2218478233       11.4999999999
H            10.5683514303       10.6653740850       11.4999999990



     NEW-OLD atomic charge density approx. for the potential

     negative rho (up, down):  2.770E-04 0.000E+00

     add environment contribution to local potential

     total cpu time spent up to now is       53.2 secs

     Self-consistent Calculation

     iteration #  1     ecut=    30.00 Ry     beta= 0.40
     CG style diagonalization

---- Real-time Memory Report at c_bands before calling an iterative solver
          1162 MiB given to the printing process from OS
             0 MiB allocation reported by mallinfo(arena+hblkhd)
         18863 MiB available memory on the node where the printing process lives
------------------
     ethr =  1.00E-06,  avg # of iterations =  4.2

     negative rho (up, down):  2.338E-04 0.000E+00

     add environment contribution to local potential

     total cpu time spent up to now is       55.4 secs

     total energy              =     -34.26823132 Ry
     estimated scf accuracy    <       0.00011643 Ry
     electrostatic embedding   =       0.00027298 Ry
     correction to one-el term =       0.04603698 Ry

     iteration #  2     ecut=    30.00 Ry     beta= 0.40
     CG style diagonalization

---- Real-time Memory Report at c_bands before calling an iterative solver
          1162 MiB given to the printing process from OS
             0 MiB allocation reported by mallinfo(arena+hblkhd)
         18826 MiB available memory on the node where the printing process lives
------------------
     ethr =  1.46E-06,  avg # of iterations =  4.0

     negative rho (up, down):  2.173E-04 0.000E+00

     add environment contribution to local potential

     total cpu time spent up to now is       57.7 secs

     total energy              =     -34.26825610 Ry
     estimated scf accuracy    <       0.00000850 Ry
     electrostatic embedding   =       0.00027225 Ry
     correction to one-el term =       0.04617842 Ry

     iteration #  3     ecut=    30.00 Ry     beta= 0.40
     CG style diagonalization

---- Real-time Memory Report at c_bands before calling an iterative solver
          1162 MiB given to the printing process from OS
             0 MiB allocation reported by mallinfo(arena+hblkhd)
         18819 MiB available memory on the node where the printing process lives
------------------
     ethr =  1.06E-07,  avg # of iterations =  4.0

     negative rho (up, down):  2.173E-04 0.000E+00

     add environment contribution to local potential

     total cpu time spent up to now is       60.0 secs

     total energy              =     -34.26825761 Ry
     estimated scf accuracy    <       0.00000141 Ry
     electrostatic embedding   =       0.00027351 Ry
     correction to one-el term =       0.04614034 Ry

     iteration #  4     ecut=    30.00 Ry     beta= 0.40
     CG style diagonalization

---- Real-time Memory Report at c_bands before calling an iterative solver
          1162 MiB given to the printing process from OS
             0 MiB allocation reported by mallinfo(arena+hblkhd)
         18811 MiB available memory on the node where the printing process lives
------------------
     ethr =  1.76E-08,  avg # of iterations =  4.0

     negative rho (up, down):  2.144E-04 0.000E+00

     add environment contribution to local potential

     total cpu time spent up to now is       62.3 secs

     total energy              =     -34.26825782 Ry
     estimated scf accuracy    <       0.00000009 Ry
     electrostatic embedding   =       0.00027458 Ry
     correction to one-el term =       0.04613197 Ry

     iteration #  5     ecut=    30.00 Ry     beta= 0.40
     CG style diagonalization

---- Real-time Memory Report at c_bands before calling an iterative solver
          1162 MiB given to the printing process from OS
             0 MiB allocation reported by mallinfo(arena+hblkhd)
         18804 MiB available memory on the node where the printing process lives
------------------
     ethr =  1.19E-09,  avg # of iterations =  3.2

     negative rho (up, down):  2.163E-04 0.000E+00

     add environment contribution to local potential

     total cpu time spent up to now is       64.6 secs

     total energy              =     -34.26825784 Ry
     estimated scf accuracy    <       0.00000001 Ry
     electrostatic embedding   =       0.00027450 Ry
     correction to one-el term =       0.04612593 Ry

     iteration #  6     ecut=    30.00 Ry     beta= 0.40
     CG style diagonalization

---- Real-time Memory Report at c_bands before calling an iterative solver
          1162 MiB given to the printing process from OS
             0 MiB allocation reported by mallinfo(arena+hblkhd)
         18801 MiB available memory on the node where the printing process lives
------------------
     ethr =  1.46E-10,  avg # of iterations =  4.0

     negative rho (up, down):  2.154E-04 0.000E+00

     add environment contribution to local potential

     total cpu time spent up to now is       67.1 secs

     total energy              =     -34.26825783 Ry
     estimated scf accuracy    <          3.3E-09 Ry
     electrostatic embedding   =       0.00027451 Ry
     correction to one-el term =       0.04612097 Ry

     iteration #  7     ecut=    30.00 Ry     beta= 0.40
     CG style diagonalization

---- Real-time Memory Report at c_bands before calling an iterative solver
          1162 MiB given to the printing process from OS
             0 MiB allocation reported by mallinfo(arena+hblkhd)
         18793 MiB available memory on the node where the printing process lives
------------------
     ethr =  4.12E-11,  avg # of iterations =  3.8

     negative rho (up, down):  2.148E-04 0.000E+00

     the potential shift due to the Gaussian-smeared nuclei is    -0.0214 ev

     total cpu time spent up to now is       69.2 secs

     End of self-consistent calculation

          k = 0.0000 0.0000 0.0000 ( 22119 PWs)   bands (ev):

   -25.2433 -13.1175  -9.1887  -7.1954

     occupation numbers 
     1.0000   1.0000   1.0000   1.0000

     highest occupied level (ev):    -7.1954

!    total energy              =     -34.26825783 Ry
     estimated scf accuracy    <          5.0E-11 Ry

     The total energy is the sum of the following terms:
     one-electron contribution =     -63.99378759 Ry
     hartree contribution      =      33.41834585 Ry
     xc contribution           =      -8.39908166 Ry
     ewald contribution        =       4.65986947 Ry
     electrostatic embedding   =       0.00027448 Ry
     correction to one-el term =       0.04612162 Ry

     WARNING: you are using the parabolic pbc correction;
              the potential shift above must be added to 
              band and Fermi energies.

     convergence has been achieved in   7 iterations
     The dielectric solvent contribution to forces
     atom    1 type  2   force =    -0.00086520    0.00446621    0.00000001
     atom    2 type  1   force =    -0.00014420    0.00074437    0.00000000
     atom    3 type  1   force =    -0.00014420    0.00074437    0.00000000


     Forces acting on atoms (cartesian axes, Ry/au):

     atom    1 type  2   force =    -0.00024681    0.00093843   -0.00000000
     atom    2 type  1   force =    -0.00121230   -0.00076701    0.00000000
     atom    3 type  1   force =     0.00145911   -0.00017142    0.00000000
     The non-local contrib.  to forces
     atom    1 type  2   force =     0.47544925   -2.45312631   -0.00000002
     atom    2 type  1   force =    -0.18037569    0.08090913   -0.00000000
     atom    3 type  1   force =     0.13706712    0.14237564    0.00000000
     The ionic contribution  to forces
     atom    1 type  2   force =    -0.81542245    4.20738173    0.00000001
     atom    2 type  1   force =     3.38225161   -1.52761735   -0.00000000
     atom    3 type  1   force =    -2.56682916   -2.67976438   -0.00000000
     The local contribution  to forces
     atom    1 type  2   force =     0.34063837   -1.75776594   -0.00000000
     atom    2 type  1   force =    -3.20289626    1.44520951    0.00000000
     atom    3 type  1   force =     2.43141272    2.53648537    0.00000000
     The core correction contribution to forces
     atom    1 type  2   force =     0.00000000    0.00000000    0.00000000
     atom    2 type  1   force =     0.00000000    0.00000000    0.00000000
     atom    3 type  1   force =     0.00000000    0.00000000    0.00000000
     The Hubbard contrib.    to forces
     atom    1 type  2   force =     0.00000000    0.00000000    0.00000000
     atom    2 type  1   force =     0.00000000    0.00000000    0.00000000
     atom    3 type  1   force =     0.00000000    0.00000000    0.00000000
     The SCF correction term to forces
     atom    1 type  2   force =     0.00000068   -0.00000458    0.00000000
     atom    2 type  1   force =    -0.00000031    0.00000002    0.00000000
     atom    3 type  1   force =     0.00000009    0.00000026    0.00000000

     Total force =     0.002271     Total SCF correction =     0.000005
     Energy error            =      1.0E-04 Ry
     Gradient error          =      1.5E-03 Ry/Bohr

     number of scf cycles    =   3
     number of bfgs steps    =   2

     energy             old  =     -34.2681551090 Ry
     energy             new  =     -34.2682578276 Ry

     CASE: energy            _new < energy            _old

     new trust radius        =       0.0014994750 bohr
     new conv_thr            =            5.1E-11 Ry


ATOMIC_POSITIONS (bohr)
O            11.7911412600       12.0439164139       11.4999999996
H            13.4390326867       11.2209813692       11.5000000007
H            10.5698260533       10.6651022169       11.4999999997



     NEW-OLD atomic charge density approx. for the potential

     negative rho (up, down):  2.429E-04 0.000E+00

     add environment contribution to local potential

     total cpu time spent up to now is       73.2 secs

     Self-consistent Calculation

     iteration #  1     ecut=    30.00 Ry     beta= 0.40
     CG style diagonalization

---- Real-time Memory Report at c_bands before calling an iterative solver
          1162 MiB given to the printing process from OS
             0 MiB allocation reported by mallinfo(arena+hblkhd)
         18860 MiB available memory on the node where the printing process lives
------------------
     ethr =  1.00E-06,  avg # of iterations =  2.8

     Threshold (ethr) on eigenvalues was too large:
     Diagonalizing with lowered threshold

     CG style diagonalization

---- Real-time Memory Report at c_bands before calling an iterative solver
          1162 MiB given to the printing process from OS
             0 MiB allocation reported by mallinfo(arena+hblkhd)
         18826 MiB available memory on the node where the printing process lives
------------------
     ethr =  2.53E-09,  avg # of iterations =  3.2

     negative rho (up, down):  2.286E-04 0.000E+00

     add environment contribution to local potential

     total cpu time spent up to now is       76.6 secs

     total energy              =     -34.26826238 Ry
     estimated scf accuracy    <       0.00000019 Ry
     electrostatic embedding   =       0.00027459 Ry
     correction to one-el term =       0.04612012 Ry

     iteration #  2     ecut=    30.00 Ry     beta= 0.40
     CG style diagonalization

---- Real-time Memory Report at c_bands before calling an iterative solver
          1162 MiB given to the printing process from OS
             0 MiB allocation reported by mallinfo(arena+hblkhd)
         18819 MiB available memory on the node where the printing process lives
------------------
     ethr =  2.36E-09,  avg # of iterations =  3.0

     negative rho (up, down):  2.173E-04 0.000E+00

     add environment contribution to local potential

     total cpu time spent up to now is       79.0 secs

     total energy              =     -34.26826238 Ry
     estimated scf accuracy    <       0.00000006 Ry
     electrostatic embedding   =       0.00027479 Ry
     correction to one-el term =       0.04612126 Ry

     iteration #  3     ecut=    30.00 Ry     beta= 0.40
     CG style diagonalization

---- Real-time Memory Report at c_bands before calling an iterative solver
          1162 MiB given to the printing process from OS
             0 MiB allocation reported by mallinfo(arena+hblkhd)
         18814 MiB available memory on the node where the printing process lives
------------------
     ethr =  7.22E-10,  avg # of iterations =  3.0

     negative rho (up, down):  2.157E-04 0.000E+00

     add environment contribution to local potential

     total cpu time spent up to now is       81.6 secs

     total energy              =     -34.26826238 Ry
     estimated scf accuracy    <          1.4E-09 Ry
     electrostatic embedding   =       0.00027506 Ry
     correction to one-el term =       0.04612407 Ry

     iteration #  4     ecut=    30.00 Ry     beta= 0.40
     CG style diagonalization

---- Real-time Memory Report at c_bands before calling an iterative solver
          1162 MiB given to the printing process from OS
             0 MiB allocation reported by mallinfo(arena+hblkhd)
         18806 MiB available memory on the node where the printing process lives
------------------
     ethr =  1.76E-11,  avg # of iterations =  3.8

     negative rho (up, down):  2.152E-04 0.000E+00

     add environment contribution to local potential

     total cpu time spent up to now is       83.9 secs

     total energy              =     -34.26826238 Ry
     estimated scf accuracy    <          1.2E-10 Ry
     electrostatic embedding   =       0.00027509 Ry
     correction to one-el term =       0.04612544 Ry

     iteration #  5     ecut=    30.00 Ry     beta= 0.40
     CG style diagonalization

---- Real-time Memory Report at c_bands before calling an iterative solver
          1162 MiB given to the printing process from OS
             0 MiB allocation reported by mallinfo(arena+hblkhd)
         18799 MiB available memory on the node where the printing process lives
------------------
     ethr =  1.45E-12,  avg # of iterations =  3.2

     negative rho (up, down):  2.149E-04 0.000E+00

     the potential shift due to the Gaussian-smeared nuclei is    -0.0214 ev

     total cpu time spent up to now is       86.0 secs

     End of self-consistent calculation

          k = 0.0000 0.0000 0.0000 ( 22119 PWs)   bands (ev):

   -25.2461 -13.1111  -9.1955  -7.1961

     occupation numbers 
     1.0000   1.0000   1.0000   1.0000

     highest occupied level (ev):    -7.1961

!    total energy              =     -34.26826238 Ry
     estimated scf accuracy    <          1.9E-11 Ry

     The total energy is the sum of the following terms:
     one-electron contribution =     -63.99465455 Ry
     hartree contribution      =      33.41850249 Ry
     xc contribution           =      -8.39911282 Ry
     ewald contribution        =       4.66060183 Ry
     electrostatic embedding   =       0.00027509 Ry
     correction to one-el term =       0.04612559 Ry

     WARNING: you are using the parabolic pbc correction;
              the potential shift above must be added to 
              band and Fermi energies.

     convergence has been achieved in   5 iterations
     The dielectric solvent contribution to forces
     atom    1 type  2   force =    -0.00086640    0.00447112   -0.00000001
     atom    2 type  1   force =    -0.00014440    0.00074519   -0.00000000
     atom    3 type  1   force =    -0.00014440    0.00074519   -0.00000000


     Forces acting on atoms (cartesian axes, Ry/au):

     atom    1 type  2   force =    -0.00001138    0.00055957    0.00000000
     atom    2 type  1   force =    -0.00096952   -0.00044377   -0.00000000
     atom    3 type  1   force =     0.00098090   -0.00011580   -0.00000000
     The non-local contrib.  to forces
     atom    1 type  2   force =     0.47578186   -2.45499803    0.00000001
     atom    2 type  1   force =    -0.18022658    0.08115757    0.00000000
     atom    3 type  1   force =     0.13687491    0.14260173    0.00000000
     The ionic contribution  to forces
     atom    1 type  2   force =    -0.81619943    4.21418594   -0.00000000
     atom    2 type  1   force =     3.38052385   -1.53116543    0.00000000
     atom    3 type  1   force =    -2.56432442   -2.68302051    0.00000000
     The local contribution  to forces
     atom    1 type  2   force =     0.34131794   -1.76308069    0.00000000
     atom    2 type  1   force =    -3.20107752    1.44883098   -0.00000000
     atom    3 type  1   force =     2.42861992    2.53956975    0.00000000
     The core correction contribution to forces
     atom    1 type  2   force =     0.00000000    0.00000000    0.00000000
     atom    2 type  1   force =     0.00000000    0.00000000    0.00000000
     atom    3 type  1   force =     0.00000000    0.00000000    0.00000000
     The Hubbard contrib.    to forces
     atom    1 type  2   force =     0.00000000    0.00000000    0.00000000
     atom    2 type  1   force =     0.00000000    0.00000000    0.00000000
     atom    3 type  1   force =     0.00000000    0.00000000    0.00000000
     The SCF correction term to forces
     atom    1 type  2   force =    -0.00000054   -0.00000648    0.00000000
     atom    2 type  1   force =    -0.00000006    0.00000021    0.00000000
     atom    3 type  1   force =    -0.00000029    0.00000033    0.00000000

     Total force =     0.001557     Total SCF correction =     0.000007
     Energy error            =      4.6E-06 Ry
     Gradient error          =      9.8E-04 Ry/Bohr

     bfgs converged in   4 scf cycles and   3 bfgs steps
     (criteria: energy <  1.0E-04 Ry, force <  1.0E-03 Ry/Bohr)

     End of BFGS Geometry Optimization

     Final energy             =     -34.2682623780 Ry

Begin final coordinates

ATOMIC_POSITIONS (bohr)
O            11.7911412600       12.0439164139       11.4999999996
H            13.4390326867       11.2209813692       11.5000000007
H            10.5698260533       10.6651022169       11.4999999997
End final coordinates




     init_run     :      2.99s CPU      3.34s WALL (       1 calls)
     electrons    :     59.09s CPU     70.69s WALL (       4 calls)
     update_pot   :      2.46s CPU      2.64s WALL (       3 calls)
     forces       :      4.86s CPU      5.88s WALL (       4 calls)

     Called by init_run:
     wfcinit      :      0.08s CPU      0.08s WALL (       1 calls)
     wfcinit:atom :      0.00s CPU      0.00s WALL (       1 calls)
     wfcinit:wfcr :      0.06s CPU      0.06s WALL (       1 calls)
     potinit      :      0.89s CPU      0.98s WALL (       1 calls)
     hinit0       :      1.22s CPU      1.26s WALL (       1 calls)

     Called by electrons:
     c_bands      :      5.83s CPU      6.68s WALL (      31 calls)
     sum_band     :     14.94s CPU     19.38s WALL (      31 calls)
     v_of_rho     :     19.04s CPU     20.88s WALL (      34 calls)
     v_h          :      1.19s CPU      1.23s WALL (      34 calls)
     v_xc         :     17.85s CPU     19.65s WALL (      34 calls)
     newd         :     11.04s CPU     14.79s WALL (      34 calls)
     mix_rho      :      2.43s CPU      3.01s WALL (      31 calls)

     Called by c_bands:
     init_us_2    :      0.28s CPU      0.28s WALL (      63 calls)
     init_us_2:cp :      0.28s CPU      0.28s WALL (      63 calls)
     ccgdiagg     :      4.59s CPU      5.43s WALL (      31 calls)
     wfcrot       :      1.17s CPU      1.17s WALL (      27 calls)

     Called by sum_band:
     sum_band:wei :      0.00s CPU      0.00s WALL (      31 calls)
     sum_band:loo :      0.82s CPU      0.82s WALL (      31 calls)
     sum_band:buf :      0.00s CPU      0.00s WALL (      31 calls)
     sum_band:ini :      0.14s CPU      0.14s WALL (      31 calls)
     sum_band:cal :      0.02s CPU      0.02s WALL (      31 calls)
     sum_band:bec :      0.00s CPU      0.00s WALL (      31 calls)
     addusdens    :     12.85s CPU     17.27s WALL (      31 calls)
     addusd:skk   :      0.34s CPU      0.53s WALL (      62 calls)
     addusd:dgemm :      1.28s CPU      5.00s WALL (      62 calls)
     addusd:qvan2 :      7.57s CPU      7.63s WALL (      62 calls)

     Called by *cgdiagg:
     h_psi        :      5.11s CPU      5.84s WALL (     374 calls)
     s_psi        :      0.23s CPU      0.27s WALL (     721 calls)

     Called by h_psi:
     h_psi:calbec :      0.16s CPU      0.19s WALL (     374 calls)
     vloc_psi     :      4.77s CPU      5.47s WALL (     374 calls)
     add_vuspsi   :      0.14s CPU      0.16s WALL (     374 calls)
     hs_1psi      :      4.13s CPU      4.87s WALL (     347 calls)
     s_1psi       :      0.23s CPU      0.32s WALL (     347 calls)

     General routines
     calbec       :      0.31s CPU      0.40s WALL (     768 calls)
     fft          :      9.97s CPU     10.49s WALL (     446 calls)
     ffts         :      0.28s CPU      0.30s WALL (      65 calls)
     fftw         :      4.63s CPU      5.23s WALL (    1038 calls)
     interpolate  :      1.11s CPU      1.16s WALL (      34 calls)

     Parallel routines

     Environ routines

     PWSCF        :   1m13.95s CPU   1m27.53s WALL


   This run was terminated on:  20:23:40   2May2022            

=------------------------------------------------------------------------------=
   JOB DONE.
=------------------------------------------------------------------------------=
