
     Program PWSCF v.6.1 (svn rev. 13369) starts on 19Apr2017 at 13:57:29 

     This program is part of the open-source Quantum ESPRESSO suite
     for quantum simulation of materials; please cite
         "P. Giannozzi et al., J. Phys.:Condens. Matter 21 395502 (2009);
          URL http://www.quantum-espresso.org", 
     in publications or presentations arising from this work. More details at
     http://www.quantum-espresso.org/quote

     Serial version
     Waiting for input...
     Reading input from standard input
Warning: card  &IONS ignored
Warning: card    ION_DYNAMICS    = 'BFGS' ignored
Warning: card  / ignored

     Current dimensions of program PWSCF are:
     Max number of different atomic species (ntypx) = 10
     Max number of k-points (npk) =  40000
     Max angular momentum in pseudopotentials (lmaxx) =  3
               file C.pbe-rrkjus.UPF: wavefunction(s)  2S 2P renormalized
               file O.pbe-rrkjus.UPF: wavefunction(s)  2S renormalized

     G-vector sticks info
     --------------------
     sticks:   dense  smooth     PW     G-vecs:    dense   smooth      PW
     Sum        2205    1099    269               330909   116965   14571



     bravais-lattice index     =            8
     lattice parameter (alat)  =      10.6881  a.u.
     unit-cell volume          =    4181.1215 (a.u.)^3
     number of atoms/cell      =           10
     number of atomic types    =            3
     number of electrons       =        89.00
     number of Kohn-Sham states=           80
     kinetic-energy cutoff     =      35.0000  Ry
     charge density cutoff     =     280.0000  Ry
     convergence threshold     =      5.0E-09
     mixing beta               =       0.2000
     number of iterations used =            8  plain     mixing
     Exchange-correlation      =  SLA  PW   PBE  PBE ( 1  4  3  4 0 0)


     Environ Module
     ==============

     Please cite
         "O. Andreussi, I. Dabo and N. Marzari, J. Chem. Phys. 136, 064102 (2012);"
     in publications or presentations arising from this work.

     compensation onset threshold      =               0.1000E+01 
     switching function adopted        =                     SCCS 
     density limit for vacuum region   =               0.5000E-02 
     density limit for bulk solvent    =               0.1000E-03 
     static permittivity               =                    80.00 
     epsilon calculation mode          =                     full 
     type of numerical differentiator  =            central diff. 
     number of points in num. diff.    =                        2 
     required accuracy                 =               0.5000E-12 
     linear mixing parameter           =                     0.60 
     correction slab geom. along axis  =                        3 
     number of external charged items  =                        2 


     celldm(1)=  10.688100  celldm(2)=   0.866025  celldm(3)=   3.954220
     celldm(4)=   0.000000  celldm(5)=   0.000000  celldm(6)=   0.000000

     crystal axes: (cart. coord. in units of alat)
               a(1) = (   1.000000   0.000000   0.000000 )  
               a(2) = (   0.000000   0.866025   0.000000 )  
               a(3) = (   0.000000   0.000000   3.954220 )  

     reciprocal axes: (cart. coord. in units 2 pi/alat)
               b(1) = (  1.000000  0.000000  0.000000 )  
               b(2) = (  0.000000  1.154701  0.000000 )  
               b(3) = (  0.000000  0.000000  0.252894 )  


     PseudoPot. # 1 for C  read from file:
     /Users/oliviero/PWSCF/espresso-6.1/pseudo/C.pbe-rrkjus.UPF
     MD5 check sum: 00fb224312de0c5b6853bd333518df6f
     Pseudo is Ultrasoft, Zval =  4.0
     Generated by new atomic code, or converted to UPF format
     Using radial grid of  627 points,  4 beta functions with: 
                l(1) =   0
                l(2) =   0
                l(3) =   1
                l(4) =   1
     Q(r) pseudized with 0 coefficients 


     PseudoPot. # 2 for O  read from file:
     /Users/oliviero/PWSCF/espresso-6.1/pseudo/O.pbe-rrkjus.UPF
     MD5 check sum: 390ba29e75625707450f3bd3f0eb6be9
     Pseudo is Ultrasoft, Zval =  6.0
     Generated by new atomic code, or converted to UPF format
     Using radial grid of 1269 points,  4 beta functions with: 
                l(1) =   0
                l(2) =   0
                l(3) =   1
                l(4) =   1
     Q(r) pseudized with 0 coefficients 


     PseudoPot. # 3 for Pt read from file:
     /Users/oliviero/PWSCF/espresso-6.1/pseudo/Pt.pbe-nd-rrkjus.UPF
     MD5 check sum: 1413c21c79e416b56dc03f2d0e22670c
     Pseudo is Ultrasoft + core correction, Zval = 10.0
     Generated by new atomic code, or converted to UPF format
     Using radial grid of 1547 points,  3 beta functions with: 
                l(1) =   1
                l(2) =   2
                l(3) =   2
     Q(r) pseudized with 0 coefficients 


     atomic species   valence    mass     pseudopotential
        C              4.00     1.00000     C ( 1.00)
        O              6.00     1.00000     O ( 1.00)
        Pt            10.00     1.00000     Pt( 1.00)

     No symmetry found


                                    s                        frac. trans.

      isym =  1     identity                                     

 cryst.   s( 1) = (     1          0          0      )
                  (     0          1          0      )
                  (     0          0          1      )

 cart.    s( 1) = (  1.0000000  0.0000000  0.0000000 )
                  (  0.0000000  1.0000000  0.0000000 )
                  (  0.0000000  0.0000000  1.0000000 )


     point group C_1 (1)    
     there are  1 classes
     the character table:

       E    
A      1.00

     the symmetry operations in each class and the name of the first element:

     E        1
          identity                                               

   Cartesian axes

     site n.     atom                  positions (alat units)
         1           C   tau(   1) = (   0.4991611   0.4347567   1.2070461  )
         2           O   tau(   2) = (   0.4991542   0.4322212   1.4109013  )
         3           Pt  tau(   3) = (   0.7542339   0.0091745   0.8413229  )
         4           Pt  tau(   4) = (   0.2441023   0.0091745   0.8413226  )
         5           Pt  tau(   5) = (   0.0000034   0.4416918   0.8391348  )
         6           Pt  tau(   6) = (   0.4991682   0.4417635   0.8776299  )
         7           Pt  tau(   7) = (   0.0000038   0.7300598   0.4308181  )
         8           Pt  tau(   8) = (   0.4991683   0.7202168   0.4447460  )
         9           Pt  tau(   9) = (   0.2524172   0.2949237   0.4386572  )
        10           Pt  tau(  10) = (   0.7459196   0.2949237   0.4386575  )

   Crystallographic axes

     site n.     atom                  positions (cryst. coord.)
         1           C   tau(   1) = (  0.4991611  0.5020141  0.3052552  )
         2           O   tau(   2) = (  0.4991542  0.4990863  0.3568090  )
         3           Pt  tau(   3) = (  0.7542339  0.0105938  0.2127658  )
         4           Pt  tau(   4) = (  0.2441023  0.0105938  0.2127658  )
         5           Pt  tau(   5) = (  0.0000034  0.5100220  0.2122125  )
         6           Pt  tau(   6) = (  0.4991682  0.5101048  0.2219477  )
         7           Pt  tau(   7) = (  0.0000038  0.8430008  0.1089515  )
         8           Pt  tau(   8) = (  0.4991683  0.8316351  0.1124738  )
         9           Pt  tau(   9) = (  0.2524172  0.3405487  0.1109339  )
        10           Pt  tau(  10) = (  0.7459196  0.3405488  0.1109340  )

     number of k points=     1  Marzari-Vanderbilt smearing, width (Ry)=  0.0300
                       cart. coord. in units 2pi/alat
        k(    1) = (   0.0000000   0.0000000   0.0000000), wk =   2.0000000

                       cryst. coord.
        k(    1) = (   0.0000000   0.0000000   0.0000000), wk =   2.0000000

     Dense  grid:   330909 G-vectors     FFT dimensions: (  60,  50, 225)

     Smooth grid:   116965 G-vectors     FFT dimensions: (  45,  36, 160)

     Estimated max dynamical RAM per process >     378.02MB

     Check: negative/imaginary core charge=   -0.000038    0.000000

     Initial potential from superposition of free atoms

     starting charge   89.99875, renormalised to   89.00000

     negative rho (up, down):  7.106E-05 0.000E+00
     Starting wfc are   56 randomized atomic wfcs +   24 random wfc

     total cpu time spent up to now is       25.3 secs

     Self-consistent Calculation

     iteration #  1     ecut=    35.00 Ry     beta=0.20
     Davidson diagonalization with overlap
     ethr =  1.00E-02,  avg # of iterations =  7.0

     negative rho (up, down):  7.727E-05 0.000E+00

     total cpu time spent up to now is       37.8 secs

     total energy              =    -735.20642998 Ry
     Harris-Foulkes estimate   =    -735.95156912 Ry
     estimated scf accuracy    <       2.31915284 Ry
     solvation energy          =       0.00000000 Ry
     periodic energy correct.  =       0.00000000 Ry
     external charges energy   =       0.00000000 Ry

     iteration #  2     ecut=    35.00 Ry     beta=0.20
     Davidson diagonalization with overlap
     ethr =  2.61E-03,  avg # of iterations =  4.0

     negative rho (up, down):  1.372E-04 0.000E+00

     total cpu time spent up to now is       47.3 secs

     total energy              =    -734.92197225 Ry
     Harris-Foulkes estimate   =    -736.43440607 Ry
     estimated scf accuracy    <      17.12182874 Ry
     solvation energy          =       0.00000000 Ry
     periodic energy correct.  =       0.00000000 Ry
     external charges energy   =       0.00000000 Ry

     iteration #  3     ecut=    35.00 Ry     beta=0.20
     Davidson diagonalization with overlap
     ethr =  2.61E-03,  avg # of iterations =  2.0

     negative rho (up, down):  1.084E-04 0.000E+00

     add environment contribution to local potential

     total cpu time spent up to now is       98.0 secs

     total energy              =    -735.56660357 Ry
     Harris-Foulkes estimate   =    -735.65117395 Ry
     estimated scf accuracy    <       0.52332249 Ry
     solvation energy          =       0.00000000 Ry
     periodic energy correct.  =       0.00000000 Ry
     external charges energy   =       0.00000000 Ry

     iteration #  4     ecut=    35.00 Ry     beta=0.20
     Davidson diagonalization with overlap
     ethr =  5.88E-04,  avg # of iterations =  8.0

     negative rho (up, down):  1.082E-04 0.000E+00

     add environment contribution to local potential

     total cpu time spent up to now is      146.6 secs

     total energy              =    -735.31490971 Ry
     Harris-Foulkes estimate   =    -753.93130502 Ry
     estimated scf accuracy    <       0.37147595 Ry
     solvation energy          =      -0.70330613 Ry
     periodic energy correct.  =      -0.00006592 Ry
     external charges energy   =       0.95313457 Ry

     iteration #  5     ecut=    35.00 Ry     beta=0.20
     Davidson diagonalization with overlap
     ethr =  4.17E-04,  avg # of iterations =  4.0

     negative rho (up, down):  1.170E-04 0.000E+00

     add environment contribution to local potential

     total cpu time spent up to now is      192.5 secs

     total energy              =    -735.32420898 Ry
     Harris-Foulkes estimate   =    -752.10188219 Ry
     estimated scf accuracy    <       0.08429399 Ry
     solvation energy          =      -0.70813770 Ry
     periodic energy correct.  =       0.00008449 Ry
     external charges energy   =       0.94878271 Ry

     iteration #  6     ecut=    35.00 Ry     beta=0.20
     Davidson diagonalization with overlap
     ethr =  9.47E-05,  avg # of iterations =  6.0

     negative rho (up, down):  1.589E-04 0.000E+00

     add environment contribution to local potential

     total cpu time spent up to now is      240.2 secs

     total energy              =    -735.31753301 Ry
     Harris-Foulkes estimate   =    -751.19181092 Ry
     estimated scf accuracy    <       0.02892447 Ry
     solvation energy          =      -0.71164204 Ry
     periodic energy correct.  =       0.00008243 Ry
     external charges energy   =       0.94293108 Ry

     iteration #  7     ecut=    35.00 Ry     beta=0.20
     Davidson diagonalization with overlap
     ethr =  3.25E-05,  avg # of iterations =  5.0

     negative rho (up, down):  1.516E-04 0.000E+00

     add environment contribution to local potential

     total cpu time spent up to now is      282.0 secs

     total energy              =    -735.32563024 Ry
     Harris-Foulkes estimate   =    -749.50046528 Ry
     estimated scf accuracy    <       0.01026496 Ry
     solvation energy          =      -0.71975051 Ry
     periodic energy correct.  =       0.00013200 Ry
     external charges energy   =       0.94295871 Ry

     iteration #  8     ecut=    35.00 Ry     beta=0.20
     Davidson diagonalization with overlap
     ethr =  1.15E-05,  avg # of iterations =  2.0

     negative rho (up, down):  1.568E-04 0.000E+00

     add environment contribution to local potential

     total cpu time spent up to now is      327.2 secs

     total energy              =    -735.32404863 Ry
     Harris-Foulkes estimate   =    -749.31403200 Ry
     estimated scf accuracy    <       0.00452814 Ry
     solvation energy          =      -0.72190695 Ry
     periodic energy correct.  =       0.00013448 Ry
     external charges energy   =       0.94380830 Ry

     iteration #  9     ecut=    35.00 Ry     beta=0.20
     Davidson diagonalization with overlap
     ethr =  5.09E-06,  avg # of iterations =  1.0

     negative rho (up, down):  1.542E-04 0.000E+00

     add environment contribution to local potential

     total cpu time spent up to now is      372.4 secs

     total energy              =    -735.32539464 Ry
     Harris-Foulkes estimate   =    -748.99940552 Ry
     estimated scf accuracy    <       0.00516342 Ry
     solvation energy          =      -0.72516230 Ry
     periodic energy correct.  =       0.00012725 Ry
     external charges energy   =       0.94469965 Ry

     iteration # 10     ecut=    35.00 Ry     beta=0.20
     Davidson diagonalization with overlap
     ethr =  5.09E-06,  avg # of iterations =  1.0

     negative rho (up, down):  1.513E-04 0.000E+00

     add environment contribution to local potential

     total cpu time spent up to now is      414.1 secs

     total energy              =    -735.32609688 Ry
     Harris-Foulkes estimate   =    -748.88020830 Ry
     estimated scf accuracy    <       0.00222348 Ry
     solvation energy          =      -0.72702291 Ry
     periodic energy correct.  =       0.00011683 Ry
     external charges energy   =       0.94491279 Ry

     iteration # 11     ecut=    35.00 Ry     beta=0.20
     Davidson diagonalization with overlap
     ethr =  2.50E-06,  avg # of iterations = 20.0

     negative rho (up, down):  1.498E-04 0.000E+00

     add environment contribution to local potential

     total cpu time spent up to now is      458.8 secs

     total energy              =    -735.32630421 Ry
     Harris-Foulkes estimate   =    -748.75432556 Ry
     estimated scf accuracy    <       0.00033444 Ry
     solvation energy          =      -0.72836127 Ry
     periodic energy correct.  =       0.00014017 Ry
     external charges energy   =       0.94508817 Ry

     iteration # 12     ecut=    35.00 Ry     beta=0.20
     Davidson diagonalization with overlap
     ethr =  3.76E-07,  avg # of iterations =  1.0

     negative rho (up, down):  1.472E-04 0.000E+00

     add environment contribution to local potential

     total cpu time spent up to now is      499.7 secs

     total energy              =    -735.32670344 Ry
     Harris-Foulkes estimate   =    -748.65673662 Ry
     estimated scf accuracy    <       0.00041963 Ry
     solvation energy          =      -0.72934646 Ry
     periodic energy correct.  =       0.00014097 Ry
     external charges energy   =       0.94508808 Ry

     iteration # 13     ecut=    35.00 Ry     beta=0.20
     Davidson diagonalization with overlap
     ethr =  3.76E-07,  avg # of iterations =  1.0

     negative rho (up, down):  1.455E-04 0.000E+00

     add environment contribution to local potential

     total cpu time spent up to now is      539.4 secs

     total energy              =    -735.32675721 Ry
     Harris-Foulkes estimate   =    -748.59875505 Ry
     estimated scf accuracy    <       0.00002264 Ry
     solvation energy          =      -0.72997932 Ry
     periodic energy correct.  =       0.00014792 Ry
     external charges energy   =       0.94531497 Ry

     iteration # 14     ecut=    35.00 Ry     beta=0.20
     Davidson diagonalization with overlap
     ethr =  2.54E-08,  avg # of iterations =  2.0

     negative rho (up, down):  1.443E-04 0.000E+00

     add environment contribution to local potential

     total cpu time spent up to now is      578.8 secs

     total energy              =    -735.32690741 Ry
     Harris-Foulkes estimate   =    -748.56646806 Ry
     estimated scf accuracy    <       0.00000599 Ry
     solvation energy          =      -0.73045879 Ry
     periodic energy correct.  =       0.00014731 Ry
     external charges energy   =       0.94541726 Ry

     iteration # 15     ecut=    35.00 Ry     beta=0.20
     Davidson diagonalization with overlap
     ethr =  6.73E-09,  avg # of iterations =  2.0

     negative rho (up, down):  1.435E-04 0.000E+00

     add environment contribution to local potential

     total cpu time spent up to now is      619.6 secs

     total energy              =    -735.32694209 Ry
     Harris-Foulkes estimate   =    -748.54559676 Ry
     estimated scf accuracy    <       0.00000367 Ry
     solvation energy          =      -0.73079097 Ry
     periodic energy correct.  =       0.00014730 Ry
     external charges energy   =       0.94553358 Ry

     iteration # 16     ecut=    35.00 Ry     beta=0.20
     Davidson diagonalization with overlap
     ethr =  4.13E-09,  avg # of iterations =  2.0

     negative rho (up, down):  1.431E-04 0.000E+00

     add environment contribution to local potential

     total cpu time spent up to now is      661.3 secs

     total energy              =    -735.32696860 Ry
     Harris-Foulkes estimate   =    -748.53093085 Ry
     estimated scf accuracy    <       0.00000145 Ry
     solvation energy          =      -0.73106251 Ry
     periodic energy correct.  =       0.00014681 Ry
     external charges energy   =       0.94561334 Ry

     iteration # 17     ecut=    35.00 Ry     beta=0.20
     Davidson diagonalization with overlap
     ethr =  1.63E-09,  avg # of iterations =  2.0

     negative rho (up, down):  1.430E-04 0.000E+00

     add environment contribution to local potential

     total cpu time spent up to now is      698.5 secs

     total energy              =    -735.32705973 Ry
     Harris-Foulkes estimate   =    -748.51687232 Ry
     estimated scf accuracy    <       0.00000064 Ry
     solvation energy          =      -0.73124633 Ry
     periodic energy correct.  =       0.00014612 Ry
     external charges energy   =       0.94563756 Ry

     iteration # 18     ecut=    35.00 Ry     beta=0.20
     Davidson diagonalization with overlap
     ethr =  7.14E-10,  avg # of iterations =  2.0

     negative rho (up, down):  1.429E-04 0.000E+00

     add environment contribution to local potential

     total cpu time spent up to now is      736.6 secs

     total energy              =    -735.32707188 Ry
     Harris-Foulkes estimate   =    -748.51112724 Ry
     estimated scf accuracy    <       0.00000035 Ry
     solvation energy          =      -0.73132804 Ry
     periodic energy correct.  =       0.00014577 Ry
     external charges energy   =       0.94564653 Ry

     iteration # 19     ecut=    35.00 Ry     beta=0.20
     Davidson diagonalization with overlap
     ethr =  3.99E-10,  avg # of iterations =  2.0

     negative rho (up, down):  1.430E-04 0.000E+00

     add environment contribution to local potential

     total cpu time spent up to now is      774.4 secs

     total energy              =    -735.32707215 Ry
     Harris-Foulkes estimate   =    -748.50567809 Ry
     estimated scf accuracy    <       0.00000032 Ry
     solvation energy          =      -0.73139407 Ry
     periodic energy correct.  =       0.00014553 Ry
     external charges energy   =       0.94564840 Ry

     iteration # 20     ecut=    35.00 Ry     beta=0.20
     Davidson diagonalization with overlap
     ethr =  3.61E-10,  avg # of iterations =  3.0

     negative rho (up, down):  1.430E-04 0.000E+00

     add environment contribution to local potential

     total cpu time spent up to now is      810.6 secs

     total energy              =    -735.32709283 Ry
     Harris-Foulkes estimate   =    -748.50012079 Ry
     estimated scf accuracy    <       0.00000008 Ry
     solvation energy          =      -0.73145453 Ry
     periodic energy correct.  =       0.00014514 Ry
     external charges energy   =       0.94565247 Ry

     iteration # 21     ecut=    35.00 Ry     beta=0.20
     Davidson diagonalization with overlap
     ethr =  8.78E-11,  avg # of iterations =  3.0

     negative rho (up, down):  1.431E-04 0.000E+00

     add environment contribution to local potential

     total cpu time spent up to now is      844.2 secs

     total energy              =    -735.32712182 Ry
     Harris-Foulkes estimate   =    -748.49691480 Ry
     estimated scf accuracy    <       0.00000003 Ry
     solvation energy          =      -0.73147983 Ry
     periodic energy correct.  =       0.00014505 Ry
     external charges energy   =       0.94564838 Ry

     iteration # 22     ecut=    35.00 Ry     beta=0.20
     Davidson diagonalization with overlap
     ethr =  2.96E-11,  avg # of iterations =  2.0

     negative rho (up, down):  1.432E-04 0.000E+00

     add environment contribution to local potential

     total cpu time spent up to now is      879.0 secs

     total energy              =    -735.32710831 Ry
     Harris-Foulkes estimate   =    -748.49683363 Ry
     estimated scf accuracy    <       0.00000008 Ry
     solvation energy          =      -0.73148567 Ry
     periodic energy correct.  =       0.00014521 Ry
     external charges energy   =       0.94565221 Ry

     iteration # 23     ecut=    35.00 Ry     beta=0.20
     Davidson diagonalization with overlap
     ethr =  2.96E-11,  avg # of iterations =  2.0

     negative rho (up, down):  1.433E-04 0.000E+00

     add environment contribution to local potential

     total cpu time spent up to now is      912.7 secs

     total energy              =    -735.32712047 Ry
     Harris-Foulkes estimate   =    -748.49551781 Ry
     estimated scf accuracy    <          7.3E-09 Ry
     solvation energy          =      -0.73149765 Ry
     periodic energy correct.  =       0.00014519 Ry
     external charges energy   =       0.94565083 Ry

     iteration # 24     ecut=    35.00 Ry     beta=0.20
     Davidson diagonalization with overlap
     ethr =  8.16E-12,  avg # of iterations =  3.0

     negative rho (up, down):  1.438E-04 0.000E+00

     total cpu time spent up to now is      921.0 secs

     End of self-consistent calculation

          k = 0.0000 0.0000 0.0000 ( 14571 PWs)   bands (ev):

   -30.2210 -16.7582 -15.1714 -13.8974 -13.7153 -13.1051 -13.0820 -13.0100
   -12.8295 -11.9660 -11.8445 -11.7187 -11.5036 -11.4791 -11.4013 -11.2671
   -10.5654 -10.5395 -10.4791 -10.2871 -10.2662 -10.2157 -10.1788 -10.1316
   -10.1132  -9.9301  -9.9014  -9.7737  -9.6855  -9.4510  -9.3600  -8.5833
    -8.4793  -8.1931  -7.9735  -7.9120  -7.8430  -7.6980  -7.5119  -7.4265
    -7.2581  -7.2440  -7.0314  -7.0309  -6.9937  -6.8338  -6.6707  -5.5168
    -5.2984  -5.2181  -4.5387  -3.9015  -3.7407  -2.7161  -2.4403  -2.4025
    -1.7294  -1.4126  -1.1004  -0.7216  -0.6184  -0.0319   0.4038   0.6493
     1.1800   1.4645   1.6723   1.8836   1.9848   2.2366   2.8482   2.9841
     3.1302   3.2100   3.6399   3.8929   3.9565   3.9952   4.2802   4.3631

     occupation numbers 
     1.0000   1.0000   1.0000   1.0000   1.0000   1.0000   1.0000   1.0000
     1.0000   1.0000   1.0000   1.0000   1.0000   1.0000   1.0000   1.0000
     1.0000   1.0000   1.0000   1.0000   1.0000   1.0000   1.0000   1.0000
     1.0000   1.0000   1.0000   1.0000   1.0000   1.0000   1.0000   1.0000
     1.0000   1.0006   1.0063   1.0107   1.0181   1.0440   1.0812   1.0800
     0.9883   0.9739   0.6473   0.6464   0.5776   0.3050   0.1205   0.0000
     0.0000   0.0000   0.0000   0.0000   0.0000   0.0000   0.0000   0.0000
     0.0000   0.0000   0.0000   0.0000   0.0000   0.0000   0.0000   0.0000
     0.0000   0.0000   0.0000   0.0000   0.0000   0.0000   0.0000   0.0000
     0.0000   0.0000   0.0000   0.0000   0.0000   0.0000   0.0000   0.0000

     the Fermi energy is    -6.8944 ev

!    total energy              =    -735.32712098 Ry
     Harris-Foulkes estimate   =    -748.49546108 Ry
     estimated scf accuracy    <          4.0E-09 Ry

     The total energy is the sum of the following terms:

     one-electron contribution =   -3945.99378028 Ry
     hartree contribution      =    2002.99659802 Ry
     xc contribution           =    -378.70223004 Ry
     ewald contribution        =    1573.20467954 Ry
     smearing contrib. (-TS)   =      -0.00072831 Ry
     solvation energy          =      -0.73149823 Ry
     periodic energy correct.  =       0.00014527 Ry
     external charges energy   =       0.94565083 Ry

     convergence has been achieved in  24 iterations

     negative rho (up, down):  1.438E-04 0.000E+00
     The dielectric solvent contribution to forces
     atom    1 type  1   force =     0.00009122    0.00581776   -0.18581562
     atom    2 type  2   force =     0.00005461    0.00424239   -0.59492209
     atom    3 type  3   force =    -0.00086158   -0.00376636    0.04276221
     atom    4 type  3   force =     0.00087516   -0.00378143    0.04282785
     atom    5 type  3   force =    -0.00016361    0.00209577    0.02070062
     atom    6 type  3   force =     0.00009288    0.00501207   -0.02133803
     atom    7 type  3   force =    -0.00048370    0.00749343    0.03441757
     atom    8 type  3   force =     0.00040276    0.00881716    0.03619463
     atom    9 type  3   force =    -0.00906262   -0.00717202    0.01858446
     atom   10 type  3   force =     0.00909510   -0.00721360    0.01794883
     The external charges contribution to forces
     atom    1 type  1   force =     0.00000000    0.00000000    0.12512579
     atom    2 type  2   force =    -0.00000000   -0.00000000    0.26627023
     atom    3 type  3   force =    -0.00000000    0.00000000    0.07785110
     atom    4 type  3   force =    -0.00000000    0.00000000    0.07785096
     atom    5 type  3   force =     0.00000000    0.00000000    0.07644537
     atom    6 type  3   force =     0.00000000   -0.00000000    0.10117702
     atom    7 type  3   force =    -0.00000000    0.00000000   -0.18588272
     atom    8 type  3   force =     0.00000000   -0.00000000   -0.17693456
     atom    9 type  3   force =     0.00000000    0.00000000   -0.18084635
     atom   10 type  3   force =     0.00000000    0.00000000   -0.18084618
     The global environment contribution to forces
     atom    1 type  1   force =     0.00009122    0.00581776   -0.05845428
     atom    2 type  2   force =     0.00005461    0.00424239   -0.32529824
     atom    3 type  3   force =    -0.00086158   -0.00376636    0.12620126
     atom    4 type  3   force =     0.00087516   -0.00378143    0.12626677
     atom    5 type  3   force =    -0.00016361    0.00209577    0.10273394
     atom    6 type  3   force =     0.00009288    0.00501207    0.08542703
     atom    7 type  3   force =    -0.00048370    0.00749343   -0.14587821
     atom    8 type  3   force =     0.00040276    0.00881716   -0.13515296
     atom    9 type  3   force =    -0.00906262   -0.00717202   -0.15667493
     atom   10 type  3   force =     0.00909510   -0.00721360   -0.15731039


     Forces acting on atoms (cartesian axes, Ry/au):

     atom    1 type  1   force =    -0.00001663   -0.00443853    0.08364142
     atom    2 type  2   force =     0.00006363    0.00143387   -0.05962015
     atom    3 type  3   force =     0.00038300    0.01399625    0.03289697
     atom    4 type  3   force =     0.00064307    0.01428646    0.03360085
     atom    5 type  3   force =    -0.00182008    0.01276473   -0.00361552
     atom    6 type  3   force =     0.00080002    0.00783026    0.04262158
     atom    7 type  3   force =    -0.00153300   -0.01434256   -0.03748364
     atom    8 type  3   force =     0.00044788   -0.02018168   -0.02057986
     atom    9 type  3   force =     0.01752725   -0.00585561   -0.03595675
     atom   10 type  3   force =    -0.01649513   -0.00549318   -0.03550491
     The non-local contrib.  to forces
     atom    1 type  1   force =    -0.00008467   -0.00750940    0.58230686
     atom    2 type  2   force =     0.00019483    0.03855057   -2.92598292
     atom    3 type  3   force =    -0.02658356   -0.00122877   -0.10393890
     atom    4 type  3   force =     0.02668729   -0.00106072   -0.10439911
     atom    5 type  3   force =     0.00100061    0.00436255   -0.15558157
     atom    6 type  3   force =    -0.00081104   -0.01671868    0.50072478
     atom    7 type  3   force =     0.00061471    0.02491487    0.06483797
     atom    8 type  3   force =    -0.00091680   -0.01816418    0.09224479
     atom    9 type  3   force =     0.01906590   -0.00382670    0.05458101
     atom   10 type  3   force =    -0.01897170   -0.00349989    0.05337420
     The ionic contribution  to forces
     atom    1 type  1   force =     0.00636806    0.05296760   19.96835427
     atom    2 type  2   force =     0.00226724   -0.13041391   48.33963012
     atom    3 type  3   force =     0.50324609   -0.09020628   30.03736972
     atom    4 type  3   force =    -0.49292694   -0.08303178   30.06216876
     atom    5 type  3   force =    -0.07802400    0.12039865   29.68099553
     atom    6 type  3   force =     0.05586768    0.10046245   29.12582959
     atom    7 type  3   force =    -0.06942211   -0.08855591  -48.10896481
     atom    8 type  3   force =     0.05843526    0.13450123  -45.70999247
     atom    9 type  3   force =     0.08482129   -0.01166389  -46.71013044
     atom   10 type  3   force =    -0.07063256   -0.00445817  -46.68526027
     The local contribution  to forces
     atom    1 type  1   force =    -0.00639655   -0.05570525  -20.40847298
     atom    2 type  2   force =    -0.00245854    0.08906213  -45.14791074
     atom    3 type  3   force =    -0.47811504    0.11274329  -30.01612307
     atom    4 type  3   force =     0.46886922    0.10561569  -30.04000009
     atom    5 type  3   force =     0.07491641   -0.11038120  -29.62746256
     atom    6 type  3   force =    -0.05409501   -0.07721373  -29.73799510
     atom    7 type  3   force =     0.06725445    0.03425452   48.13897963
     atom    8 type  3   force =    -0.05711494   -0.14096077   45.71620951
     atom    9 type  3   force =    -0.08461927    0.01257425   46.75938368
     atom   10 type  3   force =     0.07151987    0.00541770   46.73663758
     The core correction contribution to forces
     atom    1 type  1   force =     0.00000000    0.00000000    0.00000000
     atom    2 type  2   force =     0.00000000    0.00000000    0.00000000
     atom    3 type  3   force =     0.00270060   -0.00353861   -0.01043887
     atom    4 type  3   force =    -0.00287619   -0.00344833   -0.01026101
     atom    5 type  3   force =     0.00044346   -0.00370299   -0.00410975
     atom    6 type  3   force =    -0.00025836   -0.00369938    0.06878325
     atom    7 type  3   force =     0.00049681    0.00755107    0.01370435
     atom    8 type  3   force =    -0.00036203   -0.00437116    0.01623411
     atom    9 type  3   force =     0.00734639    0.00424995    0.01705537
     atom   10 type  3   force =    -0.00754115    0.00427768    0.01722884
     The Hubbard contrib.    to forces
     atom    1 type  1   force =     0.00000000    0.00000000    0.00000000
     atom    2 type  2   force =     0.00000000    0.00000000    0.00000000
     atom    3 type  3   force =     0.00000000    0.00000000    0.00000000
     atom    4 type  3   force =     0.00000000    0.00000000    0.00000000
     atom    5 type  3   force =     0.00000000    0.00000000    0.00000000
     atom    6 type  3   force =     0.00000000    0.00000000    0.00000000
     atom    7 type  3   force =     0.00000000    0.00000000    0.00000000
     atom    8 type  3   force =     0.00000000    0.00000000    0.00000000
     atom    9 type  3   force =     0.00000000    0.00000000    0.00000000
     atom   10 type  3   force =     0.00000000    0.00000000    0.00000000
     The SCF correction term to forces
     atom    1 type  1   force =    -0.00000012   -0.00000061    0.00001711
     atom    2 type  2   force =     0.00000006    0.00000132    0.00005119
     atom    3 type  3   force =    -0.00000896    0.00000160   -0.00006360
     atom    4 type  3   force =     0.00000908    0.00000166   -0.00006492
     atom    5 type  3   force =     0.00000160    0.00000058   -0.00008154
     atom    6 type  3   force =    -0.00000157   -0.00000384   -0.00003840
     atom    7 type  3   force =     0.00000140    0.00000808   -0.00005301
     atom    8 type  3   force =    -0.00000180    0.00000467   -0.00001327
     atom    9 type  3   force =    -0.00002988   -0.00000856   -0.00006187
     atom   10 type  3   force =     0.00002987   -0.00000827   -0.00006531

     Total force =     0.144510     Total SCF correction =     0.000181

     Writing output data file PtCO_helmotz_water.save

     init_run     :     23.94s CPU     25.09s WALL (       1 calls)
     electrons    :    888.30s CPU    895.76s WALL (       1 calls)
     forces       :     10.44s CPU     10.86s WALL (       1 calls)

     Called by init_run:
     wfcinit      :      1.75s CPU      1.51s WALL (       1 calls)
     wfcinit:atom :      0.02s CPU      0.02s WALL (       1 calls)
     wfcinit:wfcr :      1.68s CPU      1.42s WALL (       1 calls)
     potinit      :      3.69s CPU      3.83s WALL (       1 calls)

     Called by electrons:
     c_bands      :    108.87s CPU     87.96s WALL (      24 calls)
     sum_band     :     62.44s CPU     62.62s WALL (      24 calls)
     v_of_rho     :     14.67s CPU     15.89s WALL (      25 calls)
     v_h          :      2.96s CPU      3.43s WALL (      92 calls)
     v_xc         :     14.44s CPU     15.59s WALL (      26 calls)
     newd         :     29.18s CPU     40.37s WALL (      25 calls)
     mix_rho      :      2.24s CPU      2.87s WALL (      24 calls)

     Called by c_bands:
     init_us_2    :      0.79s CPU      0.94s WALL (      49 calls)
     cegterg      :    105.42s CPU     84.30s WALL (      24 calls)

     Called by sum_band:
     sum_band:bec :      0.00s CPU      0.00s WALL (      24 calls)
     addusdens    :     44.53s CPU     45.83s WALL (      24 calls)

     Called by *egterg:
     h_psi        :     65.10s CPU     58.96s WALL (     112 calls)
     s_psi        :      7.48s CPU      3.85s WALL (     112 calls)
     g_psi        :      0.56s CPU      0.57s WALL (      87 calls)
     cdiaghg      :      2.94s CPU      2.58s WALL (     111 calls)
     cegterg:over :     11.33s CPU      5.82s WALL (      87 calls)
     cegterg:upda :      8.29s CPU      4.47s WALL (      87 calls)
     cegterg:last :      4.62s CPU      2.37s WALL (      24 calls)

     Called by h_psi:
     h_psi:pot    :     64.57s CPU     58.41s WALL (     112 calls)
     h_psi:calbec :      7.46s CPU      3.92s WALL (     112 calls)
     vloc_psi     :     49.46s CPU     50.55s WALL (     112 calls)
     add_vuspsi   :      7.65s CPU      3.94s WALL (     112 calls)

     General routines
     calbec       :     11.08s CPU      5.76s WALL (     140 calls)
     fft          :     74.84s CPU     75.76s WALL (    3839 calls)
     ffts         :      0.33s CPU      0.34s WALL (      49 calls)
     fftw         :     48.25s CPU     49.26s WALL (   10672 calls)
     interpolate  :      1.61s CPU      1.85s WALL (      49 calls)
     davcio       :      0.06s CPU      0.12s WALL (       1 calls)


     Environ routines
     calc_esolv   :      1.59s CPU      1.93s WALL (      24 calls)
     calc_vsolv   :    648.65s CPU    663.32s WALL (      21 calls)
     dielectric   :    193.21s CPU    196.21s WALL (      21 calls)
     get_rhopol   :    453.93s CPU    465.38s WALL (      21 calls)
     calc_veps    :     12.22s CPU     12.67s WALL (      21 calls)
     calc_epbc    :      0.06s CPU      0.07s WALL (      24 calls)
     calc_vpbc    :      8.63s CPU      8.70s WALL (      21 calls)
     calc_fpbc    :      0.00s CPU      0.00s WALL (       1 calls)
     get_extcharg :    815.45s CPU    825.14s WALL (       2 calls)

     PWSCF        : 15m22.95s CPU    15m32.21s WALL


   This run was terminated on:  14:13: 1  19Apr2017            

=------------------------------------------------------------------------------=
   JOB DONE.
=------------------------------------------------------------------------------=
