
     Program PWSCF v.6.1 (svn rev. 13369) starts on 19Apr2017 at 13:53:38 

     This program is part of the open-source Quantum ESPRESSO suite
     for quantum simulation of materials; please cite
         "P. Giannozzi et al., J. Phys.:Condens. Matter 21 395502 (2009);
          URL http://www.quantum-espresso.org", 
     in publications or presentations arising from this work. More details at
     http://www.quantum-espresso.org/quote

     Serial version
     Waiting for input...
     Reading input from standard input
Warning: card  &IONS ignored
Warning: card    ION_DYNAMICS    = 'BFGS' ignored
Warning: card  / ignored

     Current dimensions of program PWSCF are:
     Max number of different atomic species (ntypx) = 10
     Max number of k-points (npk) =  40000
     Max angular momentum in pseudopotentials (lmaxx) =  3
               file C.pbe-rrkjus.UPF: wavefunction(s)  2S 2P renormalized
               file O.pbe-rrkjus.UPF: wavefunction(s)  2S renormalized

     G-vector sticks info
     --------------------
     sticks:   dense  smooth     PW     G-vecs:    dense   smooth      PW
     Sum        2205    1099    269               330909   116965   14571



     bravais-lattice index     =            8
     lattice parameter (alat)  =      10.6881  a.u.
     unit-cell volume          =    4181.1215 (a.u.)^3
     number of atoms/cell      =           10
     number of atomic types    =            3
     number of electrons       =        89.00
     number of Kohn-Sham states=           80
     kinetic-energy cutoff     =      35.0000  Ry
     charge density cutoff     =     280.0000  Ry
     convergence threshold     =      5.0E-09
     mixing beta               =       0.2000
     number of iterations used =            8  plain     mixing
     Exchange-correlation      =  SLA  PW   PBE  PBE ( 1  4  3  4 0 0)


     Environ Module
     ==============

     Please cite
         "O. Andreussi, I. Dabo and N. Marzari, J. Chem. Phys. 136, 064102 (2012);"
     in publications or presentations arising from this work.

     compensation onset threshold      =               0.1000E+01 
     switching function adopted        =                     SCCS 
     density limit for vacuum region   =               0.5000E-02 
     density limit for bulk solvent    =               0.1000E-03 
     correction slab geom. along axis  =                        3 
     number of external charged items  =                        2 


     celldm(1)=  10.688100  celldm(2)=   0.866025  celldm(3)=   3.954220
     celldm(4)=   0.000000  celldm(5)=   0.000000  celldm(6)=   0.000000

     crystal axes: (cart. coord. in units of alat)
               a(1) = (   1.000000   0.000000   0.000000 )  
               a(2) = (   0.000000   0.866025   0.000000 )  
               a(3) = (   0.000000   0.000000   3.954220 )  

     reciprocal axes: (cart. coord. in units 2 pi/alat)
               b(1) = (  1.000000  0.000000  0.000000 )  
               b(2) = (  0.000000  1.154701  0.000000 )  
               b(3) = (  0.000000  0.000000  0.252894 )  


     PseudoPot. # 1 for C  read from file:
     /Users/oliviero/PWSCF/espresso-6.1/pseudo/C.pbe-rrkjus.UPF
     MD5 check sum: 00fb224312de0c5b6853bd333518df6f
     Pseudo is Ultrasoft, Zval =  4.0
     Generated by new atomic code, or converted to UPF format
     Using radial grid of  627 points,  4 beta functions with: 
                l(1) =   0
                l(2) =   0
                l(3) =   1
                l(4) =   1
     Q(r) pseudized with 0 coefficients 


     PseudoPot. # 2 for O  read from file:
     /Users/oliviero/PWSCF/espresso-6.1/pseudo/O.pbe-rrkjus.UPF
     MD5 check sum: 390ba29e75625707450f3bd3f0eb6be9
     Pseudo is Ultrasoft, Zval =  6.0
     Generated by new atomic code, or converted to UPF format
     Using radial grid of 1269 points,  4 beta functions with: 
                l(1) =   0
                l(2) =   0
                l(3) =   1
                l(4) =   1
     Q(r) pseudized with 0 coefficients 


     PseudoPot. # 3 for Pt read from file:
     /Users/oliviero/PWSCF/espresso-6.1/pseudo/Pt.pbe-nd-rrkjus.UPF
     MD5 check sum: 1413c21c79e416b56dc03f2d0e22670c
     Pseudo is Ultrasoft + core correction, Zval = 10.0
     Generated by new atomic code, or converted to UPF format
     Using radial grid of 1547 points,  3 beta functions with: 
                l(1) =   1
                l(2) =   2
                l(3) =   2
     Q(r) pseudized with 0 coefficients 


     atomic species   valence    mass     pseudopotential
        C              4.00     1.00000     C ( 1.00)
        O              6.00     1.00000     O ( 1.00)
        Pt            10.00     1.00000     Pt( 1.00)

     No symmetry found


                                    s                        frac. trans.

      isym =  1     identity                                     

 cryst.   s( 1) = (     1          0          0      )
                  (     0          1          0      )
                  (     0          0          1      )

 cart.    s( 1) = (  1.0000000  0.0000000  0.0000000 )
                  (  0.0000000  1.0000000  0.0000000 )
                  (  0.0000000  0.0000000  1.0000000 )


     point group C_1 (1)    
     there are  1 classes
     the character table:

       E    
A      1.00

     the symmetry operations in each class and the name of the first element:

     E        1
          identity                                               

   Cartesian axes

     site n.     atom                  positions (alat units)
         1           C   tau(   1) = (   0.4991611   0.4347567   1.2070461  )
         2           O   tau(   2) = (   0.4991542   0.4322212   1.4109013  )
         3           Pt  tau(   3) = (   0.7542339   0.0091745   0.8413229  )
         4           Pt  tau(   4) = (   0.2441023   0.0091745   0.8413226  )
         5           Pt  tau(   5) = (   0.0000034   0.4416918   0.8391348  )
         6           Pt  tau(   6) = (   0.4991682   0.4417635   0.8776299  )
         7           Pt  tau(   7) = (   0.0000038   0.7300598   0.4308181  )
         8           Pt  tau(   8) = (   0.4991683   0.7202168   0.4447460  )
         9           Pt  tau(   9) = (   0.2524172   0.2949237   0.4386572  )
        10           Pt  tau(  10) = (   0.7459196   0.2949237   0.4386575  )

   Crystallographic axes

     site n.     atom                  positions (cryst. coord.)
         1           C   tau(   1) = (  0.4991611  0.5020141  0.3052552  )
         2           O   tau(   2) = (  0.4991542  0.4990863  0.3568090  )
         3           Pt  tau(   3) = (  0.7542339  0.0105938  0.2127658  )
         4           Pt  tau(   4) = (  0.2441023  0.0105938  0.2127658  )
         5           Pt  tau(   5) = (  0.0000034  0.5100220  0.2122125  )
         6           Pt  tau(   6) = (  0.4991682  0.5101048  0.2219477  )
         7           Pt  tau(   7) = (  0.0000038  0.8430008  0.1089515  )
         8           Pt  tau(   8) = (  0.4991683  0.8316351  0.1124738  )
         9           Pt  tau(   9) = (  0.2524172  0.3405487  0.1109339  )
        10           Pt  tau(  10) = (  0.7459196  0.3405488  0.1109340  )

     number of k points=     1  Marzari-Vanderbilt smearing, width (Ry)=  0.0300
                       cart. coord. in units 2pi/alat
        k(    1) = (   0.0000000   0.0000000   0.0000000), wk =   2.0000000

                       cryst. coord.
        k(    1) = (   0.0000000   0.0000000   0.0000000), wk =   2.0000000

     Dense  grid:   330909 G-vectors     FFT dimensions: (  60,  50, 225)

     Smooth grid:   116965 G-vectors     FFT dimensions: (  45,  36, 160)

     Estimated max dynamical RAM per process >     378.02MB

     Check: negative/imaginary core charge=   -0.000038    0.000000

     Initial potential from superposition of free atoms

     starting charge   89.99875, renormalised to   89.00000

     negative rho (up, down):  7.106E-05 0.000E+00
     Starting wfc are   56 randomized atomic wfcs +   24 random wfc

     total cpu time spent up to now is       23.7 secs

     Self-consistent Calculation

     iteration #  1     ecut=    35.00 Ry     beta=0.20
     Davidson diagonalization with overlap
     ethr =  1.00E-02,  avg # of iterations =  7.0

     negative rho (up, down):  7.727E-05 0.000E+00

     total cpu time spent up to now is       35.1 secs

     total energy              =    -735.20642998 Ry
     Harris-Foulkes estimate   =    -735.95156912 Ry
     estimated scf accuracy    <       2.31915284 Ry
     periodic energy correct.  =       0.00000000 Ry
     external charges energy   =       0.00000000 Ry

     iteration #  2     ecut=    35.00 Ry     beta=0.20
     Davidson diagonalization with overlap
     ethr =  2.61E-03,  avg # of iterations =  4.0

     negative rho (up, down):  1.372E-04 0.000E+00

     total cpu time spent up to now is       44.0 secs

     total energy              =    -734.92197225 Ry
     Harris-Foulkes estimate   =    -736.43440607 Ry
     estimated scf accuracy    <      17.12182874 Ry
     periodic energy correct.  =       0.00000000 Ry
     external charges energy   =       0.00000000 Ry

     iteration #  3     ecut=    35.00 Ry     beta=0.20
     Davidson diagonalization with overlap
     ethr =  2.61E-03,  avg # of iterations =  2.0

     negative rho (up, down):  1.084E-04 0.000E+00

     add environment contribution to local potential

     total cpu time spent up to now is       53.4 secs

     total energy              =    -735.56660357 Ry
     Harris-Foulkes estimate   =    -735.65117395 Ry
     estimated scf accuracy    <       0.52332249 Ry
     periodic energy correct.  =       0.00000000 Ry
     external charges energy   =       0.00000000 Ry

     iteration #  4     ecut=    35.00 Ry     beta=0.20
     Davidson diagonalization with overlap
     ethr =  5.88E-04,  avg # of iterations =  7.0

     negative rho (up, down):  1.405E-04 0.000E+00

     add environment contribution to local potential

     total cpu time spent up to now is       64.5 secs

     total energy              =    -734.64511134 Ry
     Harris-Foulkes estimate   =    -882.75387880 Ry
     estimated scf accuracy    <       0.41989723 Ry
     periodic energy correct.  =       0.00008603 Ry
     external charges energy   =       0.95301610 Ry

     iteration #  5     ecut=    35.00 Ry     beta=0.20
     Davidson diagonalization with overlap
     ethr =  4.72E-04,  avg # of iterations =  1.0

     negative rho (up, down):  1.365E-04 0.000E+00

     add environment contribution to local potential

     total cpu time spent up to now is       73.2 secs

     total energy              =    -734.61469168 Ry
     Harris-Foulkes estimate   =    -881.69362551 Ry
     estimated scf accuracy    <       0.15262795 Ry
     periodic energy correct.  =      -0.00000435 Ry
     external charges energy   =       0.93459929 Ry

     iteration #  6     ecut=    35.00 Ry     beta=0.20
     Davidson diagonalization with overlap
     ethr =  1.71E-04,  avg # of iterations =  3.0

     negative rho (up, down):  1.464E-04 0.000E+00

     add environment contribution to local potential

     total cpu time spent up to now is       82.1 secs

     total energy              =    -734.62400621 Ry
     Harris-Foulkes estimate   =    -880.02874044 Ry
     estimated scf accuracy    <       0.02304436 Ry
     periodic energy correct.  =       0.00000160 Ry
     external charges energy   =       0.92854348 Ry

     iteration #  7     ecut=    35.00 Ry     beta=0.20
     Davidson diagonalization with overlap
     ethr =  2.59E-05,  avg # of iterations =  8.0

     negative rho (up, down):  1.807E-04 0.000E+00

     add environment contribution to local potential

     total cpu time spent up to now is       91.7 secs

     total energy              =    -734.62312566 Ry
     Harris-Foulkes estimate   =    -879.48653702 Ry
     estimated scf accuracy    <       0.02518159 Ry
     periodic energy correct.  =       0.00001305 Ry
     external charges energy   =       0.92441956 Ry

     iteration #  8     ecut=    35.00 Ry     beta=0.20
     Davidson diagonalization with overlap
     ethr =  2.59E-05,  avg # of iterations =  1.0

     negative rho (up, down):  1.777E-04 0.000E+00

     add environment contribution to local potential

     total cpu time spent up to now is       99.9 secs

     total energy              =    -734.62295286 Ry
     Harris-Foulkes estimate   =    -879.11744847 Ry
     estimated scf accuracy    <       0.00668534 Ry
     periodic energy correct.  =       0.00002320 Ry
     external charges energy   =       0.92547155 Ry

     iteration #  9     ecut=    35.00 Ry     beta=0.20
     Davidson diagonalization with overlap
     ethr =  7.51E-06,  avg # of iterations =  5.0

     negative rho (up, down):  1.761E-04 0.000E+00

     add environment contribution to local potential

     total cpu time spent up to now is      108.6 secs

     total energy              =    -734.62304641 Ry
     Harris-Foulkes estimate   =    -879.21022825 Ry
     estimated scf accuracy    <       0.00114621 Ry
     periodic energy correct.  =       0.00001182 Ry
     external charges energy   =       0.92652252 Ry

     iteration # 10     ecut=    35.00 Ry     beta=0.20
     Davidson diagonalization with overlap
     ethr =  1.29E-06,  avg # of iterations =  4.0

     negative rho (up, down):  1.773E-04 0.000E+00

     add environment contribution to local potential

     total cpu time spent up to now is      117.3 secs

     total energy              =    -734.62321772 Ry
     Harris-Foulkes estimate   =    -879.30368469 Ry
     estimated scf accuracy    <       0.00099442 Ry
     periodic energy correct.  =       0.00000775 Ry
     external charges energy   =       0.92611874 Ry

     iteration # 11     ecut=    35.00 Ry     beta=0.20
     Davidson diagonalization with overlap
     ethr =  1.12E-06,  avg # of iterations =  1.0

     negative rho (up, down):  1.757E-04 0.000E+00

     add environment contribution to local potential

     total cpu time spent up to now is      125.6 secs

     total energy              =    -734.62323408 Ry
     Harris-Foulkes estimate   =    -879.26772739 Ry
     estimated scf accuracy    <       0.00135152 Ry
     periodic energy correct.  =       0.00000732 Ry
     external charges energy   =       0.92585999 Ry

     iteration # 12     ecut=    35.00 Ry     beta=0.20
     Davidson diagonalization with overlap
     ethr =  1.12E-06,  avg # of iterations =  1.0

     negative rho (up, down):  1.778E-04 0.000E+00

     add environment contribution to local potential

     total cpu time spent up to now is      133.7 secs

     total energy              =    -734.62320814 Ry
     Harris-Foulkes estimate   =    -879.24464316 Ry
     estimated scf accuracy    <       0.00019538 Ry
     periodic energy correct.  =       0.00000683 Ry
     external charges energy   =       0.92547577 Ry

     iteration # 13     ecut=    35.00 Ry     beta=0.20
     Davidson diagonalization with overlap
     ethr =  2.20E-07,  avg # of iterations =  2.0

     negative rho (up, down):  1.766E-04 0.000E+00

     add environment contribution to local potential

     total cpu time spent up to now is      141.7 secs

     total energy              =    -734.62322825 Ry
     Harris-Foulkes estimate   =    -879.21041872 Ry
     estimated scf accuracy    <       0.00001276 Ry
     periodic energy correct.  =       0.00000675 Ry
     external charges energy   =       0.92550927 Ry

     iteration # 14     ecut=    35.00 Ry     beta=0.20
     Davidson diagonalization with overlap
     ethr =  1.43E-08,  avg # of iterations =  1.0

     negative rho (up, down):  1.769E-04 0.000E+00

     add environment contribution to local potential

     total cpu time spent up to now is      149.6 secs

     total energy              =    -734.62322901 Ry
     Harris-Foulkes estimate   =    -879.21339932 Ry
     estimated scf accuracy    <       0.00002136 Ry
     periodic energy correct.  =       0.00000647 Ry
     external charges energy   =       0.92551233 Ry

     iteration # 15     ecut=    35.00 Ry     beta=0.20
     Davidson diagonalization with overlap
     ethr =  1.43E-08,  avg # of iterations =  1.0

     negative rho (up, down):  1.768E-04 0.000E+00

     add environment contribution to local potential

     total cpu time spent up to now is      157.6 secs

     total energy              =    -734.62322970 Ry
     Harris-Foulkes estimate   =    -879.21367095 Ry
     estimated scf accuracy    <       0.00000135 Ry
     periodic energy correct.  =       0.00000630 Ry
     external charges energy   =       0.92553763 Ry

     iteration # 16     ecut=    35.00 Ry     beta=0.20
     Davidson diagonalization with overlap
     ethr =  1.51E-09,  avg # of iterations =  2.0

     negative rho (up, down):  1.768E-04 0.000E+00

     add environment contribution to local potential

     total cpu time spent up to now is      165.9 secs

     total energy              =    -734.62322987 Ry
     Harris-Foulkes estimate   =    -879.21592184 Ry
     estimated scf accuracy    <       0.00000027 Ry
     periodic energy correct.  =       0.00000624 Ry
     external charges energy   =       0.92553927 Ry

     iteration # 17     ecut=    35.00 Ry     beta=0.20
     Davidson diagonalization with overlap
     ethr =  3.01E-10,  avg # of iterations =  1.0

     negative rho (up, down):  1.768E-04 0.000E+00

     add environment contribution to local potential

     total cpu time spent up to now is      174.1 secs

     total energy              =    -734.62322988 Ry
     Harris-Foulkes estimate   =    -879.21606767 Ry
     estimated scf accuracy    <       0.00000017 Ry
     periodic energy correct.  =       0.00000627 Ry
     external charges energy   =       0.92553775 Ry

     iteration # 18     ecut=    35.00 Ry     beta=0.20
     Davidson diagonalization with overlap
     ethr =  1.91E-10,  avg # of iterations =  1.0

     negative rho (up, down):  1.769E-04 0.000E+00

     add environment contribution to local potential

     total cpu time spent up to now is      182.3 secs

     total energy              =    -734.62322989 Ry
     Harris-Foulkes estimate   =    -879.21593206 Ry
     estimated scf accuracy    <       0.00000009 Ry
     periodic energy correct.  =       0.00000630 Ry
     external charges energy   =       0.92553136 Ry

     iteration # 19     ecut=    35.00 Ry     beta=0.20
     Davidson diagonalization with overlap
     ethr =  1.03E-10,  avg # of iterations =  1.0

     negative rho (up, down):  1.771E-04 0.000E+00

     add environment contribution to local potential

     total cpu time spent up to now is      190.7 secs

     total energy              =    -734.62322989 Ry
     Harris-Foulkes estimate   =    -879.21536311 Ry
     estimated scf accuracy    <       0.00000004 Ry
     periodic energy correct.  =       0.00000633 Ry
     external charges energy   =       0.92552568 Ry

     iteration # 20     ecut=    35.00 Ry     beta=0.20
     Davidson diagonalization with overlap
     ethr =  4.45E-11,  avg # of iterations =  1.0

     negative rho (up, down):  1.773E-04 0.000E+00

     add environment contribution to local potential

     total cpu time spent up to now is      200.9 secs

     total energy              =    -734.62322988 Ry
     Harris-Foulkes estimate   =    -879.21485785 Ry
     estimated scf accuracy    <          5.9E-09 Ry
     periodic energy correct.  =       0.00000635 Ry
     external charges energy   =       0.92552495 Ry

     iteration # 21     ecut=    35.00 Ry     beta=0.20
     Davidson diagonalization with overlap
     ethr =  6.60E-12,  avg # of iterations =  1.0

     negative rho (up, down):  1.774E-04 0.000E+00

     add environment contribution to local potential

     total cpu time spent up to now is      211.4 secs

     total energy              =    -734.62322988 Ry
     Harris-Foulkes estimate   =    -879.21479231 Ry
     estimated scf accuracy    <       0.00000002 Ry
     periodic energy correct.  =       0.00000636 Ry
     external charges energy   =       0.92552279 Ry

     iteration # 22     ecut=    35.00 Ry     beta=0.20
     Davidson diagonalization with overlap
     ethr =  6.60E-12,  avg # of iterations =  1.0

     negative rho (up, down):  1.782E-04 0.000E+00

     total cpu time spent up to now is      219.9 secs

     End of self-consistent calculation

          k = 0.0000 0.0000 0.0000 ( 14571 PWs)   bands (ev):

   -49.1161 -36.0830 -34.7452 -33.4089 -32.6981 -32.5911 -32.2882 -32.2523
   -32.1035 -31.4660 -31.4566 -31.2261 -31.1442 -31.1313 -31.0218 -30.9019
   -30.1740 -30.1270 -30.0617 -29.9237 -29.8737 -29.8592 -29.8076 -29.7803
   -29.7637 -29.5751 -29.5491 -29.4062 -29.2948 -29.0793 -29.0124 -28.1971
   -28.1081 -27.8775 -27.6208 -27.5717 -27.5102 -27.3521 -27.1817 -27.0852
   -26.9126 -26.9030 -26.6870 -26.6848 -26.6494 -26.4863 -26.3131 -25.1572
   -24.9186 -24.8869 -24.1715 -23.6058 -23.2545 -22.0778 -21.9323 -21.7845
   -20.7631 -20.3282 -19.3045 -18.9925 -18.8699 -18.2907 -17.8836 -17.6159
   -17.5850 -16.7803 -15.9185 -15.1791 -15.0677 -14.8937 -14.6507 -14.3906
   -14.0740 -13.9922 -13.5331 -13.1174 -13.0175 -12.7549 -12.3728 -12.3175

     occupation numbers 
     1.0000   1.0000   1.0000   1.0000   1.0000   1.0000   1.0000   1.0000
     1.0000   1.0000   1.0000   1.0000   1.0000   1.0000   1.0000   1.0000
     1.0000   1.0000   1.0000   1.0000   1.0000   1.0000   1.0000   1.0000
     1.0000   1.0000   1.0000   1.0000   1.0000   1.0000   1.0000   1.0000
     1.0000   1.0004   1.0067   1.0101   1.0164   1.0439   1.0793   1.0808
     0.9891   0.9794   0.6507   0.6467   0.5814   0.3033   0.1118   0.0000
     0.0000   0.0000   0.0000   0.0000   0.0000   0.0000   0.0000   0.0000
     0.0000   0.0000   0.0000   0.0000   0.0000   0.0000   0.0000   0.0000
     0.0000   0.0000   0.0000   0.0000   0.0000   0.0000   0.0000   0.0000
     0.0000   0.0000   0.0000   0.0000   0.0000   0.0000   0.0000   0.0000

     the Fermi energy is   -26.5481 ev

!    total energy              =    -734.62322988 Ry
     Harris-Foulkes estimate   =    -879.21460060 Ry
     estimated scf accuracy    <          1.8E-09 Ry

     The total energy is the sum of the following terms:

     one-electron contribution =   -4079.53276070 Ry
     hartree contribution      =    2005.74750774 Ry
     xc contribution           =    -378.63365173 Ry
     ewald contribution        =    1573.20467954 Ry
     smearing contrib. (-TS)   =      -0.00037544 Ry
     periodic energy correct.  =       0.00000636 Ry
     external charges energy   =       0.92552279 Ry

     convergence has been achieved in  22 iterations

     negative rho (up, down):  1.782E-04 0.000E+00
     The external charges contribution to forces
     atom    1 type  1   force =     0.00000000    0.00000000    0.12512579
     atom    2 type  2   force =    -0.00000000   -0.00000000    0.26627023
     atom    3 type  3   force =    -0.00000000    0.00000000    0.07785110
     atom    4 type  3   force =    -0.00000000    0.00000000    0.07785096
     atom    5 type  3   force =     0.00000000    0.00000000    0.07644537
     atom    6 type  3   force =     0.00000000   -0.00000000    0.10117702
     atom    7 type  3   force =    -0.00000000    0.00000000   -0.18588272
     atom    8 type  3   force =     0.00000000   -0.00000000   -0.17693456
     atom    9 type  3   force =     0.00000000    0.00000000   -0.18084635
     atom   10 type  3   force =     0.00000000    0.00000000   -0.18084618
     The global environment contribution to forces
     atom    1 type  1   force =     0.00000000    0.00000000    0.12401964
     atom    2 type  2   force =    -0.00000000   -0.00000000    0.26461099
     atom    3 type  3   force =    -0.00000000    0.00000000    0.07508571
     atom    4 type  3   force =    -0.00000000    0.00000000    0.07508557
     atom    5 type  3   force =     0.00000000    0.00000000    0.07367998
     atom    6 type  3   force =     0.00000000   -0.00000000    0.09841163
     atom    7 type  3   force =    -0.00000000    0.00000000   -0.18864811
     atom    8 type  3   force =     0.00000000   -0.00000000   -0.17969995
     atom    9 type  3   force =     0.00000000    0.00000000   -0.18361174
     atom   10 type  3   force =     0.00000000    0.00000000   -0.18361157


     Forces acting on atoms (cartesian axes, Ry/au):

     atom    1 type  1   force =    -0.00000608   -0.00412641    0.12261668
     atom    2 type  2   force =     0.00010010    0.00152800   -0.06330598
     atom    3 type  3   force =    -0.00085266    0.01330404    0.03623725
     atom    4 type  3   force =     0.00190738    0.01359730    0.03691470
     atom    5 type  3   force =    -0.00183920    0.01271947    0.00146808
     atom    6 type  3   force =     0.00075509    0.00796577    0.03101305
     atom    7 type  3   force =    -0.00159193   -0.01416462   -0.04727483
     atom    8 type  3   force =     0.00046260   -0.01790444   -0.02823498
     atom    9 type  3   force =     0.01621449   -0.00664592   -0.04495222
     atom   10 type  3   force =    -0.01514980   -0.00627320   -0.04448174
     The non-local contrib.  to forces
     atom    1 type  1   force =    -0.00007576   -0.00617077    0.51248485
     atom    2 type  2   force =     0.00024251    0.04107719   -3.25335736
     atom    3 type  3   force =    -0.02646459   -0.00137851   -0.10314864
     atom    4 type  3   force =     0.02659244   -0.00121341   -0.10357563
     atom    5 type  3   force =     0.00096713    0.00389898   -0.15509309
     atom    6 type  3   force =    -0.00082172   -0.01655562    0.48095042
     atom    7 type  3   force =     0.00059451    0.02312805    0.07602879
     atom    8 type  3   force =    -0.00091139   -0.01739308    0.10098226
     atom    9 type  3   force =     0.01721820   -0.00295757    0.06288146
     atom   10 type  3   force =    -0.01710906   -0.00262901    0.06173237
     The ionic contribution  to forces
     atom    1 type  1   force =     0.00636806    0.05296760   19.96835427
     atom    2 type  2   force =     0.00226724   -0.13041391   48.33963012
     atom    3 type  3   force =     0.50324609   -0.09020628   30.03736972
     atom    4 type  3   force =    -0.49292694   -0.08303178   30.06216876
     atom    5 type  3   force =    -0.07802400    0.12039865   29.68099553
     atom    6 type  3   force =     0.05586768    0.10046245   29.12582959
     atom    7 type  3   force =    -0.06942211   -0.08855591  -48.10896481
     atom    8 type  3   force =     0.05843526    0.13450123  -45.70999247
     atom    9 type  3   force =     0.08482129   -0.01166389  -46.71013044
     atom   10 type  3   force =    -0.07063256   -0.00445817  -46.68526027
     The local contribution  to forces
     atom    1 type  1   force =    -0.00630448   -0.05090880  -20.48209527
     atom    2 type  2   force =    -0.00241592    0.09088052  -45.41404777
     atom    3 type  3   force =    -0.48024333    0.10833481  -29.96526518
     atom    4 type  3   force =     0.47102894    0.10121550  -29.98910465
     atom    5 type  3   force =     0.07477580   -0.10786012  -29.59492644
     atom    6 type  3   force =    -0.05402717   -0.07211564  -29.74417107
     atom    7 type  3   force =     0.06675373    0.04333836   48.15894857
     atom    8 type  3   force =    -0.05670981   -0.13067353   45.74293126
     atom    9 type  3   force =    -0.09288656    0.00376168   46.76859861
     atom   10 type  3   force =     0.07983828   -0.00343130   46.74521861
     The core correction contribution to forces
     atom    1 type  1   force =     0.00000000    0.00000000    0.00000000
     atom    2 type  2   force =     0.00000000    0.00000000    0.00000000
     atom    3 type  3   force =     0.00260803   -0.00343995   -0.00771697
     atom    4 type  3   force =    -0.00279911   -0.00336669   -0.00757272
     atom    5 type  3   force =     0.00043357   -0.00369745   -0.00309970
     atom    6 type  3   force =    -0.00026848   -0.00381005    0.07006159
     atom    7 type  3   force =     0.00047501    0.00793921    0.01544177
     atom    8 type  3   force =    -0.00035744   -0.00431959    0.01762942
     atom    9 type  3   force =     0.00707018    0.00422763    0.01739665
     atom   10 type  3   force =    -0.00726797    0.00425877    0.01752837
     The Hubbard contrib.    to forces
     atom    1 type  1   force =     0.00000000    0.00000000    0.00000000
     atom    2 type  2   force =     0.00000000    0.00000000    0.00000000
     atom    3 type  3   force =     0.00000000    0.00000000    0.00000000
     atom    4 type  3   force =     0.00000000    0.00000000    0.00000000
     atom    5 type  3   force =     0.00000000    0.00000000    0.00000000
     atom    6 type  3   force =     0.00000000    0.00000000    0.00000000
     atom    7 type  3   force =     0.00000000    0.00000000    0.00000000
     atom    8 type  3   force =     0.00000000    0.00000000    0.00000000
     atom    9 type  3   force =     0.00000000    0.00000000    0.00000000
     atom   10 type  3   force =     0.00000000    0.00000000    0.00000000
     The SCF correction term to forces
     atom    1 type  1   force =    -0.00000033   -0.00000113   -0.00000916
     atom    2 type  2   force =    -0.00000017   -0.00000248   -0.00000430
     atom    3 type  3   force =    -0.00000529    0.00000728    0.00005027
     atom    4 type  3   force =     0.00000561    0.00000700    0.00005102
     atom    5 type  3   force =     0.00000187   -0.00000729    0.00004946
     atom    6 type  3   force =    -0.00000167   -0.00000205    0.00006856
     atom    7 type  3   force =     0.00000049   -0.00000101    0.00005662
     atom    8 type  3   force =    -0.00000047   -0.00000615    0.00005216
     atom    9 type  3   force =    -0.00001504   -0.00000046    0.00005090
     atom   10 type  3   force =     0.00001506   -0.00000018    0.00004841

     Total force =     0.177281     Total SCF correction =     0.000155

     Writing output data file PtCO_helmotz_vacuum.save

     init_run     :     22.95s CPU     23.42s WALL (       1 calls)
     electrons    :    200.68s CPU    196.34s WALL (       1 calls)
     forces       :     10.23s CPU     10.81s WALL (       1 calls)

     Called by init_run:
     wfcinit      :      1.67s CPU      1.40s WALL (       1 calls)
     wfcinit:atom :      0.02s CPU      0.02s WALL (       1 calls)
     wfcinit:wfcr :      1.60s CPU      1.32s WALL (       1 calls)
     potinit      :      3.63s CPU      3.72s WALL (       1 calls)

     Called by electrons:
     c_bands      :     94.14s CPU     76.68s WALL (      22 calls)
     sum_band     :     57.14s CPU     58.33s WALL (      22 calls)
     v_of_rho     :     13.71s CPU     14.99s WALL (      23 calls)
     v_h          :      0.77s CPU      0.88s WALL (      24 calls)
     v_xc         :     13.54s CPU     14.77s WALL (      24 calls)
     newd         :     26.59s CPU     36.75s WALL (      23 calls)
     mix_rho      :      2.04s CPU      2.63s WALL (      22 calls)

     Called by c_bands:
     init_us_2    :      0.73s CPU      0.81s WALL (      45 calls)
     cegterg      :     90.99s CPU     73.36s WALL (      22 calls)

     Called by sum_band:
     sum_band:bec :      0.00s CPU      0.00s WALL (      22 calls)
     addusdens    :     40.96s CPU     43.12s WALL (      22 calls)

     Called by *egterg:
     h_psi        :     56.75s CPU     51.55s WALL (      79 calls)
     s_psi        :      6.69s CPU      3.49s WALL (      79 calls)
     g_psi        :      0.47s CPU      0.48s WALL (      56 calls)
     cdiaghg      :      1.95s CPU      1.88s WALL (      78 calls)
     cegterg:over :      9.56s CPU      4.95s WALL (      56 calls)
     cegterg:upda :      6.47s CPU      3.54s WALL (      56 calls)
     cegterg:last :      4.23s CPU      2.27s WALL (      22 calls)

     Called by h_psi:
     h_psi:pot    :     56.29s CPU     51.07s WALL (      79 calls)
     h_psi:calbec :      6.64s CPU      3.47s WALL (      79 calls)
     vloc_psi     :     42.93s CPU     44.06s WALL (      79 calls)
     add_vuspsi   :      6.72s CPU      3.54s WALL (      79 calls)

     General routines
     calbec       :     10.06s CPU      5.23s WALL (     105 calls)
     fft          :      7.53s CPU      7.71s WALL (     378 calls)
     ffts         :      0.32s CPU      0.32s WALL (      45 calls)
     fftw         :     41.71s CPU     42.78s WALL (    9422 calls)
     interpolate  :      1.48s CPU      1.70s WALL (      45 calls)
     davcio       :      0.06s CPU      0.13s WALL (       1 calls)


     Environ routines
     calc_epbc    :      0.04s CPU      0.05s WALL (      22 calls)
     calc_vpbc    :      7.45s CPU      7.65s WALL (      19 calls)
     calc_fpbc    :      0.00s CPU      0.00s WALL (       1 calls)
     get_extcharg :    170.22s CPU    168.84s WALL (       2 calls)

     PWSCF        :  3m54.14s CPU     3m51.13s WALL


   This run was terminated on:  13:57:29  19Apr2017            

=------------------------------------------------------------------------------=
   JOB DONE.
=------------------------------------------------------------------------------=
