
     Program PWSCF v.6.7MaX starts on  5Mar2021 at 13:37:51 

     This program is part of the open-source Quantum ESPRESSO suite
     for quantum simulation of materials; please cite
         "P. Giannozzi et al., J. Phys.:Condens. Matter 21 395502 (2009);
         "P. Giannozzi et al., J. Phys.:Condens. Matter 29 465901 (2017);
          URL http://www.quantum-espresso.org", 
     in publications or presentations arising from this work. More details at
     http://www.quantum-espresso.org/quote

     Parallel version (MPI), running on     1 processors

     MPI processes distributed on     1 nodes
     Waiting for input...
     Reading input from standard input

     Current dimensions of program PWSCF are:
     Max number of different atomic species (ntypx) = 10
     Max number of k-points (npk) =  40000
     Max angular momentum in pseudopotentials (lmaxx) =  3
     file H.pbe-rrkjus.UPF: wavefunction(s)  1S renormalized
     file O.pbe-rrkjus.UPF: wavefunction(s)  2S renormalized

     gamma-point specific algorithms are used

     Subspace diagonalization in iterative solution of the eigenvalue problem:
     a serial algorithm will be used


     G-vector sticks info
     --------------------
     sticks:   dense  smooth     PW     G-vecs:    dense   smooth      PW
     Sum        2385     949    241                87655    22119    2777



     bravais-lattice index     =            1
     lattice parameter (alat)  =      10.0000  a.u.
     unit-cell volume          =    1000.0000 (a.u.)^3
     number of atoms/cell      =            3
     number of atomic types    =            2
     number of electrons       =         8.00
     number of Kohn-Sham states=            4
     kinetic-energy cutoff     =      30.0000  Ry
     charge density cutoff     =     300.0000  Ry
     scf convergence threshold =      5.0E-03
     mixing beta               =       0.7000
     number of iterations used =            8  plain     mixing
     Exchange-correlation= SLA  PW   PBE  PBE
                           (   1   4   3   4   0   0   0)


     Environ Module
     ==============

     Plese cite
         O. Andreussi, I. Dabo and N. Marzari, J. Chem. Phys. 136, 064102 (2012)         
     in publications or presentations arising from this work.

     compensation onset threshold      =               0.1000E+03 
     switching function adopted        =                     SCCS 
     density limit for vacuum region   =               0.5000E-02 
     density limit for bulk solvent    =               0.1000E-03 
     surface tension in input (dyn/cm) =                   100.00 
     surface tension in internal units =               0.1285E-03 



     celldm(1)=  10.000000  celldm(2)=   0.000000  celldm(3)=   0.000000
     celldm(4)=   0.000000  celldm(5)=   0.000000  celldm(6)=   0.000000

     crystal axes: (cart. coord. in units of alat)
               a(1) = (   1.000000   0.000000   0.000000 )  
               a(2) = (   0.000000   1.000000   0.000000 )  
               a(3) = (   0.000000   0.000000   1.000000 )  

     reciprocal axes: (cart. coord. in units 2 pi/alat)
               b(1) = (  1.000000  0.000000  0.000000 )  
               b(2) = (  0.000000  1.000000  0.000000 )  
               b(3) = (  0.000000  0.000000  1.000000 )  


     PseudoPot. # 1 for H  read from file:
     ../../../pseudo/H.pbe-rrkjus.UPF
     MD5 check sum: 2d52a7f45632fd764c17cc6affed14c8
     Pseudo is Ultrasoft, Zval =  1.0
     Generated by new atomic code, or converted to UPF format
     Using radial grid of 1061 points,  2 beta functions with: 
                l(1) =   0
                l(2) =   0
     Q(r) pseudized with 0 coefficients 


     PseudoPot. # 2 for O  read from file:
     ../../../pseudo/O.pbe-rrkjus.UPF
     MD5 check sum: fadcf19ee70a498d3030e2e79cf929a4
     Pseudo is Ultrasoft, Zval =  6.0
     Generated by new atomic code, or converted to UPF format
     Using radial grid of 1269 points,  4 beta functions with: 
                l(1) =   0
                l(2) =   0
                l(3) =   1
                l(4) =   1
     Q(r) pseudized with 0 coefficients 


     atomic species   valence    mass     pseudopotential
        H              1.00     1.00000     H ( 1.00)
        O              6.00    16.00000     O ( 1.00)

     No symmetry found



   Cartesian axes

     site n.     atom                  positions (alat units)
         1           O   tau(   1) = (   1.1790000   1.2050000   1.1500000  )
         2           H   tau(   2) = (   1.3450000   1.1220000   1.1500000  )
         3           H   tau(   3) = (   1.0560000   1.0660000   1.1500000  )

     number of k points=     1
                       cart. coord. in units 2pi/alat
        k(    1) = (   0.0000000   0.0000000   0.0000000), wk =   2.0000000

     Dense  grid:    43828 G-vectors     FFT dimensions: (  60,  60,  60)

     Smooth grid:    11060 G-vectors     FFT dimensions: (  36,  36,  36)

     Estimated max dynamical RAM per process >      67.04 MB

     Initial potential from superposition of free atoms

     starting charge    7.80759, renormalised to    8.00000
     Starting wfcs are    6 randomized atomic wfcs

     total cpu time spent up to now is        4.5 secs

     Self-consistent Calculation

     iteration #  1     ecut=    30.00 Ry     beta= 0.70
     Davidson diagonalization with overlap
     ethr =  1.00E-02,  avg # of iterations =  2.0

     add environment contribution to local potential

     total cpu time spent up to now is        8.3 secs

     total energy              =     -33.89154181 Ry
     estimated scf accuracy    <       0.63666317 Ry
     cavitation energy         =       0.17830179 Ry
     correction to one-el term =      -0.00000000 Ry

     iteration #  2     ecut=    30.00 Ry     beta= 0.70
     Davidson diagonalization with overlap
     ethr =  7.96E-03,  avg # of iterations =  2.0

     add environment contribution to local potential

     total cpu time spent up to now is       12.0 secs

     total energy              =     -34.17279720 Ry
     estimated scf accuracy    <       0.32574850 Ry
     cavitation energy         =       0.04406643 Ry
     correction to one-el term =      -0.01946603 Ry

     iteration #  3     ecut=    30.00 Ry     beta= 0.70
     Davidson diagonalization with overlap
     ethr =  4.07E-03,  avg # of iterations =  2.0

     add environment contribution to local potential

     total cpu time spent up to now is       15.4 secs

     total energy              =     -34.24271878 Ry
     estimated scf accuracy    <       0.00720038 Ry
     cavitation energy         =       0.02895557 Ry
     correction to one-el term =      -0.01567678 Ry

     iteration #  4     ecut=    30.00 Ry     beta= 0.70
     Davidson diagonalization with overlap
     ethr =  9.00E-05,  avg # of iterations =  2.0

     negative rho (up, down):  1.406E-06 0.000E+00

     total cpu time spent up to now is       18.7 secs

     End of self-consistent calculation

          k = 0.0000 0.0000 0.0000 (  1389 PWs)   bands (ev):

   -24.2159 -12.0649  -8.2713  -6.2416

     highest occupied level (ev):    -6.2416

!    total energy              =     -34.23893125 Ry
     estimated scf accuracy    <       0.00084029 Ry

     The total energy is the sum of the following terms:
     one-electron contribution =     -46.58429391 Ry
     hartree contribution      =      25.09322935 Ry
     xc contribution           =      -8.43073112 Ry
     ewald contribution        =      -4.33512441 Ry
     cavitation energy         =       0.02332724 Ry
     correction to one-el term =      -0.00533842 Ry

     convergence has been achieved in   4 iterations

     Forces acting on atoms (cartesian axes, Ry/au):

     atom    1 type  2   force =     0.00417272   -0.01924923   -0.00003022
     atom    2 type  1   force =    -0.02478004    0.00577439    0.00001572
     atom    3 type  1   force =     0.02060732    0.01347483    0.00001450

     Total force =     0.040516     Total SCF correction =     0.038421
     SCF correction compared to forces is large: reduce conv_thr to get better values

     Writing output data file ./tmp/pwscf.save/

     init_run     :      3.84s CPU      4.43s WALL (       1 calls)
     electrons    :     12.72s CPU     14.25s WALL (       1 calls)
     forces       :      0.06s CPU      0.06s WALL (       1 calls)

     Called by init_run:
     wfcinit      :      0.00s CPU      0.00s WALL (       1 calls)
     potinit      :      3.11s CPU      3.49s WALL (       1 calls)
     hinit0       :      0.28s CPU      0.33s WALL (       1 calls)

     Called by electrons:
     c_bands      :      0.03s CPU      0.08s WALL (       4 calls)
     sum_band     :      0.19s CPU      0.14s WALL (       4 calls)
     v_of_rho     :      0.36s CPU      0.43s WALL (       5 calls)
     newd         :      0.10s CPU      0.13s WALL (       5 calls)
     mix_rho      :      0.02s CPU      0.03s WALL (       4 calls)

     Called by c_bands:
     init_us_2    :      0.00s CPU      0.00s WALL (       9 calls)
     regterg      :      0.03s CPU      0.08s WALL (       4 calls)

     Called by *egterg:
     rdiaghg      :      0.00s CPU      0.00s WALL (      12 calls)
     h_psi        :      0.03s CPU      0.07s WALL (      13 calls)
     s_psi        :      0.00s CPU      0.01s WALL (      13 calls)
     g_psi        :      0.00s CPU      0.00s WALL (       8 calls)

     Called by h_psi:
     h_psi:calbec :      0.00s CPU      0.00s WALL (      13 calls)
     vloc_psi     :      0.02s CPU      0.02s WALL (      13 calls)
     add_vuspsi   :      0.00s CPU      0.04s WALL (      13 calls)

     General routines
     calbec       :      0.00s CPU      0.00s WALL (      21 calls)
     fft          :      9.11s CPU      9.52s WALL (     107 calls)
     ffts         :      0.00s CPU      0.00s WALL (       9 calls)
     fftw         :      0.02s CPU      0.02s WALL (      62 calls)
     interpolate  :      0.02s CPU      0.02s WALL (       5 calls)

     Parallel routines
     fft_scatt_xy :      1.05s CPU      1.06s WALL (      50 calls)
     fft_scatt_yz :      1.46s CPU      1.47s WALL (      50 calls)

     Environ routines

     PWSCF        :     16.67s CPU     18.84s WALL


   This run was terminated on:  13:38:10   5Mar2021            

=------------------------------------------------------------------------------=
   JOB DONE.
=------------------------------------------------------------------------------=
