
     Program PWSCF v.6.3MaX starts on 21Apr2019 at 23:46: 7 

     This program is part of the open-source Quantum ESPRESSO suite
     for quantum simulation of materials; please cite
         "P. Giannozzi et al., J. Phys.:Condens. Matter 21 395502 (2009);
         "P. Giannozzi et al., J. Phys.:Condens. Matter 29 465901 (2017);
          URL http://www.quantum-espresso.org", 
     in publications or presentations arising from this work. More details at
     http://www.quantum-espresso.org/quote

     Parallel version (MPI), running on     1 processors

     MPI processes distributed on     1 nodes
     Reading input from pw.in

     Current dimensions of program PWSCF are:
     Max number of different atomic species (ntypx) = 10
     Max number of k-points (npk) =  40000
     Max angular momentum in pseudopotentials (lmaxx) =  3
               file H.pbe-rrkjus.UPF: wavefunction(s)  1S renormalized
               file O.pbe-rrkjus.UPF: wavefunction(s)  2S renormalized

     gamma-point specific algorithms are used

     Subspace diagonalization in iterative solution of the eigenvalue problem:
     a serial algorithm will be used

 
     G-vector sticks info
     --------------------
     sticks:   dense  smooth     PW     G-vecs:    dense   smooth      PW
     Sum        9549    3809    949               701475   177509   22119
 


     bravais-lattice index     =            1
     lattice parameter (alat)  =      20.0000  a.u.
     unit-cell volume          =    8000.0000 (a.u.)^3
     number of atoms/cell      =            3
     number of atomic types    =            2
     number of electrons       =         8.00
     number of Kohn-Sham states=            4
     kinetic-energy cutoff     =      30.0000  Ry
     charge density cutoff     =     300.0000  Ry
     convergence threshold     =      5.0E-03
     mixing beta               =       0.7000
     number of iterations used =            8  plain     mixing
     Exchange-correlation      = SLA PW PBE PBE ( 1  4  3  4 0 0)
 

     Environ Module
     ==============

     Plese cite
         O. Andreussi, I. Dabo and N. Marzari, J. Chem. Phys. 136, 064102 (2012)         
     in publications or presentations arising from this work.

     compensation onset threshold      =               0.1000E+03 
     switching function adopted        =                     SCCS 
     density limit for vacuum region   =               0.5000E-02 
     density limit for bulk solvent    =               0.1000E-03 
     surface tension in input (dyn/cm) =                   100.00 
     surface tension in internal units =               0.1285E-03 



     celldm(1)=  20.000000  celldm(2)=   0.000000  celldm(3)=   0.000000
     celldm(4)=   0.000000  celldm(5)=   0.000000  celldm(6)=   0.000000

     crystal axes: (cart. coord. in units of alat)
               a(1) = (   1.000000   0.000000   0.000000 )  
               a(2) = (   0.000000   1.000000   0.000000 )  
               a(3) = (   0.000000   0.000000   1.000000 )  

     reciprocal axes: (cart. coord. in units 2 pi/alat)
               b(1) = (  1.000000  0.000000  0.000000 )  
               b(2) = (  0.000000  1.000000  0.000000 )  
               b(3) = (  0.000000  0.000000  1.000000 )  


     PseudoPot. # 1 for H  read from file:
     /home/fnattino/Programs/quantumespresso/q-e-qe-6.3-develop/Environ/tests/../..//pseudo/H.pbe-rrkjus.UPF
     MD5 check sum: 2d52a7f45632fd764c17cc6affed14c8
     Pseudo is Ultrasoft, Zval =  1.0
     Generated by new atomic code, or converted to UPF format
     Using radial grid of 1061 points,  2 beta functions with: 
                l(1) =   0
                l(2) =   0
     Q(r) pseudized with 0 coefficients 


     PseudoPot. # 2 for O  read from file:
     /home/fnattino/Programs/quantumespresso/q-e-qe-6.3-develop/Environ/tests/../..//pseudo/O.pbe-rrkjus.UPF
     MD5 check sum: fadcf19ee70a498d3030e2e79cf929a4
     Pseudo is Ultrasoft, Zval =  6.0
     Generated by new atomic code, or converted to UPF format
     Using radial grid of 1269 points,  4 beta functions with: 
                l(1) =   0
                l(2) =   0
                l(3) =   1
                l(4) =   1
     Q(r) pseudized with 0 coefficients 


     atomic species   valence    mass     pseudopotential
        H              1.00     1.00000     H ( 1.00)
        O              6.00    16.00000     O ( 1.00)

     No symmetry found



   Cartesian axes

     site n.     atom                  positions (alat units)
         1           O   tau(   1) = (   0.5895000   0.6025000   0.5750000  )
         2           H   tau(   2) = (   0.6725000   0.5610000   0.5750000  )
         3           H   tau(   3) = (   0.5280000   0.5330000   0.5750000  )

     number of k points=     1
                       cart. coord. in units 2pi/alat
        k(    1) = (   0.0000000   0.0000000   0.0000000), wk =   2.0000000

     Dense  grid:   350738 G-vectors     FFT dimensions: ( 120, 120, 120)

     Smooth grid:    88755 G-vectors     FFT dimensions: (  72,  72,  72)

     Estimated max dynamical RAM per process >     548.70 MB

     Initial potential from superposition of free atoms
     Check: negative starting charge=   -0.000775

     starting charge    7.80759, renormalised to    8.00000

     negative rho (up, down):  7.936E-04 0.000E+00
     Starting wfcs are    6 randomized atomic wfcs

     total cpu time spent up to now is        2.7 secs

     Self-consistent Calculation

     iteration #  1     ecut=    30.00 Ry     beta= 0.70
     Davidson diagonalization with overlap
     ethr =  1.00E-02,  avg # of iterations =  2.0

     negative rho (up, down):  2.595E-04 0.000E+00

     add environment contribution to local potential

     total cpu time spent up to now is        4.4 secs

     total energy              =     -34.02621533 Ry
     Harris-Foulkes estimate   =     -34.58698941 Ry
     estimated scf accuracy    <       0.68459185 Ry
     cavitation energy         =       0.03615585 Ry
     correction to one-el term =       0.00000000 Ry

     iteration #  2     ecut=    30.00 Ry     beta= 0.70
     Davidson diagonalization with overlap
     ethr =  8.56E-03,  avg # of iterations =  2.0

     negative rho (up, down):  3.148E-03 0.000E+00

     add environment contribution to local potential

     total cpu time spent up to now is        6.1 secs

     total energy              =     -34.14241796 Ry
     Harris-Foulkes estimate   =     -34.38441062 Ry
     estimated scf accuracy    <       0.45398856 Ry
     cavitation energy         =       0.02253648 Ry
     correction to one-el term =      -0.00724946 Ry

     iteration #  3     ecut=    30.00 Ry     beta= 0.70
     Davidson diagonalization with overlap
     ethr =  5.67E-03,  avg # of iterations =  2.0

     negative rho (up, down):  3.121E-04 0.000E+00

     add environment contribution to local potential

     total cpu time spent up to now is        7.6 secs

     total energy              =     -34.24188591 Ry
     Harris-Foulkes estimate   =     -34.26804874 Ry
     estimated scf accuracy    <       0.01643578 Ry
     cavitation energy         =       0.02432575 Ry
     correction to one-el term =      -0.00705831 Ry

     iteration #  4     ecut=    30.00 Ry     beta= 0.70
     Davidson diagonalization with overlap
     ethr =  2.05E-04,  avg # of iterations =  2.0

     negative rho (up, down):  2.176E-04 0.000E+00

     total cpu time spent up to now is        9.2 secs

     End of self-consistent calculation

          k = 0.0000 0.0000 0.0000 ( 11060 PWs)   bands (ev):

   -24.9306 -12.8153  -8.9753  -6.9590

     highest occupied level (ev):    -6.9590

!    total energy              =     -34.24483611 Ry
     Harris-Foulkes estimate   =     -34.26241372 Ry
     estimated scf accuracy    <       0.00019498 Ry

     The total energy is the sum of the following terms:

     one-electron contribution =     -63.77385606 Ry
     hartree contribution      =      33.33840119 Ry
     xc contribution           =      -8.38425123 Ry
     ewald contribution        =       4.55735774 Ry
     cavitation energy         =       0.02311814 Ry
     correction to one-el term =      -0.00560589 Ry

     convergence has been achieved in   4 iterations

     Forces acting on atoms (cartesian axes, Ry/au):

     atom    1 type  2   force =     0.00342491   -0.01779542   -0.00000210
     atom    2 type  1   force =    -0.01468253    0.00637209    0.00000109
     atom    3 type  1   force =     0.01125762    0.01142333    0.00000101

     Total force =     0.029014     Total SCF correction =     0.022884
     SCF correction compared to forces is large: reduce conv_thr to get better values

     Writing output data file pwscf.save/
 
     init_run     :      2.08s CPU      2.41s WALL (       1 calls)
     electrons    :      5.65s CPU      6.54s WALL (       1 calls)
     forces       :      0.30s CPU      0.39s WALL (       1 calls)

     Called by init_run:
     wfcinit      :      0.04s CPU      0.04s WALL (       1 calls)
     potinit      :      1.30s CPU      1.45s WALL (       1 calls)
     hinit0       :      0.55s CPU      0.59s WALL (       1 calls)

     Called by electrons:
     c_bands      :      0.29s CPU      0.29s WALL (       4 calls)
     sum_band     :      0.73s CPU      0.93s WALL (       4 calls)
     v_of_rho     :      2.19s CPU      2.41s WALL (       5 calls)
     newd         :      0.58s CPU      0.93s WALL (       5 calls)
     mix_rho      :      0.16s CPU      0.18s WALL (       4 calls)

     Called by c_bands:
     init_us_2    :      0.01s CPU      0.02s WALL (       9 calls)
     regterg      :      0.27s CPU      0.27s WALL (       4 calls)

     Called by sum_band:
     sum_band:bec :      0.00s CPU      0.00s WALL (       4 calls)
     addusdens    :      0.55s CPU      0.74s WALL (       4 calls)

     Called by *egterg:
     h_psi        :      0.27s CPU      0.28s WALL (      13 calls)
     s_psi        :      0.00s CPU      0.00s WALL (      13 calls)
     g_psi        :      0.01s CPU      0.00s WALL (       8 calls)
     rdiaghg      :      0.00s CPU      0.00s WALL (      12 calls)

     Called by h_psi:
     h_psi:pot    :      0.27s CPU      0.28s WALL (      13 calls)
     h_psi:calbec :      0.00s CPU      0.00s WALL (      13 calls)
     vloc_psi     :      0.27s CPU      0.27s WALL (      13 calls)
     add_vuspsi   :      0.00s CPU      0.00s WALL (      13 calls)

     General routines
     calbec       :      0.01s CPU      0.01s WALL (      21 calls)
     fft          :      1.98s CPU      1.98s WALL (     106 calls)
     ffts         :      0.03s CPU      0.03s WALL (       9 calls)
     fftw         :      0.25s CPU      0.25s WALL (      62 calls)
     interpolate  :      0.14s CPU      0.13s WALL (       5 calls)
 
     Parallel routines
 
     Environ routines
 
     PWSCF        :     8.33s CPU         9.66s WALL

 
   This run was terminated on:  23:46:17  21Apr2019            

=------------------------------------------------------------------------------=
   JOB DONE.
=------------------------------------------------------------------------------=

%%%% IONS %%%%%%%%%%%%%%%%%%%%%%%%%%%%%%%%%%%%%%%%%%%%%%%%%%%%%%%%%%%%%%%%%%%%%%
 number of ions             =          3
 ionic center of charge     =      0.5921875     0.5886250     0.5750000
 total ionic charge         =     -8.0000000
 ionic dipole               =      0.0000000     0.0000000     0.0000000
 ionic quadrupole (pc)      =     -4.2453875    -2.0049500     0.0000000
 ion   1 type =  2 coordinates =     11.7900000    12.0500000    11.5000000
 ion   2 type =  1 coordinates =     13.4500000    11.2200000    11.5000000
 ion   3 type =  1 coordinates =     10.5600000    10.6600000    11.5000000

%%%% SYSTEM %%%%%%%%%%%%%%%%%%%%%%%%%%%%%%%%%%%%%%%%%%%%%%%%%%%%%%%%%%%%%%%%%%%%
 system is built from all present ionic types
 system defined dimension   =  0 
 system defined axis        =  3 
 system center              =      0.5921875     0.5886250     0.5750000 
 system width               =      0.0849363 

%%%% ELECTRONS %%%%%%%%%%%%%%%%%%%%%%%%%%%%%%%%%%%%%%%%%%%%%%%%%%%%%%%%%%%%%%%%%
 number of electrons        =          8
 total electronic charge    =      8.0000000
 number of spin components  =  1

%%%% BOUNDARY %%%%%%%%%%%%%%%%%%%%%%%%%%%%%%%%%%%%%%%%%%%%%%%%%%%%%%%%%%%%%%%%%%
 boundary label             = solvent              
 boundary mode              = electronic           
 boundary is built as a function of a smooth density
 function type              =  1 
 using the optimal SCCS function with parameters 
 rhomax                     =      0.0050000 
 rhomin                     =      0.0001000 
 volume of the QM region    =    479.9702285 
 surface of the QM region   =    281.4538971 

%%%% DENSITY %%%%%%%%%%%%%%%%%%%%%%%%%%%%%%%%%%%%%%%%%%%%%%%%%%%%%%%%%%%%%%%%%%%
 density label              = vsoftcavity                                                                     
 integral of density        =      0.000000000    

%%%% ELECTRONS %%%%%%%%%%%%%%%%%%%%%%%%%%%%%%%%%%%%%%%%%%%%%%%%%%%%%%%%%%%%%%%%%
 number of electrons        =          8
 total electronic charge    =      8.0000000
 number of spin components  =  1

%%%% BOUNDARY %%%%%%%%%%%%%%%%%%%%%%%%%%%%%%%%%%%%%%%%%%%%%%%%%%%%%%%%%%%%%%%%%%
 boundary label             = solvent              
 boundary mode              = electronic           
 boundary is built as a function of a smooth density
 function type              =  1 
 using the optimal SCCS function with parameters 
 rhomax                     =      0.0050000 
 rhomin                     =      0.0001000 
 volume of the QM region    =    220.5940716 
 surface of the QM region   =    175.4343928 

%%%% DENSITY %%%%%%%%%%%%%%%%%%%%%%%%%%%%%%%%%%%%%%%%%%%%%%%%%%%%%%%%%%%%%%%%%%%
 density label              = vsoftcavity                                                                     
 integral of density        =      17.57249991    

%%%% ELECTRONS %%%%%%%%%%%%%%%%%%%%%%%%%%%%%%%%%%%%%%%%%%%%%%%%%%%%%%%%%%%%%%%%%
 number of electrons        =          8
 total electronic charge    =      8.0000000
 number of spin components  =  1

%%%% BOUNDARY %%%%%%%%%%%%%%%%%%%%%%%%%%%%%%%%%%%%%%%%%%%%%%%%%%%%%%%%%%%%%%%%%%
 boundary label             = solvent              
 boundary mode              = electronic           
 boundary is built as a function of a smooth density
 function type              =  1 
 using the optimal SCCS function with parameters 
 rhomax                     =      0.0050000 
 rhomin                     =      0.0001000 
 volume of the QM region    =    246.7922771 
 surface of the QM region   =    189.3629654 

%%%% DENSITY %%%%%%%%%%%%%%%%%%%%%%%%%%%%%%%%%%%%%%%%%%%%%%%%%%%%%%%%%%%%%%%%%%%
 density label              = vsoftcavity                                                                     
 integral of density        =      15.44034793    

%%%% ELECTRONS %%%%%%%%%%%%%%%%%%%%%%%%%%%%%%%%%%%%%%%%%%%%%%%%%%%%%%%%%%%%%%%%%
 number of electrons        =          8
 total electronic charge    =      8.0000000
 number of spin components  =  1

%%%% BOUNDARY %%%%%%%%%%%%%%%%%%%%%%%%%%%%%%%%%%%%%%%%%%%%%%%%%%%%%%%%%%%%%%%%%%
 boundary label             = solvent              
 boundary mode              = electronic           
 boundary is built as a function of a smooth density
 function type              =  1 
 using the optimal SCCS function with parameters 
 rhomax                     =      0.0050000 
 rhomin                     =      0.0001000 
 volume of the QM region    =    227.8832378 
 surface of the QM region   =    179.9623092 

%%%% DENSITY %%%%%%%%%%%%%%%%%%%%%%%%%%%%%%%%%%%%%%%%%%%%%%%%%%%%%%%%%%%%%%%%%%%
 density label              = vsoftcavity                                                                     
 integral of density        =      11.01551906    

%%%% ELECTRONS %%%%%%%%%%%%%%%%%%%%%%%%%%%%%%%%%%%%%%%%%%%%%%%%%%%%%%%%%%%%%%%%%
 number of electrons        =          8
 total electronic charge    =      8.0000000
 number of spin components  =  1

%%%% BOUNDARY %%%%%%%%%%%%%%%%%%%%%%%%%%%%%%%%%%%%%%%%%%%%%%%%%%%%%%%%%%%%%%%%%%
 boundary label             = solvent              
 boundary mode              = electronic           
 boundary is built as a function of a smooth density
 function type              =  1 
 using the optimal SCCS function with parameters 
 rhomax                     =      0.0050000 
 rhomin                     =      0.0001000 
 volume of the QM region    =    227.8832378 
 surface of the QM region   =    179.9623092 

%%%% DENSITY %%%%%%%%%%%%%%%%%%%%%%%%%%%%%%%%%%%%%%%%%%%%%%%%%%%%%%%%%%%%%%%%%%%
 density label              = vsoftcavity                                                                     
 integral of density        =      11.01551906    
