
     Program PWSCF v.6.7MaX starts on  1Oct2021 at 21: 4: 2 

     This program is part of the open-source Quantum ESPRESSO suite
     for quantum simulation of materials; please cite
         "P. Giannozzi et al., J. Phys.:Condens. Matter 21 395502 (2009);
         "P. Giannozzi et al., J. Phys.:Condens. Matter 29 465901 (2017);
          URL http://www.quantum-espresso.org", 
     in publications or presentations arising from this work. More details at
     http://www.quantum-espresso.org/quote

     Parallel version (MPI), running on     1 processors

     MPI processes distributed on     1 nodes
     Reading input from pw.in

     Current dimensions of program PWSCF are:
     Max number of different atomic species (ntypx) = 10
     Max number of k-points (npk) =  40000
     Max angular momentum in pseudopotentials (lmaxx) =  3

     Reading input from environ.in

     ================================================================================

     Reading ENVIRON namelist

     Reading BOUNDARY namelist

     Checking boundary derivatives

     Skipping ELECTROSTATIC namelist

     Setting up electrostatic problem
     problem                   = poisson        
     solver                    = direct         

     Checking PBC correction
     pbc_correction            = none           ! default

     ================================================================================
 
     file H.pbe-rrkjus.UPF: wavefunction(s)  1S renormalized
     file O.pbe-rrkjus.UPF: wavefunction(s)  2S renormalized

     gamma-point specific algorithms are used

     Subspace diagonalization in iterative solution of the eigenvalue problem:
     a serial algorithm will be used

 
     G-vector sticks info
     --------------------
     sticks:   dense  smooth     PW     G-vecs:    dense   smooth      PW
     Sum        9549    3809    949               701475   177509   22119
 


     bravais-lattice index     =            1
     lattice parameter (alat)  =      20.0000  a.u.
     unit-cell volume          =    8000.0000 (a.u.)^3
     number of atoms/cell      =            3
     number of atomic types    =            2
     number of electrons       =         8.00
     number of Kohn-Sham states=            4
     kinetic-energy cutoff     =      30.0000  Ry
     charge density cutoff     =     300.0000  Ry
     scf convergence threshold =      5.0E-03
     mixing beta               =       0.7000
     number of iterations used =            8  plain     mixing
     Exchange-correlation= SLA  PW   PBE  PBE
                           (   1   4   3   4   0   0   0)
 

     Environ Module
     ==============

     Please cite
         O. Andreussi, I. Dabo and N. Marzari, J. Chem. Phys. 136, 064102 (2012)         
     in publications or presentations arising from this work.

     compensation onset threshold      =               0.1000E+03
     surface tension in input (dyn/cm) =                   100.00
     surface tension in internal units =               0.1285E-03



     celldm(1)=  20.000000  celldm(2)=   0.000000  celldm(3)=   0.000000
     celldm(4)=   0.000000  celldm(5)=   0.000000  celldm(6)=   0.000000

     crystal axes: (cart. coord. in units of alat)
               a(1) = (   1.000000   0.000000   0.000000 )  
               a(2) = (   0.000000   1.000000   0.000000 )  
               a(3) = (   0.000000   0.000000   1.000000 )  

     reciprocal axes: (cart. coord. in units 2 pi/alat)
               b(1) = (  1.000000  0.000000  0.000000 )  
               b(2) = (  0.000000  1.000000  0.000000 )  
               b(3) = (  0.000000  0.000000  1.000000 )  


     PseudoPot. # 1 for H  read from file:
     /home/simplogic86/Work/QE1/Environ/tests/../..//pseudo/H.pbe-rrkjus.UPF
     MD5 check sum: 2d52a7f45632fd764c17cc6affed14c8
     Pseudo is Ultrasoft, Zval =  1.0
     Generated by new atomic code, or converted to UPF format
     Using radial grid of 1061 points,  2 beta functions with: 
                l(1) =   0
                l(2) =   0
     Q(r) pseudized with 0 coefficients 


     PseudoPot. # 2 for O  read from file:
     /home/simplogic86/Work/QE1/Environ/tests/../..//pseudo/O.pbe-rrkjus.UPF
     MD5 check sum: fadcf19ee70a498d3030e2e79cf929a4
     Pseudo is Ultrasoft, Zval =  6.0
     Generated by new atomic code, or converted to UPF format
     Using radial grid of 1269 points,  4 beta functions with: 
                l(1) =   0
                l(2) =   0
                l(3) =   1
                l(4) =   1
     Q(r) pseudized with 0 coefficients 


     atomic species   valence    mass     pseudopotential
        H              1.00     1.00000     H ( 1.00)
        O              6.00    16.00000     O ( 1.00)

     No symmetry found



   Cartesian axes

     site n.     atom                  positions (alat units)
         1           O   tau(   1) = (   0.5895000   0.6025000   0.5750000  )
         2           H   tau(   2) = (   0.6725000   0.5610000   0.5750000  )
         3           H   tau(   3) = (   0.5280000   0.5330000   0.5750000  )

     number of k points=     1
                       cart. coord. in units 2pi/alat
        k(    1) = (   0.0000000   0.0000000   0.0000000), wk =   2.0000000

     Dense  grid:   350738 G-vectors     FFT dimensions: ( 120, 120, 120)

     Smooth grid:    88755 G-vectors     FFT dimensions: (  72,  72,  72)

     Estimated max dynamical RAM per process >     530.91 MB

     Initial potential from superposition of free atoms

     starting charge    7.80759, renormalised to    8.00000

     negative rho (up, down):  7.936E-04 0.000E+00
     Starting wfcs are    6 randomized atomic wfcs

     total cpu time spent up to now is        3.4 secs

     Self-consistent Calculation

     iteration #  1     ecut=    30.00 Ry     beta= 0.70
     Davidson diagonalization with overlap
     ethr =  1.00E-02,  avg # of iterations =  2.0

     negative rho (up, down):  2.568E-04 0.000E+00

     add environment contribution to local potential

     total cpu time spent up to now is        4.7 secs

     total energy              =     -34.04688907 Ry
     estimated scf accuracy    <       0.67469661 Ry
     cavitation energy         =       0.02230326 Ry
     correction to one-el term =       0.00000000 Ry

     iteration #  2     ecut=    30.00 Ry     beta= 0.70
     Davidson diagonalization with overlap
     ethr =  8.43E-03,  avg # of iterations =  2.0

     negative rho (up, down):  2.636E-03 0.000E+00

     add environment contribution to local potential

     total cpu time spent up to now is        6.0 secs

     total energy              =     -34.18143838 Ry
     estimated scf accuracy    <       0.36538049 Ry
     cavitation energy         =       0.02230326 Ry
     correction to one-el term =       0.00000000 Ry

     iteration #  3     ecut=    30.00 Ry     beta= 0.70
     Davidson diagonalization with overlap
     ethr =  4.57E-03,  avg # of iterations =  2.0

     negative rho (up, down):  4.403E-04 0.000E+00

     add environment contribution to local potential

     total cpu time spent up to now is        7.1 secs

     total energy              =     -34.24433110 Ry
     estimated scf accuracy    <       0.00827775 Ry
     cavitation energy         =       0.02230326 Ry
     correction to one-el term =       0.00000000 Ry

     iteration #  4     ecut=    30.00 Ry     beta= 0.70
     Davidson diagonalization with overlap
     ethr =  1.03E-04,  avg # of iterations =  2.0

     negative rho (up, down):  2.123E-04 0.000E+00

     total cpu time spent up to now is        8.2 secs

     End of self-consistent calculation

          k = 0.0000 0.0000 0.0000 ( 11060 PWs)   bands (ev):

   -25.1218 -12.9585  -9.1683  -7.1658

     highest occupied level (ev):    -7.1658

!    total energy              =     -34.24561236 Ry
     estimated scf accuracy    <       0.00092483 Ry

     The total energy is the sum of the following terms:
     one-electron contribution =     -63.88975271 Ry
     hartree contribution      =      33.47521648 Ry
     xc contribution           =      -8.41073713 Ry
     ewald contribution        =       4.55735774 Ry
     cavitation energy         =       0.02230326 Ry
     correction to one-el term =       0.00000000 Ry

     convergence has been achieved in   4 iterations

     Forces acting on atoms (cartesian axes, Ry/au):

     atom    1 type  2   force =     0.00312630   -0.01628052   -0.00002160
     atom    2 type  1   force =    -0.02031186    0.00448850    0.00001109
     atom    3 type  1   force =     0.01718556    0.01179202    0.00001051

     Total force =     0.033793     Total SCF correction =     0.038835
     SCF correction compared to forces is large: reduce conv_thr to get better values

     Writing output data file /home/simplogic86/Work/QE1/Environ/tests/../..//tempdir/pwscf.save/
 
     init_run     :      2.98s CPU      3.27s WALL (       1 calls)
     electrons    :      4.15s CPU      4.88s WALL (       1 calls)
     forces       :      2.64s CPU      2.73s WALL (       1 calls)

     Called by init_run:
     wfcinit      :      0.05s CPU      0.05s WALL (       1 calls)
     potinit      :      0.74s CPU      0.83s WALL (       1 calls)
     hinit0       :      1.64s CPU      1.72s WALL (       1 calls)

     Called by electrons:
     c_bands      :      0.31s CPU      0.32s WALL (       4 calls)
     sum_band     :      0.92s CPU      1.15s WALL (       4 calls)
     v_of_rho     :      2.40s CPU      2.75s WALL (       5 calls)
     newd         :      0.80s CPU      1.03s WALL (       5 calls)
     mix_rho      :      0.21s CPU      0.22s WALL (       4 calls)

     Called by c_bands:
     init_us_2    :      0.02s CPU      0.02s WALL (       9 calls)
     regterg      :      0.29s CPU      0.29s WALL (       4 calls)

     Called by *egterg:
     rdiaghg      :      0.00s CPU      0.00s WALL (      12 calls)
     h_psi        :      0.31s CPU      0.32s WALL (      13 calls)
     s_psi        :      0.00s CPU      0.00s WALL (      13 calls)
     g_psi        :      0.00s CPU      0.00s WALL (       8 calls)

     Called by h_psi:
     h_psi:calbec :      0.00s CPU      0.00s WALL (      13 calls)
     vloc_psi     :      0.31s CPU      0.31s WALL (      13 calls)
     add_vuspsi   :      0.00s CPU      0.00s WALL (      13 calls)

     General routines
     calbec       :      0.01s CPU      0.01s WALL (      21 calls)
     fft          :      1.15s CPU      1.17s WALL (      55 calls)
     ffts         :      0.04s CPU      0.04s WALL (       9 calls)
     fftw         :      0.26s CPU      0.26s WALL (      62 calls)
     interpolate  :      0.17s CPU      0.17s WALL (       5 calls)
 
     Parallel routines
 
     Environ routines
 
     PWSCF        :      9.84s CPU     10.99s WALL

 
   This run was terminated on:  21: 4:13   1Oct2021            

=------------------------------------------------------------------------------=
   JOB DONE.
=------------------------------------------------------------------------------=

%%%% CELL %%%%%%%%%%%%%%%%%%%%%%%%%%%%%%%%%%%%%%%%%%%%%%%%%%%%%%%%%%%%%%%%%%%%%%

 cell label                 = system         

 cell volume                =    8000.000000

%%%% IONS %%%%%%%%%%%%%%%%%%%%%%%%%%%%%%%%%%%%%%%%%%%%%%%%%%%%%%%%%%%%%%%%%%%%%%

 total charge               =     -8.0000000
 center of charge           =     11.8437500    11.7725000    11.5000000
 dipole                     =      0.0000000     0.0000000     0.0000000
 quadrupole (pc)            =     -4.2453875    -2.0049500     0.0000000

   i | type | coordinates
 -----------------------------------------------------------------------
   1 |    2 |                     11.7900000    12.0500000    11.5000000
   2 |    1 |                     13.4500000    11.2200000    11.5000000
   3 |    1 |                     10.5600000    10.6600000    11.5000000

%%%% SYSTEM %%%%%%%%%%%%%%%%%%%%%%%%%%%%%%%%%%%%%%%%%%%%%%%%%%%%%%%%%%%%%%%%%%%%

 system is built from all present ionic types

 system defined dimension   =              0
 system defined axis        =              3

 system center              =     11.8437500    11.7725000    11.5000000
 system width               =      1.6987261

%%%% IONS %%%%%%%%%%%%%%%%%%%%%%%%%%%%%%%%%%%%%%%%%%%%%%%%%%%%%%%%%%%%%%%%%%%%%%

 total charge               =     -8.0000000
 center of charge           =     11.8437500    11.7725000    11.5000000
 dipole                     =      0.0000000     0.0000000     0.0000000
 quadrupole (pc)            =     -4.2453875    -2.0049500     0.0000000

   i | type | coordinates
 -----------------------------------------------------------------------
   1 |    2 |                     11.7900000    12.0500000    11.5000000
   2 |    1 |                     13.4500000    11.2200000    11.5000000
   3 |    1 |                     10.5600000    10.6600000    11.5000000

%%%% SYSTEM %%%%%%%%%%%%%%%%%%%%%%%%%%%%%%%%%%%%%%%%%%%%%%%%%%%%%%%%%%%%%%%%%%%%

 system is built from all present ionic types

 system defined dimension   =              0
 system defined axis        =              3

 system center              =     11.8437500    11.7725000    11.5000000
 system width               =      1.6987261

%%%% BOUNDARY %%%%%%%%%%%%%%%%%%%%%%%%%%%%%%%%%%%%%%%%%%%%%%%%%%%%%%%%%%%%%%%%%%

 boundary label             = solvent             
 boundary mode              = ionic               

 boundary is built from soft-spheres centered on ionic positions:
 solvent-dependent scaling  =      1.0000000
 softness parameter         =      0.5000000

 volume of the QM region    =    211.8920528

 surface of the QM region   =    173.6189379

%%%% CELL %%%%%%%%%%%%%%%%%%%%%%%%%%%%%%%%%%%%%%%%%%%%%%%%%%%%%%%%%%%%%%%%%%%%%%

 cell label                 = system         

 cell volume                =    8000.000000

%%%% ELECTRONS %%%%%%%%%%%%%%%%%%%%%%%%%%%%%%%%%%%%%%%%%%%%%%%%%%%%%%%%%%%%%%%%%

 number of electrons        =              8

 total electronic charge    =      8.0000000

%%%% ELECTRONS %%%%%%%%%%%%%%%%%%%%%%%%%%%%%%%%%%%%%%%%%%%%%%%%%%%%%%%%%%%%%%%%%

 number of electrons        =              8

 total electronic charge    =      8.0000000

%%%% DENSITY %%%%%%%%%%%%%%%%%%%%%%%%%%%%%%%%%%%%%%%%%%%%%%%%%%%%%%%%%%%%%%%%%%%

 density label              = dvtot                                             

 integral of density        =    0.000000000    

%%%% ELECTRONS %%%%%%%%%%%%%%%%%%%%%%%%%%%%%%%%%%%%%%%%%%%%%%%%%%%%%%%%%%%%%%%%%

 number of electrons        =              8

 total electronic charge    =      8.0000000

%%%% ELECTRONS %%%%%%%%%%%%%%%%%%%%%%%%%%%%%%%%%%%%%%%%%%%%%%%%%%%%%%%%%%%%%%%%%

 number of electrons        =              8

 total electronic charge    =      8.0000000

%%%% DENSITY %%%%%%%%%%%%%%%%%%%%%%%%%%%%%%%%%%%%%%%%%%%%%%%%%%%%%%%%%%%%%%%%%%%

 density label              = dvtot                                             

 integral of density        =    0.000000000    

%%%% ELECTRONS %%%%%%%%%%%%%%%%%%%%%%%%%%%%%%%%%%%%%%%%%%%%%%%%%%%%%%%%%%%%%%%%%

 number of electrons        =              8

 total electronic charge    =      8.0000000

%%%% ELECTRONS %%%%%%%%%%%%%%%%%%%%%%%%%%%%%%%%%%%%%%%%%%%%%%%%%%%%%%%%%%%%%%%%%

 number of electrons        =              8

 total electronic charge    =      8.0000000

%%%% DENSITY %%%%%%%%%%%%%%%%%%%%%%%%%%%%%%%%%%%%%%%%%%%%%%%%%%%%%%%%%%%%%%%%%%%

 density label              = dvtot                                             

 integral of density        =    0.000000000    

%%%% ELECTRONS %%%%%%%%%%%%%%%%%%%%%%%%%%%%%%%%%%%%%%%%%%%%%%%%%%%%%%%%%%%%%%%%%

 number of electrons        =              8

 total electronic charge    =      8.0000000

%%%% ELECTRONS %%%%%%%%%%%%%%%%%%%%%%%%%%%%%%%%%%%%%%%%%%%%%%%%%%%%%%%%%%%%%%%%%

 number of electrons        =              8

 total electronic charge    =      8.0000000

%%%% DENSITY %%%%%%%%%%%%%%%%%%%%%%%%%%%%%%%%%%%%%%%%%%%%%%%%%%%%%%%%%%%%%%%%%%%

 density label              = dvtot                                             

 integral of density        =    0.000000000    

%%%% ELECTRONS %%%%%%%%%%%%%%%%%%%%%%%%%%%%%%%%%%%%%%%%%%%%%%%%%%%%%%%%%%%%%%%%%

 number of electrons        =              8

 total electronic charge    =      8.0000000

%%%% ELECTRONS %%%%%%%%%%%%%%%%%%%%%%%%%%%%%%%%%%%%%%%%%%%%%%%%%%%%%%%%%%%%%%%%%

 number of electrons        =              8

 total electronic charge    =      8.0000000

%%%% DENSITY %%%%%%%%%%%%%%%%%%%%%%%%%%%%%%%%%%%%%%%%%%%%%%%%%%%%%%%%%%%%%%%%%%%

 density label              = dvtot                                             

 integral of density        =    0.000000000    
