
     Program PWSCF v.6.7+ starts on 20Apr2021 at 12:41:41 

     This program is part of the open-source Quantum ESPRESSO suite
     for quantum simulation of materials; please cite
         "P. Giannozzi et al., J. Phys.:Condens. Matter 21 395502 (2009);
         "P. Giannozzi et al., J. Phys.:Condens. Matter 29 465901 (2017);
          URL http://www.quantum-espresso.org", 
     in publications or presentations arising from this work. More details at
     http://www.quantum-espresso.org/quote

     Parallel version (MPI), running on     1 processors

     MPI processes distributed on     1 nodes
     Reading input from neutral-dblcell.in

     Current dimensions of program PWSCF are:
     Max number of different atomic species (ntypx) = 10
     Max number of k-points (npk) =  40000
     Max angular momentum in pseudopotentials (lmaxx) =  3
     file H.pbe-rrkjus.UPF: wavefunction(s)  1S renormalized
     file O.pbe-rrkjus.UPF: wavefunction(s)  2S renormalized

     gamma-point specific algorithms are used

     Subspace diagonalization in iterative solution of the eigenvalue problem:
     a serial algorithm will be used


     G-vector sticks info
     --------------------
     sticks:   dense  smooth     PW     G-vecs:    dense   smooth      PW
     Sum        2385     949    241                87655    22119    2777



     bravais-lattice index     =            1
     lattice parameter (alat)  =      10.0000  a.u.
     unit-cell volume          =    1000.0000 (a.u.)^3
     number of atoms/cell      =            3
     number of atomic types    =            2
     number of electrons       =         8.00
     number of Kohn-Sham states=            4
     kinetic-energy cutoff     =      30.0000  Ry
     charge density cutoff     =     300.0000  Ry
     scf convergence threshold =      5.0E-03
     mixing beta               =       0.7000
     number of iterations used =            8  plain     mixing
     Exchange-correlation= SLA  PW   PBE  PBE
                           (   1   4   3   4   0   0   0)


     Environ Module
     ==============

     Plese cite
         O. Andreussi, I. Dabo and N. Marzari, J. Chem. Phys. 136, 064102 (2012)         
     in publications or presentations arising from this work.

     compensation onset threshold      =               0.1000E+03 
     static permittivity               =                   100.00 
     epsilon calculation mode          =               electronic 

     Electrostatic Setup
     -------------------
     electrostatic problem to solve    = generalized              
     numerical solver adopted          = iterative                
     type of auxiliary density adopted = full                     
     type of core tool for poisson     = fft                      



     celldm(1)=  10.000000  celldm(2)=   0.000000  celldm(3)=   0.000000
     celldm(4)=   0.000000  celldm(5)=   0.000000  celldm(6)=   0.000000

     crystal axes: (cart. coord. in units of alat)
               a(1) = (   1.000000   0.000000   0.000000 )  
               a(2) = (   0.000000   1.000000   0.000000 )  
               a(3) = (   0.000000   0.000000   1.000000 )  

     reciprocal axes: (cart. coord. in units 2 pi/alat)
               b(1) = (  1.000000  0.000000  0.000000 )  
               b(2) = (  0.000000  1.000000  0.000000 )  
               b(3) = (  0.000000  0.000000  1.000000 )  


     PseudoPot. # 1 for H  read from file:
     /Users/gabrielmedrano/Desktop/q-e/Environ/tests/../..//pseudo/H.pbe-rrkjus.UPF
     MD5 check sum: 2d52a7f45632fd764c17cc6affed14c8
     Pseudo is Ultrasoft, Zval =  1.0
     Generated by new atomic code, or converted to UPF format
     Using radial grid of 1061 points,  2 beta functions with: 
                l(1) =   0
                l(2) =   0
     Q(r) pseudized with 0 coefficients 


     PseudoPot. # 2 for O  read from file:
     /Users/gabrielmedrano/Desktop/q-e/Environ/tests/../..//pseudo/O.pbe-rrkjus.UPF
     MD5 check sum: fadcf19ee70a498d3030e2e79cf929a4
     Pseudo is Ultrasoft, Zval =  6.0
     Generated by new atomic code, or converted to UPF format
     Using radial grid of 1269 points,  4 beta functions with: 
                l(1) =   0
                l(2) =   0
                l(3) =   1
                l(4) =   1
     Q(r) pseudized with 0 coefficients 


     atomic species   valence    mass     pseudopotential
        H              1.00     1.00000     H ( 1.00)
        O              6.00    16.00000     O ( 1.00)

     No symmetry found



   Cartesian axes

     site n.     atom                  positions (alat units)
         1           O   tau(   1) = (   1.1790000   1.2050000   1.1500000  )
         2           H   tau(   2) = (   1.3450000   1.1220000   1.1500000  )
         3           H   tau(   3) = (   1.0560000   1.0660000   1.1500000  )

     number of k points=     1
                       cart. coord. in units 2pi/alat
        k(    1) = (   0.0000000   0.0000000   0.0000000), wk =   2.0000000

     Dense  grid:    43828 G-vectors     FFT dimensions: (  60,  60,  60)

     Smooth grid:    11060 G-vectors     FFT dimensions: (  36,  36,  36)

     Estimated max dynamical RAM per process >      67.04 MB

     Initial potential from superposition of free atoms

     starting charge    7.80759, renormalised to    8.00000
     Starting wfcs are    6 randomized atomic wfcs

     total cpu time spent up to now is        4.8 secs

     Self-consistent Calculation

     iteration #  1     ecut=    30.00 Ry     beta= 0.70
     Davidson diagonalization with overlap
     ethr =  1.00E-02,  avg # of iterations =  2.0

     add environment contribution to local potential
     polarization accuracy = 6.1E-06, # of iterations =  15

     total cpu time spent up to now is       24.4 secs

     total energy              =     -34.06984359 Ry
     estimated scf accuracy    <       0.63666317 Ry
     electrostatic embedding   =       0.00000000 Ry
     correction to one-el term =      -0.00000000 Ry

     iteration #  2     ecut=    30.00 Ry     beta= 0.70
     Davidson diagonalization with overlap
     ethr =  7.96E-03,  avg # of iterations =  2.0

     add environment contribution to local potential
     polarization accuracy = 8.6E-06, # of iterations =  12

     total cpu time spent up to now is       41.3 secs

     total energy              =     -34.23800541 Ry
     estimated scf accuracy    <       0.26257954 Ry
     electrostatic embedding   =      -0.03359440 Ry
     correction to one-el term =       0.13841863 Ry

     iteration #  3     ecut=    30.00 Ry     beta= 0.70
     Davidson diagonalization with overlap
     ethr =  3.28E-03,  avg # of iterations =  2.0

     add environment contribution to local potential
     polarization accuracy = 6.9E-06, # of iterations =  14

     total cpu time spent up to now is       60.0 secs

     total energy              =     -34.28663703 Ry
     estimated scf accuracy    <       0.00665381 Ry
     electrostatic embedding   =      -0.02665422 Ry
     correction to one-el term =       0.21815917 Ry

     iteration #  4     ecut=    30.00 Ry     beta= 0.70
     Davidson diagonalization with overlap
     ethr =  8.32E-05,  avg # of iterations =  2.0

     negative rho (up, down):  1.204E-06 0.000E+00

     the potential shift due to the Gaussian-smeared nuclei is    -0.0063 ev

     total cpu time spent up to now is       62.2 secs

     End of self-consistent calculation

          k = 0.0000 0.0000 0.0000 (  1389 PWs)   bands (ev):

   -24.4575 -12.2027  -8.6732  -6.6982

     highest occupied level (ev):    -6.6982

!    total energy              =     -34.28866059 Ry
     estimated scf accuracy    <       0.00071359 Ry

     The total energy is the sum of the following terms:
     one-electron contribution =     -46.95104508 Ry
     hartree contribution      =      25.19248411 Ry
     xc contribution           =      -8.44020718 Ry
     ewald contribution        =      -4.33512441 Ry
     electrostatic embedding   =      -0.03024583 Ry
     correction to one-el term =       0.27547779 Ry

     convergence has been achieved in   4 iterations
 forces lc
       1    0.0000    0.0000   -0.0000
       2    0.0000    0.0000    0.0000
       3    0.0000    0.0000    0.0000

     Forces acting on atoms (cartesian axes, Ry/au):

     atom    1 type  2   force =    -0.01663914    0.10146335   -0.00002091
     atom    2 type  1   force =    -0.03911801   -0.05845679    0.00001145
     atom    3 type  1   force =     0.05575715   -0.04300656    0.00000946

     Total force =     0.143100     Total SCF correction =     0.034459
     SCF correction compared to forces is large: reduce conv_thr to get better values

     Writing output data file /Users/gabrielmedrano/Desktop/q-e/Environ/tests/../..//tempdir/pwscf.save/

     init_run     :      4.20s CPU      4.72s WALL (       1 calls)
     electrons    :     54.13s CPU     57.44s WALL (       1 calls)
     forces       :      0.73s CPU      0.82s WALL (       1 calls)

     Called by init_run:
     wfcinit      :      0.00s CPU      0.01s WALL (       1 calls)
     potinit      :      1.96s CPU      2.16s WALL (       1 calls)
     hinit0       :      1.71s CPU      1.81s WALL (       1 calls)

     Called by electrons:
     c_bands      :      0.03s CPU      0.08s WALL (       4 calls)
     sum_band     :      0.17s CPU      0.12s WALL (       4 calls)
     v_of_rho     :      0.35s CPU      0.44s WALL (       5 calls)
     newd         :      0.10s CPU      0.13s WALL (       5 calls)
     mix_rho      :      0.02s CPU      0.03s WALL (       4 calls)

     Called by c_bands:
     init_us_2    :      0.00s CPU      0.00s WALL (       9 calls)
     regterg      :      0.03s CPU      0.08s WALL (       4 calls)

     Called by *egterg:
     rdiaghg      :      0.00s CPU      0.00s WALL (      12 calls)
     h_psi        :      0.02s CPU      0.06s WALL (      13 calls)
     s_psi        :      0.00s CPU      0.01s WALL (      13 calls)
     g_psi        :      0.00s CPU      0.00s WALL (       8 calls)

     Called by h_psi:
     h_psi:calbec :      0.00s CPU      0.00s WALL (      13 calls)
     vloc_psi     :      0.02s CPU      0.02s WALL (      13 calls)
     add_vuspsi   :      0.00s CPU      0.04s WALL (      13 calls)

     General routines
     calbec       :      0.00s CPU      0.00s WALL (      21 calls)
     fft          :     37.18s CPU     38.66s WALL (     280 calls)
     ffts         :      0.00s CPU      0.00s WALL (       9 calls)
     fftw         :      0.02s CPU      0.02s WALL (      62 calls)
     interpolate  :      0.02s CPU      0.03s WALL (       5 calls)

     Parallel routines
     fft_scatt_xy :      4.19s CPU      4.20s WALL (     223 calls)
     fft_scatt_yz :      5.62s CPU      5.63s WALL (     223 calls)

     Environ routines
     calc_eelect  :      0.03s CPU      0.03s WALL (       8 calls)
     calc_velect  :     40.25s CPU     42.09s WALL (       6 calls)
     dielectric   :      0.66s CPU      0.74s WALL (       6 calls)
     calc_felect  :      0.68s CPU      0.76s WALL (       1 calls)

     PWSCF        :     59.11s CPU   1m 3.15s WALL


   This run was terminated on:  12:42:44  20Apr2021            

=------------------------------------------------------------------------------=
   JOB DONE.
=------------------------------------------------------------------------------=
 Calling electrostatic_initbase now
 electrolyte_distance:    0.0000000000000000     
 sc_distance:    0.0000000000000000     
 velectrostatic started
 vreference created

%%%% IONS %%%%%%%%%%%%%%%%%%%%%%%%%%%%%%%%%%%%%%%%%%%%%%%%%%%%%%%%%%%%%%%%%%%%%%
 number of ions             =          3
 ionic center of charge     =      1.1843750     1.1772500     1.1500000
 total ionic charge         =     -8.0000000
 ionic dipole               =      0.0000000     0.0000000     0.0000000
 ionic quadrupole (pc)      =     -4.2453875    -2.0049500     0.0000000
 ionic quadrupole (gauss)   =     -5.2453875    -3.0049500    -1.0000000
 ion   1 type =  2 coordinates =     11.7900000    12.0500000    11.5000000
 ion   2 type =  1 coordinates =     13.4500000    11.2200000    11.5000000
 ion   3 type =  1 coordinates =     10.5600000    10.6600000    11.5000000

%%%% SYSTEM %%%%%%%%%%%%%%%%%%%%%%%%%%%%%%%%%%%%%%%%%%%%%%%%%%%%%%%%%%%%%%%%%%%%
 system is built from all present ionic types
 system defined dimension   =  0 
 system defined axis        =  3 
 system center              =      1.1843750     1.1772500     1.1500000 
 system width               =      0.1698726 

%%%% IONS %%%%%%%%%%%%%%%%%%%%%%%%%%%%%%%%%%%%%%%%%%%%%%%%%%%%%%%%%%%%%%%%%%%%%%
 number of ions             =          3
 ionic center of charge     =      1.1843750     1.1772500     1.1500000
 total ionic charge         =     -8.0000000
 ionic dipole               =      0.0000000     0.0000000     0.0000000
 ionic quadrupole (pc)      =     -4.2453875    -2.0049500     0.0000000
 ionic quadrupole (gauss)   =     -5.2453875    -3.0049500    -1.0000000
 ion   1 type =  2 coordinates =     11.7900000    12.0500000    11.5000000
 ion   2 type =  1 coordinates =     13.4500000    11.2200000    11.5000000
 ion   3 type =  1 coordinates =     10.5600000    10.6600000    11.5000000

%%%% SYSTEM %%%%%%%%%%%%%%%%%%%%%%%%%%%%%%%%%%%%%%%%%%%%%%%%%%%%%%%%%%%%%%%%%%%%
 system is built from all present ionic types
 system defined dimension   =  0 
 system defined axis        =  3 
 system center              =      1.1843750     1.1772500     1.1500000 
 system width               =      0.1698726 

%%%% ELECTRONS %%%%%%%%%%%%%%%%%%%%%%%%%%%%%%%%%%%%%%%%%%%%%%%%%%%%%%%%%%%%%%%%%
 number of electrons        =          8
 total electronic charge    =      8.0000000

%%%% ELECTRONS %%%%%%%%%%%%%%%%%%%%%%%%%%%%%%%%%%%%%%%%%%%%%%%%%%%%%%%%%%%%%%%%%
 number of electrons        =          8
 total electronic charge    =      8.0000000

%%%% BOUNDARY %%%%%%%%%%%%%%%%%%%%%%%%%%%%%%%%%%%%%%%%%%%%%%%%%%%%%%%%%%%%%%%%%%
 boundary label             = solvent              
 boundary mode              = electronic           
 boundary is built as a function of a smooth density
 function type              =  2 
 using the modified SCCS function with parameters 
 rhomax                     =      0.0050000 
 rhomin                     =      0.0001000 
 volume of the QM region    =    962.9712130 
 surface of the QM region   =    120.4427064 

%%%% DIELECTRIC %%%%%%%%%%%%%%%%%%%%%%%%%%%%%%%%%%%%%%%%%%%%%%%%%%%%%%%%%%%%%%%%%
 dielectric build on homogeneous background
 environment bulk permitt.  =    100.0000000 
 dielectric flags
 need gradient              =  F 
 need factor depend. sqrt   =  F 
 total dielectric charge    =      0.0000000

%%%% DENSITY %%%%%%%%%%%%%%%%%%%%%%%%%%%%%%%%%%%%%%%%%%%%%%%%%%%%%%%%%%%%%%%%%%%
 density label              = dvtot                                                                           
 integral of density        =      0.000000000    

%%%% DENSITY %%%%%%%%%%%%%%%%%%%%%%%%%%%%%%%%%%%%%%%%%%%%%%%%%%%%%%%%%%%%%%%%%%%
 density label              = vreference                                                                      
 integral of density        =      0.000000000    

%%%% DENSITY %%%%%%%%%%%%%%%%%%%%%%%%%%%%%%%%%%%%%%%%%%%%%%%%%%%%%%%%%%%%%%%%%%%
 density label              = velectrostatic                                                                  
 integral of density        =      0.000000000    

%%%% CHARGES %%%%%%%%%%%%%%%%%%%%%%%%%%%%%%%%%%%%%%%%%%%%%%%%%%%%%%%%%%%%%%%%%%%
 total number of charges    =         11
 total charge               =     -0.0000000

%%%% DENSITY %%%%%%%%%%%%%%%%%%%%%%%%%%%%%%%%%%%%%%%%%%%%%%%%%%%%%%%%%%%%%%%%%%%
 density label              = vsoftcavity                                                                     
 integral of density        =      0.000000000    

%%%% ELECTRONS %%%%%%%%%%%%%%%%%%%%%%%%%%%%%%%%%%%%%%%%%%%%%%%%%%%%%%%%%%%%%%%%%
 number of electrons        =          8
 total electronic charge    =      8.0000000

%%%% ELECTRONS %%%%%%%%%%%%%%%%%%%%%%%%%%%%%%%%%%%%%%%%%%%%%%%%%%%%%%%%%%%%%%%%%
 number of electrons        =          8
 total electronic charge    =      8.0000000

%%%% BOUNDARY %%%%%%%%%%%%%%%%%%%%%%%%%%%%%%%%%%%%%%%%%%%%%%%%%%%%%%%%%%%%%%%%%%
 boundary label             = solvent              
 boundary mode              = electronic           
 boundary is built as a function of a smooth density
 function type              =  2 
 using the modified SCCS function with parameters 
 rhomax                     =      0.0050000 
 rhomin                     =      0.0001000 
 volume of the QM region    =    542.9921858 
 surface of the QM region   =    672.6168305 

%%%% DIELECTRIC %%%%%%%%%%%%%%%%%%%%%%%%%%%%%%%%%%%%%%%%%%%%%%%%%%%%%%%%%%%%%%%%%
 dielectric build on homogeneous background
 environment bulk permitt.  =    100.0000000 
 dielectric flags
 need gradient              =  F 
 need factor depend. sqrt   =  F 
 total dielectric charge    =      0.0000000

%%%% DENSITY %%%%%%%%%%%%%%%%%%%%%%%%%%%%%%%%%%%%%%%%%%%%%%%%%%%%%%%%%%%%%%%%%%%
 density label              = vreference                                                                      
 integral of density        =    -0.3090908445E-12

%%%% COMPUTE ELECTROSTATIC POTENTIAL %%%%%%%%%%%%%%%%%%%%%%%%%%%%%%%%%%%%%%%%%%%
 Starting from polarization: rhoiter =      0.000000
 Iteration #          1
 calling poisson_gradient_direct
 finished poisson_gradient_direct
 finished scalar product environ gradient
 delta_qm =   0.818201E-03 delta_en =   0.390425E+01 tol =   0.100000E-04
 Iteration #          2
 calling poisson_gradient_direct
 finished poisson_gradient_direct
 finished scalar product environ gradient
 delta_qm =   0.533465E-03 delta_en =   0.165970E+01 tol =   0.100000E-04
 Iteration #          3
 calling poisson_gradient_direct
 finished poisson_gradient_direct
 finished scalar product environ gradient
 delta_qm =   0.247749E-03 delta_en =   0.357964E+00 tol =   0.100000E-04
 Iteration #          4
 calling poisson_gradient_direct
 finished poisson_gradient_direct
 finished scalar product environ gradient
 delta_qm =   0.168893E-03 delta_en =   0.166356E+00 tol =   0.100000E-04
 Iteration #          5
 calling poisson_gradient_direct
 finished poisson_gradient_direct
 finished scalar product environ gradient
 delta_qm =   0.945399E-04 delta_en =   0.521252E-01 tol =   0.100000E-04
 Iteration #          6
 calling poisson_gradient_direct
 finished poisson_gradient_direct
 finished scalar product environ gradient
 delta_qm =   0.601680E-04 delta_en =   0.211129E-01 tol =   0.100000E-04
 Iteration #          7
 calling poisson_gradient_direct
 finished poisson_gradient_direct
 finished scalar product environ gradient
 delta_qm =   0.389639E-04 delta_en =   0.885408E-02 tol =   0.100000E-04
 Iteration #          8
 calling poisson_gradient_direct
 finished poisson_gradient_direct
 finished scalar product environ gradient
 delta_qm =   0.232555E-04 delta_en =   0.315405E-02 tol =   0.100000E-04
 Iteration #          9
 calling poisson_gradient_direct
 finished poisson_gradient_direct
 finished scalar product environ gradient
 delta_qm =   0.148145E-04 delta_en =   0.127995E-02 tol =   0.100000E-04
 Iteration #         10
 calling poisson_gradient_direct
 finished poisson_gradient_direct
 finished scalar product environ gradient
 delta_qm =   0.977884E-05 delta_en =   0.557689E-03 tol =   0.100000E-04
 Iteration #         11
 calling poisson_gradient_direct
 finished poisson_gradient_direct
 finished scalar product environ gradient
 delta_qm =   0.595284E-05 delta_en =   0.206665E-03 tol =   0.100000E-04
 Iteration #         12
 calling poisson_gradient_direct
 finished poisson_gradient_direct
 finished scalar product environ gradient
 delta_qm =   0.380750E-05 delta_en =   0.845470E-04 tol =   0.100000E-04
 Iteration #         13
 calling poisson_gradient_direct
 finished poisson_gradient_direct
 finished scalar product environ gradient
 delta_qm =   0.260579E-05 delta_en =   0.396000E-04 tol =   0.100000E-04
 Iteration #         14
 calling poisson_gradient_direct
 finished poisson_gradient_direct
 finished scalar product environ gradient
 delta_qm =   0.163082E-05 delta_en =   0.155106E-04 tol =   0.100000E-04
 Iteration #         15
 calling poisson_gradient_direct
 finished poisson_gradient_direct
 finished scalar product environ gradient
 delta_qm =   0.102017E-05 delta_en =   0.606960E-05 tol =   0.100000E-04
 Charges are converged, EXIT

%%%% DENSITY %%%%%%%%%%%%%%%%%%%%%%%%%%%%%%%%%%%%%%%%%%%%%%%%%%%%%%%%%%%%%%%%%%%
 density label              = velectrostatic                                                                  
 integral of density        =    -0.2608452824E-12

%%%% CHARGES %%%%%%%%%%%%%%%%%%%%%%%%%%%%%%%%%%%%%%%%%%%%%%%%%%%%%%%%%%%%%%%%%%%
 total number of charges    =         11
 total charge               =     -0.0000000

%%%% DENSITY %%%%%%%%%%%%%%%%%%%%%%%%%%%%%%%%%%%%%%%%%%%%%%%%%%%%%%%%%%%%%%%%%%%
 density label              = vsoftcavity                                                                     
 integral of density        =      16.29959976    

%%%% DENSITY %%%%%%%%%%%%%%%%%%%%%%%%%%%%%%%%%%%%%%%%%%%%%%%%%%%%%%%%%%%%%%%%%%%
 density label              = dvtot                                                                           
 integral of density        =     -26.45264434    

%%%% ELECTRONS %%%%%%%%%%%%%%%%%%%%%%%%%%%%%%%%%%%%%%%%%%%%%%%%%%%%%%%%%%%%%%%%%
 number of electrons        =          8
 total electronic charge    =      8.0000000

%%%% ELECTRONS %%%%%%%%%%%%%%%%%%%%%%%%%%%%%%%%%%%%%%%%%%%%%%%%%%%%%%%%%%%%%%%%%
 number of electrons        =          8
 total electronic charge    =      8.0000000

%%%% BOUNDARY %%%%%%%%%%%%%%%%%%%%%%%%%%%%%%%%%%%%%%%%%%%%%%%%%%%%%%%%%%%%%%%%%%
 boundary label             = solvent              
 boundary mode              = electronic           
 boundary is built as a function of a smooth density
 function type              =  2 
 using the modified SCCS function with parameters 
 rhomax                     =      0.0050000 
 rhomin                     =      0.0001000 
 volume of the QM region    =    377.3956891 
 surface of the QM region   =    390.2235812 

%%%% DIELECTRIC %%%%%%%%%%%%%%%%%%%%%%%%%%%%%%%%%%%%%%%%%%%%%%%%%%%%%%%%%%%%%%%%%
 dielectric build on homogeneous background
 environment bulk permitt.  =    100.0000000 
 dielectric flags
 need gradient              =  F 
 need factor depend. sqrt   =  F 
 total dielectric charge    =      0.0001360

%%%% DENSITY %%%%%%%%%%%%%%%%%%%%%%%%%%%%%%%%%%%%%%%%%%%%%%%%%%%%%%%%%%%%%%%%%%%
 density label              = vreference                                                                      
 integral of density        =    -0.1099779154E-11

%%%% COMPUTE ELECTROSTATIC POTENTIAL %%%%%%%%%%%%%%%%%%%%%%%%%%%%%%%%%%%%%%%%%%%
 Starting from polarization: rhoiter =      0.304999
 Iteration #          1
 calling poisson_gradient_direct
 finished poisson_gradient_direct
 finished scalar product environ gradient
 delta_qm =   0.147043E-03 delta_en =   0.126097E+00 tol =   0.100000E-04
 Iteration #          2
 calling poisson_gradient_direct
 finished poisson_gradient_direct
 finished scalar product environ gradient
 delta_qm =   0.900266E-04 delta_en =   0.472671E-01 tol =   0.100000E-04
 Iteration #          3
 calling poisson_gradient_direct
 finished poisson_gradient_direct
 finished scalar product environ gradient
 delta_qm =   0.527350E-04 delta_en =   0.162187E-01 tol =   0.100000E-04
 Iteration #          4
 calling poisson_gradient_direct
 finished poisson_gradient_direct
 finished scalar product environ gradient
 delta_qm =   0.330981E-04 delta_en =   0.638885E-02 tol =   0.100000E-04
 Iteration #          5
 calling poisson_gradient_direct
 finished poisson_gradient_direct
 finished scalar product environ gradient
 delta_qm =   0.221812E-04 delta_en =   0.286937E-02 tol =   0.100000E-04
 Iteration #          6
 calling poisson_gradient_direct
 finished poisson_gradient_direct
 finished scalar product environ gradient
 delta_qm =   0.150470E-04 delta_en =   0.132044E-02 tol =   0.100000E-04
 Iteration #          7
 calling poisson_gradient_direct
 finished poisson_gradient_direct
 finished scalar product environ gradient
 delta_qm =   0.872264E-05 delta_en =   0.443724E-03 tol =   0.100000E-04
 Iteration #          8
 calling poisson_gradient_direct
 finished poisson_gradient_direct
 finished scalar product environ gradient
 delta_qm =   0.589153E-05 delta_en =   0.202429E-03 tol =   0.100000E-04
 Iteration #          9
 calling poisson_gradient_direct
 finished poisson_gradient_direct
 finished scalar product environ gradient
 delta_qm =   0.421397E-05 delta_en =   0.103562E-03 tol =   0.100000E-04
 Iteration #         10
 calling poisson_gradient_direct
 finished poisson_gradient_direct
 finished scalar product environ gradient
 delta_qm =   0.244118E-05 delta_en =   0.347549E-04 tol =   0.100000E-04
 Iteration #         11
 calling poisson_gradient_direct
 finished poisson_gradient_direct
 finished scalar product environ gradient
 delta_qm =   0.161454E-05 delta_en =   0.152025E-04 tol =   0.100000E-04
 Iteration #         12
 calling poisson_gradient_direct
 finished poisson_gradient_direct
 finished scalar product environ gradient
 delta_qm =   0.121348E-05 delta_en =   0.858779E-05 tol =   0.100000E-04
 Charges are converged, EXIT

%%%% DENSITY %%%%%%%%%%%%%%%%%%%%%%%%%%%%%%%%%%%%%%%%%%%%%%%%%%%%%%%%%%%%%%%%%%%
 density label              = velectrostatic                                                                  
 integral of density        =    -0.1961432069E-11

%%%% CHARGES %%%%%%%%%%%%%%%%%%%%%%%%%%%%%%%%%%%%%%%%%%%%%%%%%%%%%%%%%%%%%%%%%%%
 total number of charges    =         11
 total charge               =     -0.0000000

%%%% DENSITY %%%%%%%%%%%%%%%%%%%%%%%%%%%%%%%%%%%%%%%%%%%%%%%%%%%%%%%%%%%%%%%%%%%
 density label              = vsoftcavity                                                                     
 integral of density        =      11.58241513    

%%%% DENSITY %%%%%%%%%%%%%%%%%%%%%%%%%%%%%%%%%%%%%%%%%%%%%%%%%%%%%%%%%%%%%%%%%%%
 density label              = dvtot                                                                           
 integral of density        =     -34.13250660    

%%%% ELECTRONS %%%%%%%%%%%%%%%%%%%%%%%%%%%%%%%%%%%%%%%%%%%%%%%%%%%%%%%%%%%%%%%%%
 number of electrons        =          8
 total electronic charge    =      8.0000000

%%%% ELECTRONS %%%%%%%%%%%%%%%%%%%%%%%%%%%%%%%%%%%%%%%%%%%%%%%%%%%%%%%%%%%%%%%%%
 number of electrons        =          8
 total electronic charge    =      8.0000000

%%%% BOUNDARY %%%%%%%%%%%%%%%%%%%%%%%%%%%%%%%%%%%%%%%%%%%%%%%%%%%%%%%%%%%%%%%%%%
 boundary label             = solvent              
 boundary mode              = electronic           
 boundary is built as a function of a smooth density
 function type              =  2 
 using the modified SCCS function with parameters 
 rhomax                     =      0.0050000 
 rhomin                     =      0.0001000 
 volume of the QM region    =    286.8289291 
 surface of the QM region   =    210.4123729 

%%%% DIELECTRIC %%%%%%%%%%%%%%%%%%%%%%%%%%%%%%%%%%%%%%%%%%%%%%%%%%%%%%%%%%%%%%%%%
 dielectric build on homogeneous background
 environment bulk permitt.  =    100.0000000 
 dielectric flags
 need gradient              =  F 
 need factor depend. sqrt   =  F 
 total dielectric charge    =      0.0000590

%%%% DENSITY %%%%%%%%%%%%%%%%%%%%%%%%%%%%%%%%%%%%%%%%%%%%%%%%%%%%%%%%%%%%%%%%%%%
 density label              = vreference                                                                      
 integral of density        =    -0.4354278640E-12

%%%% COMPUTE ELECTROSTATIC POTENTIAL %%%%%%%%%%%%%%%%%%%%%%%%%%%%%%%%%%%%%%%%%%%
 Starting from polarization: rhoiter =      0.236827
 Iteration #          1
 calling poisson_gradient_direct
 finished poisson_gradient_direct
 finished scalar product environ gradient
 delta_qm =   0.232234E-03 delta_en =   0.314535E+00 tol =   0.100000E-04
 Iteration #          2
 calling poisson_gradient_direct
 finished poisson_gradient_direct
 finished scalar product environ gradient
 delta_qm =   0.130979E-03 delta_en =   0.100051E+00 tol =   0.100000E-04
 Iteration #          3
 calling poisson_gradient_direct
 finished poisson_gradient_direct
 finished scalar product environ gradient
 delta_qm =   0.938514E-04 delta_en =   0.513687E-01 tol =   0.100000E-04
 Iteration #          4
 calling poisson_gradient_direct
 finished poisson_gradient_direct
 finished scalar product environ gradient
 delta_qm =   0.576439E-04 delta_en =   0.193787E-01 tol =   0.100000E-04
 Iteration #          5
 calling poisson_gradient_direct
 finished poisson_gradient_direct
 finished scalar product environ gradient
 delta_qm =   0.391747E-04 delta_en =   0.895011E-02 tol =   0.100000E-04
 Iteration #          6
 calling poisson_gradient_direct
 finished poisson_gradient_direct
 finished scalar product environ gradient
 delta_qm =   0.287680E-04 delta_en =   0.482655E-02 tol =   0.100000E-04
 Iteration #          7
 calling poisson_gradient_direct
 finished poisson_gradient_direct
 finished scalar product environ gradient
 delta_qm =   0.173372E-04 delta_en =   0.175296E-02 tol =   0.100000E-04
 Iteration #          8
 calling poisson_gradient_direct
 finished poisson_gradient_direct
 finished scalar product environ gradient
 delta_qm =   0.113122E-04 delta_en =   0.746298E-03 tol =   0.100000E-04
 Iteration #          9
 calling poisson_gradient_direct
 finished poisson_gradient_direct
 finished scalar product environ gradient
 delta_qm =   0.836962E-05 delta_en =   0.408535E-03 tol =   0.100000E-04
 Iteration #         10
 calling poisson_gradient_direct
 finished poisson_gradient_direct
 finished scalar product environ gradient
 delta_qm =   0.519226E-05 delta_en =   0.157228E-03 tol =   0.100000E-04
 Iteration #         11
 calling poisson_gradient_direct
 finished poisson_gradient_direct
 finished scalar product environ gradient
 delta_qm =   0.340439E-05 delta_en =   0.675921E-04 tol =   0.100000E-04
 Iteration #         12
 calling poisson_gradient_direct
 finished poisson_gradient_direct
 finished scalar product environ gradient
 delta_qm =   0.248567E-05 delta_en =   0.360334E-04 tol =   0.100000E-04
 Iteration #         13
 calling poisson_gradient_direct
 finished poisson_gradient_direct
 finished scalar product environ gradient
 delta_qm =   0.158162E-05 delta_en =   0.145888E-04 tol =   0.100000E-04
 Iteration #         14
 calling poisson_gradient_direct
 finished poisson_gradient_direct
 finished scalar product environ gradient
 delta_qm =   0.108952E-05 delta_en =   0.692289E-05 tol =   0.100000E-04
 Charges are converged, EXIT

%%%% DENSITY %%%%%%%%%%%%%%%%%%%%%%%%%%%%%%%%%%%%%%%%%%%%%%%%%%%%%%%%%%%%%%%%%%%
 density label              = velectrostatic                                                                  
 integral of density        =    -0.1531372110E-11

%%%% CHARGES %%%%%%%%%%%%%%%%%%%%%%%%%%%%%%%%%%%%%%%%%%%%%%%%%%%%%%%%%%%%%%%%%%%
 total number of charges    =         11
 total charge               =      0.0000000

%%%% DENSITY %%%%%%%%%%%%%%%%%%%%%%%%%%%%%%%%%%%%%%%%%%%%%%%%%%%%%%%%%%%%%%%%%%%
 density label              = vsoftcavity                                                                     
 integral of density        =      10.69159356    

%%%% DENSITY %%%%%%%%%%%%%%%%%%%%%%%%%%%%%%%%%%%%%%%%%%%%%%%%%%%%%%%%%%%%%%%%%%%
 density label              = dvtot                                                                           
 integral of density        =     -30.40504839    

%%%% ELECTRONS %%%%%%%%%%%%%%%%%%%%%%%%%%%%%%%%%%%%%%%%%%%%%%%%%%%%%%%%%%%%%%%%%
 number of electrons        =          8
 total electronic charge    =      8.0000000

%%%% ELECTRONS %%%%%%%%%%%%%%%%%%%%%%%%%%%%%%%%%%%%%%%%%%%%%%%%%%%%%%%%%%%%%%%%%
 number of electrons        =          8
 total electronic charge    =      8.0000000

%%%% BOUNDARY %%%%%%%%%%%%%%%%%%%%%%%%%%%%%%%%%%%%%%%%%%%%%%%%%%%%%%%%%%%%%%%%%%
 boundary label             = solvent              
 boundary mode              = electronic           
 boundary is built as a function of a smooth density
 function type              =  2 
 using the modified SCCS function with parameters 
 rhomax                     =      0.0050000 
 rhomin                     =      0.0001000 
 volume of the QM region    =    286.8289291 
 surface of the QM region   =    210.4123729 

%%%% DIELECTRIC %%%%%%%%%%%%%%%%%%%%%%%%%%%%%%%%%%%%%%%%%%%%%%%%%%%%%%%%%%%%%%%%%
 dielectric build on homogeneous background
 environment bulk permitt.  =    100.0000000 
 dielectric flags
 need gradient              =  F 
 need factor depend. sqrt   =  F 
 total dielectric charge    =     -0.0000020

%%%% DENSITY %%%%%%%%%%%%%%%%%%%%%%%%%%%%%%%%%%%%%%%%%%%%%%%%%%%%%%%%%%%%%%%%%%%
 density label              = dvtot                                                                           
 integral of density        =     -30.40504839    

%%%% DENSITY %%%%%%%%%%%%%%%%%%%%%%%%%%%%%%%%%%%%%%%%%%%%%%%%%%%%%%%%%%%%%%%%%%%
 density label              = vreference                                                                      
 integral of density        =    -0.4354278640E-12

%%%% DENSITY %%%%%%%%%%%%%%%%%%%%%%%%%%%%%%%%%%%%%%%%%%%%%%%%%%%%%%%%%%%%%%%%%%%
 density label              = velectrostatic                                                                  
 integral of density        =    -0.1531372110E-11

%%%% CHARGES %%%%%%%%%%%%%%%%%%%%%%%%%%%%%%%%%%%%%%%%%%%%%%%%%%%%%%%%%%%%%%%%%%%
 total number of charges    =         11
 total charge               =      0.0000000

%%%% DENSITY %%%%%%%%%%%%%%%%%%%%%%%%%%%%%%%%%%%%%%%%%%%%%%%%%%%%%%%%%%%%%%%%%%%
 density label              = vsoftcavity                                                                     
 integral of density        =      10.69159356    
