
     Program PWSCF v.6.7+ starts on 20Apr2021 at 15:34:34 

     This program is part of the open-source Quantum ESPRESSO suite
     for quantum simulation of materials; please cite
         "P. Giannozzi et al., J. Phys.:Condens. Matter 21 395502 (2009);
         "P. Giannozzi et al., J. Phys.:Condens. Matter 29 465901 (2017);
          URL http://www.quantum-espresso.org", 
     in publications or presentations arising from this work. More details at
     http://www.quantum-espresso.org/quote

     Parallel version (MPI), running on     1 processors

     MPI processes distributed on     1 nodes
     Reading input from neutral-dblcell.in

     Current dimensions of program PWSCF are:
     Max number of different atomic species (ntypx) = 10
     Max number of k-points (npk) =  40000
     Max angular momentum in pseudopotentials (lmaxx) =  3
     file H.pbe-rrkjus.UPF: wavefunction(s)  1S renormalized
     file O.pbe-rrkjus.UPF: wavefunction(s)  2S renormalized

     gamma-point specific algorithms are used

     Subspace diagonalization in iterative solution of the eigenvalue problem:
     a serial algorithm will be used


     G-vector sticks info
     --------------------
     sticks:   dense  smooth     PW     G-vecs:    dense   smooth      PW
     Sum        2385     949    241                87655    22119    2777



     bravais-lattice index     =            1
     lattice parameter (alat)  =      10.0000  a.u.
     unit-cell volume          =    1000.0000 (a.u.)^3
     number of atoms/cell      =            3
     number of atomic types    =            2
     number of electrons       =         8.00
     number of Kohn-Sham states=            4
     kinetic-energy cutoff     =      30.0000  Ry
     charge density cutoff     =     300.0000  Ry
     scf convergence threshold =      5.0E-03
     mixing beta               =       0.7000
     number of iterations used =            8  plain     mixing
     Exchange-correlation= SLA  PW   PBE  PBE
                           (   1   4   3   4   0   0   0)


     Environ Module
     ==============

     Plese cite
         O. Andreussi, I. Dabo and N. Marzari, J. Chem. Phys. 136, 064102 (2012)         
     in publications or presentations arising from this work.

     compensation onset threshold      =               0.1000E+03 
     static permittivity               =                   100.00 
     epsilon calculation mode          =                   system 

     Electrostatic Setup
     -------------------
     electrostatic problem to solve    = generalized              
     numerical solver adopted          = cg                       
     type of auxiliary density adopted = none                     
     type of core tool for poisson     = fft                      



     celldm(1)=  10.000000  celldm(2)=   0.000000  celldm(3)=   0.000000
     celldm(4)=   0.000000  celldm(5)=   0.000000  celldm(6)=   0.000000

     crystal axes: (cart. coord. in units of alat)
               a(1) = (   1.000000   0.000000   0.000000 )  
               a(2) = (   0.000000   1.000000   0.000000 )  
               a(3) = (   0.000000   0.000000   1.000000 )  

     reciprocal axes: (cart. coord. in units 2 pi/alat)
               b(1) = (  1.000000  0.000000  0.000000 )  
               b(2) = (  0.000000  1.000000  0.000000 )  
               b(3) = (  0.000000  0.000000  1.000000 )  


     PseudoPot. # 1 for H  read from file:
     /Users/gabrielmedrano/Desktop/q-e/Environ/tests/../..//pseudo/H.pbe-rrkjus.UPF
     MD5 check sum: 2d52a7f45632fd764c17cc6affed14c8
     Pseudo is Ultrasoft, Zval =  1.0
     Generated by new atomic code, or converted to UPF format
     Using radial grid of 1061 points,  2 beta functions with: 
                l(1) =   0
                l(2) =   0
     Q(r) pseudized with 0 coefficients 


     PseudoPot. # 2 for O  read from file:
     /Users/gabrielmedrano/Desktop/q-e/Environ/tests/../..//pseudo/O.pbe-rrkjus.UPF
     MD5 check sum: fadcf19ee70a498d3030e2e79cf929a4
     Pseudo is Ultrasoft, Zval =  6.0
     Generated by new atomic code, or converted to UPF format
     Using radial grid of 1269 points,  4 beta functions with: 
                l(1) =   0
                l(2) =   0
                l(3) =   1
                l(4) =   1
     Q(r) pseudized with 0 coefficients 


     atomic species   valence    mass     pseudopotential
        H              1.00     1.00000     H ( 1.00)
        O              6.00    16.00000     O ( 1.00)

     No symmetry found



   Cartesian axes

     site n.     atom                  positions (alat units)
         1           O   tau(   1) = (   1.1790000   1.2050000   1.1500000  )
         2           H   tau(   2) = (   1.3450000   1.1220000   1.1500000  )
         3           H   tau(   3) = (   1.0560000   1.0660000   1.1500000  )

     number of k points=     1
                       cart. coord. in units 2pi/alat
        k(    1) = (   0.0000000   0.0000000   0.0000000), wk =   2.0000000

     Dense  grid:    43828 G-vectors     FFT dimensions: (  60,  60,  60)

     Smooth grid:    11060 G-vectors     FFT dimensions: (  36,  36,  36)

     Estimated max dynamical RAM per process >      67.04 MB

     Initial potential from superposition of free atoms

     starting charge    7.80759, renormalised to    8.00000
     Starting wfcs are    6 randomized atomic wfcs

     total cpu time spent up to now is        5.1 secs

     Self-consistent Calculation

     iteration #  1     ecut=    30.00 Ry     beta= 0.70
     Davidson diagonalization with overlap
     ethr =  1.00E-02,  avg # of iterations =  2.0

     add environment contribution to local potential
     polarization accuracy = 1.7E-06, # of iterations =  11

     total cpu time spent up to now is       13.5 secs

     total energy              =     -34.06984359 Ry
     estimated scf accuracy    <       0.63666317 Ry
     electrostatic embedding   =       0.00000000 Ry
     correction to one-el term =      -0.00000000 Ry

     iteration #  2     ecut=    30.00 Ry     beta= 0.70
     Davidson diagonalization with overlap
     ethr =  7.96E-03,  avg # of iterations =  2.0

     add environment contribution to local potential
     polarization accuracy = 1.2E-06, # of iterations =  11

     total cpu time spent up to now is       22.2 secs

     total energy              =     -34.20758542 Ry
     estimated scf accuracy    <       0.32800440 Ry
     electrostatic embedding   =      -0.00577866 Ry
     correction to one-el term =       0.38299670 Ry

     iteration #  3     ecut=    30.00 Ry     beta= 0.70
     Davidson diagonalization with overlap
     ethr =  4.10E-03,  avg # of iterations =  2.0

     add environment contribution to local potential
     polarization accuracy = 9.4E-07, # of iterations =  11

     total cpu time spent up to now is       31.0 secs

     total energy              =     -34.26524556 Ry
     estimated scf accuracy    <       0.00725718 Ry
     electrostatic embedding   =      -0.00406748 Ry
     correction to one-el term =       0.40179623 Ry

     iteration #  4     ecut=    30.00 Ry     beta= 0.70
     Davidson diagonalization with overlap
     ethr =  9.07E-05,  avg # of iterations =  2.0

     negative rho (up, down):  1.285E-06 0.000E+00

     the potential shift due to the Gaussian-smeared nuclei is    -0.0063 ev

     total cpu time spent up to now is       31.6 secs

     End of self-consistent calculation

          k = 0.0000 0.0000 0.0000 (  1389 PWs)   bands (ev):

   -24.8382 -12.6680  -8.9218  -6.9072

     highest occupied level (ev):    -6.9072

!    total energy              =     -34.26658405 Ry
     estimated scf accuracy    <       0.00082548 Ry

     The total energy is the sum of the following terms:
     one-electron contribution =     -46.91875660 Ry
     hartree contribution      =      25.07071959 Ry
     xc contribution           =      -8.42503418 Ry
     ewald contribution        =      -4.33512441 Ry
     electrostatic embedding   =      -0.00397484 Ry
     correction to one-el term =       0.34558639 Ry

     convergence has been achieved in   4 iterations
 forces lc
       1   -0.0000   -0.0001   -0.0000
       2   -0.0000   -0.0000   -0.0000
       3    0.0000    0.0000   -0.0000

     Forces acting on atoms (cartesian axes, Ry/au):

     atom    1 type  2   force =     0.00285814   -0.00005295   -0.00001538
     atom    2 type  1   force =    -0.02598294   -0.00341644    0.00000735
     atom    3 type  1   force =     0.02312480    0.00346939    0.00000803

     Total force =     0.035238     Total SCF correction =     0.036745
     SCF correction compared to forces is large: reduce conv_thr to get better values

     Writing output data file /Users/gabrielmedrano/Desktop/q-e/Environ/tests/../..//tempdir/pwscf.save/

     init_run     :      4.61s CPU      5.06s WALL (       1 calls)
     electrons    :     24.87s CPU     26.52s WALL (       1 calls)
     forces       :      1.91s CPU      2.17s WALL (       1 calls)

     Called by init_run:
     wfcinit      :      0.00s CPU      0.00s WALL (       1 calls)
     potinit      :      0.50s CPU      0.52s WALL (       1 calls)
     hinit0       :      3.57s CPU      3.77s WALL (       1 calls)

     Called by electrons:
     c_bands      :      0.03s CPU      0.07s WALL (       4 calls)
     sum_band     :      0.18s CPU      0.12s WALL (       4 calls)
     v_of_rho     :      0.37s CPU      0.43s WALL (       5 calls)
     newd         :      0.09s CPU      0.12s WALL (       5 calls)
     mix_rho      :      0.02s CPU      0.03s WALL (       4 calls)

     Called by c_bands:
     init_us_2    :      0.00s CPU      0.00s WALL (       9 calls)
     regterg      :      0.03s CPU      0.07s WALL (       4 calls)

     Called by *egterg:
     rdiaghg      :      0.00s CPU      0.00s WALL (      12 calls)
     h_psi        :      0.02s CPU      0.04s WALL (      13 calls)
     s_psi        :      0.00s CPU      0.02s WALL (      13 calls)
     g_psi        :      0.00s CPU      0.00s WALL (       8 calls)

     Called by h_psi:
     h_psi:calbec :      0.00s CPU      0.00s WALL (      13 calls)
     vloc_psi     :      0.02s CPU      0.02s WALL (      13 calls)
     add_vuspsi   :      0.00s CPU      0.02s WALL (      13 calls)

     General routines
     calbec       :      0.00s CPU      0.00s WALL (      21 calls)
     fft          :     15.98s CPU     16.69s WALL (     152 calls)
     ffts         :      0.00s CPU      0.00s WALL (       9 calls)
     fftw         :      0.02s CPU      0.02s WALL (      62 calls)
     interpolate  :      0.02s CPU      0.03s WALL (       5 calls)

     Parallel routines
     fft_scatt_xy :      1.67s CPU      1.68s WALL (      95 calls)
     fft_scatt_yz :      2.22s CPU      2.23s WALL (      95 calls)

     Environ routines
     calc_eelect  :      0.03s CPU      0.03s WALL (       8 calls)
     calc_velect  :     19.39s CPU     20.49s WALL (       6 calls)
     dielectric   :      0.41s CPU      0.47s WALL (       2 calls)
     calc_felect  :      0.68s CPU      0.76s WALL (       1 calls)

     PWSCF        :     31.44s CPU     33.89s WALL


   This run was terminated on:  15:35: 8  20Apr2021            

=------------------------------------------------------------------------------=
   JOB DONE.
=------------------------------------------------------------------------------=
 Calling electrostatic_initbase now
 electrolyte_distance:    0.0000000000000000     
 sc_distance:    0.0000000000000000     
 velectrostatic started
 vreference created

%%%% IONS %%%%%%%%%%%%%%%%%%%%%%%%%%%%%%%%%%%%%%%%%%%%%%%%%%%%%%%%%%%%%%%%%%%%%%
 number of ions             =          3
 ionic center of charge     =      1.1843750     1.1772500     1.1500000
 total ionic charge         =     -8.0000000
 ionic dipole               =      0.0000000     0.0000000     0.0000000
 ionic quadrupole (pc)      =     -4.2453875    -2.0049500     0.0000000
 ionic quadrupole (gauss)   =     -5.2453875    -3.0049500    -1.0000000
 ion   1 type =  2 coordinates =     11.7900000    12.0500000    11.5000000
 ion   2 type =  1 coordinates =     13.4500000    11.2200000    11.5000000
 ion   3 type =  1 coordinates =     10.5600000    10.6600000    11.5000000

%%%% SYSTEM %%%%%%%%%%%%%%%%%%%%%%%%%%%%%%%%%%%%%%%%%%%%%%%%%%%%%%%%%%%%%%%%%%%%
 system is built from all present ionic types
 system defined dimension   =  0 
 system defined axis        =  3 
 system center              =      1.1843750     1.1772500     1.1500000 
 system width               =      0.1698726 

%%%% IONS %%%%%%%%%%%%%%%%%%%%%%%%%%%%%%%%%%%%%%%%%%%%%%%%%%%%%%%%%%%%%%%%%%%%%%
 number of ions             =          3
 ionic center of charge     =      1.1843750     1.1772500     1.1500000
 total ionic charge         =     -8.0000000
 ionic dipole               =      0.0000000     0.0000000     0.0000000
 ionic quadrupole (pc)      =     -4.2453875    -2.0049500     0.0000000
 ionic quadrupole (gauss)   =     -5.2453875    -3.0049500    -1.0000000
 ion   1 type =  2 coordinates =     11.7900000    12.0500000    11.5000000
 ion   2 type =  1 coordinates =     13.4500000    11.2200000    11.5000000
 ion   3 type =  1 coordinates =     10.5600000    10.6600000    11.5000000

%%%% SYSTEM %%%%%%%%%%%%%%%%%%%%%%%%%%%%%%%%%%%%%%%%%%%%%%%%%%%%%%%%%%%%%%%%%%%%
 system is built from all present ionic types
 system defined dimension   =  0 
 system defined axis        =  3 
 system center              =      1.1843750     1.1772500     1.1500000 
 system width               =      0.1698726 

%%%% BOUNDARY %%%%%%%%%%%%%%%%%%%%%%%%%%%%%%%%%%%%%%%%%%%%%%%%%%%%%%%%%%%%%%%%%%
 boundary label             = solvent              
 boundary mode              = system               
 boundary is built as an analytic function centered on system position
 center of the boundary     =      1.1843750     1.1772500     1.1500000 
 distance from the center   =      6.0000000 
 spread of the interface    =      0.5000000 
 dimensionality             =  0 
 axis                       =  3 
 volume of the QM region    =    914.2034622 
 surface of the QM region   =    453.9601384 

%%%% DIELECTRIC %%%%%%%%%%%%%%%%%%%%%%%%%%%%%%%%%%%%%%%%%%%%%%%%%%%%%%%%%%%%%%%%%
 dielectric build on homogeneous background
 environment bulk permitt.  =    100.0000000 
 dielectric flags
 need gradient              =  F 
 need factor depend. sqrt   =  T 
 total dielectric charge    =      0.0000000

%%%% ELECTRONS %%%%%%%%%%%%%%%%%%%%%%%%%%%%%%%%%%%%%%%%%%%%%%%%%%%%%%%%%%%%%%%%%
 number of electrons        =          8
 total electronic charge    =      8.0000000

%%%% ELECTRONS %%%%%%%%%%%%%%%%%%%%%%%%%%%%%%%%%%%%%%%%%%%%%%%%%%%%%%%%%%%%%%%%%
 number of electrons        =          8
 total electronic charge    =      8.0000000

%%%% DENSITY %%%%%%%%%%%%%%%%%%%%%%%%%%%%%%%%%%%%%%%%%%%%%%%%%%%%%%%%%%%%%%%%%%%
 density label              = dvtot                                                                           
 integral of density        =      0.000000000    

%%%% DENSITY %%%%%%%%%%%%%%%%%%%%%%%%%%%%%%%%%%%%%%%%%%%%%%%%%%%%%%%%%%%%%%%%%%%
 density label              = vreference                                                                      
 integral of density        =      0.000000000    

%%%% DENSITY %%%%%%%%%%%%%%%%%%%%%%%%%%%%%%%%%%%%%%%%%%%%%%%%%%%%%%%%%%%%%%%%%%%
 density label              = velectrostatic                                                                  
 integral of density        =      0.000000000    

%%%% CHARGES %%%%%%%%%%%%%%%%%%%%%%%%%%%%%%%%%%%%%%%%%%%%%%%%%%%%%%%%%%%%%%%%%%%
 total number of charges    =         11
 total charge               =     -0.0000000

%%%% ELECTRONS %%%%%%%%%%%%%%%%%%%%%%%%%%%%%%%%%%%%%%%%%%%%%%%%%%%%%%%%%%%%%%%%%
 number of electrons        =          8
 total electronic charge    =      8.0000000

%%%% ELECTRONS %%%%%%%%%%%%%%%%%%%%%%%%%%%%%%%%%%%%%%%%%%%%%%%%%%%%%%%%%%%%%%%%%
 number of electrons        =          8
 total electronic charge    =      8.0000000

%%%% DENSITY %%%%%%%%%%%%%%%%%%%%%%%%%%%%%%%%%%%%%%%%%%%%%%%%%%%%%%%%%%%%%%%%%%%
 density label              = vreference                                                                      
 integral of density        =    -0.3090908445E-12

%%%% COMPUTE ELECTROSTATIC POTENTIAL %%%%%%%%%%%%%%%%%%%%%%%%%%%%%%%%%%%%%%%%%%%
 Iteration #          1
  pAp =    26.345102534617833       rzold =    26.207692161290481       alpha =   0.99478421565652320     
 delta_qm =   0.248124E-02 delta_en =   0.359050E+02 tol =   0.100000E-04
 Iteration #          2
  pAp =    10.750801844721588       rzold =    1.1050914711801623       alpha =   0.10279153937924532     
 delta_qm =   0.602430E-03 delta_en =   0.211656E+01 tol =   0.100000E-04
 Iteration #          3
  pAp =   0.75606306270097767       rzold =    6.7150769508439942E-002  alpha =    8.8816360461452692E-002
 delta_qm =   0.185445E-03 delta_en =   0.200563E+00 tol =   0.100000E-04
 Iteration #          4
  pAp =    2.1972685946379741E-002  rzold =    3.6733548991467191E-003  alpha =   0.16717823702167589     
 delta_qm =   0.901758E-04 delta_en =   0.474239E-01 tol =   0.100000E-04
 Iteration #          5
  pAp =    3.4499478859363727E-004  rzold =    1.4265526219950009E-004  alpha =   0.41349975975298275     
 delta_qm =   0.514372E-04 delta_en =   0.154302E-01 tol =   0.100000E-04
 Iteration #          6
  pAp =    1.3065268643534643E-004  rzold =    5.8655925225068584E-005  alpha =   0.44894542030021334     
 delta_qm =   0.286152E-04 delta_en =   0.477541E-02 tol =   0.100000E-04
 Iteration #          7
  pAp =    6.6954450835107630E-006  rzold =    4.8366571175899821E-006  alpha =   0.72238022375860877     
 delta_qm =   0.198603E-04 delta_en =   0.230032E-02 tol =   0.100000E-04
 Iteration #          8
  pAp =    5.7137533712742241E-006  rzold =    4.6116601027532551E-006  alpha =   0.80711570890306183     
 delta_qm =   0.560625E-05 delta_en =   0.183300E-03 tol =   0.100000E-04
 Iteration #          9
  pAp =    1.8066592268808087E-006  rzold =    5.4243314733646441E-007  alpha =   0.30024098582939379     
 delta_qm =   0.383687E-05 delta_en =   0.858563E-04 tol =   0.100000E-04
 Iteration #         10
  pAp =    4.2328395465046224E-007  rzold =    1.5718720040378744E-007  alpha =   0.37135166281837656     
 delta_qm =   0.197246E-05 delta_en =   0.226899E-04 tol =   0.100000E-04
 Iteration #         11
  pAp =    7.9341711185812751E-008  rzold =    4.2169733218992035E-008  alpha =   0.53149513148554939     
 delta_qm =   0.543676E-06 delta_en =   0.172384E-05 tol =   0.100000E-04
 Charges are converged, EXIT

%%%% DENSITY %%%%%%%%%%%%%%%%%%%%%%%%%%%%%%%%%%%%%%%%%%%%%%%%%%%%%%%%%%%%%%%%%%%
 density label              = velectrostatic                                                                  
 integral of density        =    -0.3946696556E-11

%%%% CHARGES %%%%%%%%%%%%%%%%%%%%%%%%%%%%%%%%%%%%%%%%%%%%%%%%%%%%%%%%%%%%%%%%%%%
 total number of charges    =         11
 total charge               =     -0.0000000

%%%% DENSITY %%%%%%%%%%%%%%%%%%%%%%%%%%%%%%%%%%%%%%%%%%%%%%%%%%%%%%%%%%%%%%%%%%%
 density label              = dvtot                                                                           
 integral of density        =     -52.00468177    

%%%% ELECTRONS %%%%%%%%%%%%%%%%%%%%%%%%%%%%%%%%%%%%%%%%%%%%%%%%%%%%%%%%%%%%%%%%%
 number of electrons        =          8
 total electronic charge    =      8.0000000

%%%% ELECTRONS %%%%%%%%%%%%%%%%%%%%%%%%%%%%%%%%%%%%%%%%%%%%%%%%%%%%%%%%%%%%%%%%%
 number of electrons        =          8
 total electronic charge    =      8.0000000

%%%% DENSITY %%%%%%%%%%%%%%%%%%%%%%%%%%%%%%%%%%%%%%%%%%%%%%%%%%%%%%%%%%%%%%%%%%%
 density label              = vreference                                                                      
 integral of density        =     0.3895887599E-12

%%%% COMPUTE ELECTROSTATIC POTENTIAL %%%%%%%%%%%%%%%%%%%%%%%%%%%%%%%%%%%%%%%%%%%
 Warning: bad guess with residual norm =   0.218813E+02, reset to no guess
 Iteration #          1
  pAp =    28.473784626054272       rzold =    28.390325105626843       alpha =   0.99706889963791256     
 delta_qm =   0.193234E-02 delta_en =   0.217763E+02 tol =   0.100000E-04
 Iteration #          2
  pAp =    5.7862610150944196       rzold =   0.63320478970470573       alpha =   0.10943246218117127     
 delta_qm =   0.431989E-03 delta_en =   0.108833E+01 tol =   0.100000E-04
 Iteration #          3
  pAp =   0.35161315882468946       rzold =    3.1988341316162808E-002  alpha =    9.0975950453867541E-002
 delta_qm =   0.153526E-03 delta_en =   0.137461E+00 tol =   0.100000E-04
 Iteration #          4
  pAp =    2.0061124914857797E-002  rzold =    3.0165019087738019E-003  alpha =   0.15036554139293062     
 delta_qm =   0.744578E-04 delta_en =   0.323324E-01 tol =   0.100000E-04
 Iteration #          5
  pAp =    2.3054623097420600E-004  rzold =    9.6600696832846813E-005  alpha =   0.41900792055739444     
 delta_qm =   0.432195E-04 delta_en =   0.108938E-01 tol =   0.100000E-04
 Iteration #          6
  pAp =    8.5697262844788106E-005  rzold =    3.9458336625449663E-005  alpha =   0.46043870382319241     
 delta_qm =   0.251402E-04 delta_en =   0.368601E-02 tol =   0.100000E-04
 Iteration #          7
  pAp =    5.5200738640064272E-006  rzold =    3.8527543440138492E-006  alpha =   0.69795340405418949     
 delta_qm =   0.176115E-04 delta_en =   0.180889E-02 tol =   0.100000E-04
 Iteration #          8
  pAp =    4.3006288292282731E-006  rzold =    3.5302349186441617E-006  alpha =   0.82086482205850930     
 delta_qm =   0.469427E-05 delta_en =   0.128515E-03 tol =   0.100000E-04
 Iteration #          9
  pAp =    1.5380709429080826E-006  rzold =    4.3894233024412407E-007  alpha =   0.28538497022393583     
 delta_qm =   0.322795E-05 delta_en =   0.607674E-04 tol =   0.100000E-04
 Iteration #         10
  pAp =    3.0424298550880624E-007  rzold =    1.1172883356137794E-007  alpha =   0.36723552845277996     
 delta_qm =   0.172464E-05 delta_en =   0.173465E-04 tol =   0.100000E-04
 Iteration #         11
  pAp =    5.0508921009075730E-008  rzold =    2.8489132257388084E-008  alpha =   0.56404159281622734     
 delta_qm =   0.449269E-06 delta_en =   0.117715E-05 tol =   0.100000E-04
 Charges are converged, EXIT

%%%% DENSITY %%%%%%%%%%%%%%%%%%%%%%%%%%%%%%%%%%%%%%%%%%%%%%%%%%%%%%%%%%%%%%%%%%%
 density label              = velectrostatic                                                                  
 integral of density        =    -0.3842336328E-11

%%%% CHARGES %%%%%%%%%%%%%%%%%%%%%%%%%%%%%%%%%%%%%%%%%%%%%%%%%%%%%%%%%%%%%%%%%%%
 total number of charges    =         11
 total charge               =     -0.0000000

%%%% DENSITY %%%%%%%%%%%%%%%%%%%%%%%%%%%%%%%%%%%%%%%%%%%%%%%%%%%%%%%%%%%%%%%%%%%
 density label              = dvtot                                                                           
 integral of density        =     -53.00949665    

%%%% ELECTRONS %%%%%%%%%%%%%%%%%%%%%%%%%%%%%%%%%%%%%%%%%%%%%%%%%%%%%%%%%%%%%%%%%
 number of electrons        =          8
 total electronic charge    =      8.0000000

%%%% ELECTRONS %%%%%%%%%%%%%%%%%%%%%%%%%%%%%%%%%%%%%%%%%%%%%%%%%%%%%%%%%%%%%%%%%
 number of electrons        =          8
 total electronic charge    =      8.0000000

%%%% DENSITY %%%%%%%%%%%%%%%%%%%%%%%%%%%%%%%%%%%%%%%%%%%%%%%%%%%%%%%%%%%%%%%%%%%
 density label              = vreference                                                                      
 integral of density        =     0.3029419565E-12

%%%% COMPUTE ELECTROSTATIC POTENTIAL %%%%%%%%%%%%%%%%%%%%%%%%%%%%%%%%%%%%%%%%%%%
 Warning: bad guess with residual norm =   0.216243E+02, reset to no guess
 Iteration #          1
  pAp =    28.633071933364622       rzold =    28.551319880742881       alpha =   0.99714483822022326     
 delta_qm =   0.192107E-02 delta_en =   0.215230E+02 tol =   0.100000E-04
 Iteration #          2
  pAp =    5.0151855339262745       rzold =   0.59018779484700412       alpha =   0.11768015178193408     
 delta_qm =   0.269411E-03 delta_en =   0.423300E+00 tol =   0.100000E-04
 Iteration #          3
  pAp =    4.9194578217351168E-002  rzold =    8.4391564507282479E-003  alpha =   0.17154647435826001     
 delta_qm =   0.801814E-04 delta_en =   0.374942E-01 tol =   0.100000E-04
 Iteration #          4
  pAp =    1.8614960966672894E-003  rzold =    2.3846063904216968E-004  alpha =   0.12810160572944271     
 delta_qm =   0.564538E-04 delta_en =   0.185868E-01 tol =   0.100000E-04
 Iteration #          5
  pAp =    5.1604389068140547E-004  rzold =    1.2893954108524760E-004  alpha =   0.24986157846959597     
 delta_qm =   0.363243E-04 delta_en =   0.769508E-02 tol =   0.100000E-04
 Iteration #          6
  pAp =    8.3017165931976853E-005  rzold =    3.5935138863619328E-005  alpha =   0.43286395602885430     
 delta_qm =   0.219121E-04 delta_en =   0.280017E-02 tol =   0.100000E-04
 Iteration #          7
  pAp =    4.3612655649289369E-006  rzold =    2.7799423187208626E-006  alpha =   0.63741642817528343     
 delta_qm =   0.158915E-04 delta_en =   0.147281E-02 tol =   0.100000E-04
 Iteration #          8
  pAp =    2.5237281727694619E-006  rzold =    2.2829618535132634E-006  alpha =   0.90459894934247653     
 delta_qm =   0.421133E-05 delta_en =   0.103433E-03 tol =   0.100000E-04
 Iteration #          9
  pAp =    1.4309221850087448E-006  rzold =    4.0499432409031890E-007  alpha =   0.28303029216633735     
 delta_qm =   0.295248E-05 delta_en =   0.508382E-04 tol =   0.100000E-04
 Iteration #         10
  pAp =    2.7254151752939827E-007  rzold =    1.0159617243816611E-007  alpha =   0.37277319565525363     
 delta_qm =   0.159774E-05 delta_en =   0.148877E-04 tol =   0.100000E-04
 Iteration #         11
  pAp =    4.5489974384045477E-008  rzold =    2.5839430608519658E-008  alpha =   0.56802473420565880     
 delta_qm =   0.400808E-06 delta_en =   0.936893E-06 tol =   0.100000E-04
 Charges are converged, EXIT

%%%% DENSITY %%%%%%%%%%%%%%%%%%%%%%%%%%%%%%%%%%%%%%%%%%%%%%%%%%%%%%%%%%%%%%%%%%%
 density label              = velectrostatic                                                                  
 integral of density        =     0.6101734130E-11

%%%% CHARGES %%%%%%%%%%%%%%%%%%%%%%%%%%%%%%%%%%%%%%%%%%%%%%%%%%%%%%%%%%%%%%%%%%%
 total number of charges    =         11
 total charge               =     -0.0000000

%%%% DENSITY %%%%%%%%%%%%%%%%%%%%%%%%%%%%%%%%%%%%%%%%%%%%%%%%%%%%%%%%%%%%%%%%%%%
 density label              = dvtot                                                                           
 integral of density        =     -43.64629467    

%%%% ELECTRONS %%%%%%%%%%%%%%%%%%%%%%%%%%%%%%%%%%%%%%%%%%%%%%%%%%%%%%%%%%%%%%%%%
 number of electrons        =          8
 total electronic charge    =      8.0000000

%%%% ELECTRONS %%%%%%%%%%%%%%%%%%%%%%%%%%%%%%%%%%%%%%%%%%%%%%%%%%%%%%%%%%%%%%%%%
 number of electrons        =          8
 total electronic charge    =      8.0000000

%%%% DENSITY %%%%%%%%%%%%%%%%%%%%%%%%%%%%%%%%%%%%%%%%%%%%%%%%%%%%%%%%%%%%%%%%%%%
 density label              = dvtot                                                                           
 integral of density        =     -43.64629467    

%%%% DENSITY %%%%%%%%%%%%%%%%%%%%%%%%%%%%%%%%%%%%%%%%%%%%%%%%%%%%%%%%%%%%%%%%%%%
 density label              = vreference                                                                      
 integral of density        =     0.3029419565E-12

%%%% DENSITY %%%%%%%%%%%%%%%%%%%%%%%%%%%%%%%%%%%%%%%%%%%%%%%%%%%%%%%%%%%%%%%%%%%
 density label              = velectrostatic                                                                  
 integral of density        =     0.6101734130E-11

%%%% CHARGES %%%%%%%%%%%%%%%%%%%%%%%%%%%%%%%%%%%%%%%%%%%%%%%%%%%%%%%%%%%%%%%%%%%
 total number of charges    =         11
 total charge               =     -0.0000000
