
     Program PWSCF v.6.7+ starts on 20Apr2021 at 12:43:43 

     This program is part of the open-source Quantum ESPRESSO suite
     for quantum simulation of materials; please cite
         "P. Giannozzi et al., J. Phys.:Condens. Matter 21 395502 (2009);
         "P. Giannozzi et al., J. Phys.:Condens. Matter 29 465901 (2017);
          URL http://www.quantum-espresso.org", 
     in publications or presentations arising from this work. More details at
     http://www.quantum-espresso.org/quote

     Parallel version (MPI), running on     1 processors

     MPI processes distributed on     1 nodes
     Reading input from neutral-dblcell.in

     Current dimensions of program PWSCF are:
     Max number of different atomic species (ntypx) = 10
     Max number of k-points (npk) =  40000
     Max angular momentum in pseudopotentials (lmaxx) =  3
     file H.pbe-rrkjus.UPF: wavefunction(s)  1S renormalized
     file O.pbe-rrkjus.UPF: wavefunction(s)  2S renormalized

     gamma-point specific algorithms are used

     Subspace diagonalization in iterative solution of the eigenvalue problem:
     a serial algorithm will be used


     G-vector sticks info
     --------------------
     sticks:   dense  smooth     PW     G-vecs:    dense   smooth      PW
     Sum        2385     949    241                87655    22119    2777



     bravais-lattice index     =            1
     lattice parameter (alat)  =      10.0000  a.u.
     unit-cell volume          =    1000.0000 (a.u.)^3
     number of atoms/cell      =            3
     number of atomic types    =            2
     number of electrons       =         8.00
     number of Kohn-Sham states=            4
     kinetic-energy cutoff     =      30.0000  Ry
     charge density cutoff     =     300.0000  Ry
     scf convergence threshold =      5.0E-03
     mixing beta               =       0.7000
     number of iterations used =            8  plain     mixing
     Exchange-correlation= SLA  PW   PBE  PBE
                           (   1   4   3   4   0   0   0)


     Environ Module
     ==============

     Plese cite
         O. Andreussi, I. Dabo and N. Marzari, J. Chem. Phys. 136, 064102 (2012)         
     in publications or presentations arising from this work.

     compensation onset threshold      =               0.1000E+03 
     static permittivity               =                   100.00 
     epsilon calculation mode          =                    ionic 

     Electrostatic Setup
     -------------------
     electrostatic problem to solve    = generalized              
     numerical solver adopted          = cg                       
     type of auxiliary density adopted = none                     
     type of core tool for poisson     = fft                      



     celldm(1)=  10.000000  celldm(2)=   0.000000  celldm(3)=   0.000000
     celldm(4)=   0.000000  celldm(5)=   0.000000  celldm(6)=   0.000000

     crystal axes: (cart. coord. in units of alat)
               a(1) = (   1.000000   0.000000   0.000000 )  
               a(2) = (   0.000000   1.000000   0.000000 )  
               a(3) = (   0.000000   0.000000   1.000000 )  

     reciprocal axes: (cart. coord. in units 2 pi/alat)
               b(1) = (  1.000000  0.000000  0.000000 )  
               b(2) = (  0.000000  1.000000  0.000000 )  
               b(3) = (  0.000000  0.000000  1.000000 )  


     PseudoPot. # 1 for H  read from file:
     /Users/gabrielmedrano/Desktop/q-e/Environ/tests/../..//pseudo/H.pbe-rrkjus.UPF
     MD5 check sum: 2d52a7f45632fd764c17cc6affed14c8
     Pseudo is Ultrasoft, Zval =  1.0
     Generated by new atomic code, or converted to UPF format
     Using radial grid of 1061 points,  2 beta functions with: 
                l(1) =   0
                l(2) =   0
     Q(r) pseudized with 0 coefficients 


     PseudoPot. # 2 for O  read from file:
     /Users/gabrielmedrano/Desktop/q-e/Environ/tests/../..//pseudo/O.pbe-rrkjus.UPF
     MD5 check sum: fadcf19ee70a498d3030e2e79cf929a4
     Pseudo is Ultrasoft, Zval =  6.0
     Generated by new atomic code, or converted to UPF format
     Using radial grid of 1269 points,  4 beta functions with: 
                l(1) =   0
                l(2) =   0
                l(3) =   1
                l(4) =   1
     Q(r) pseudized with 0 coefficients 


     atomic species   valence    mass     pseudopotential
        H              1.00     1.00000     H ( 1.00)
        O              6.00    16.00000     O ( 1.00)

     No symmetry found



   Cartesian axes

     site n.     atom                  positions (alat units)
         1           O   tau(   1) = (   1.1790000   1.2050000   1.1500000  )
         2           H   tau(   2) = (   1.3450000   1.1220000   1.1500000  )
         3           H   tau(   3) = (   1.0560000   1.0660000   1.1500000  )

     number of k points=     1
                       cart. coord. in units 2pi/alat
        k(    1) = (   0.0000000   0.0000000   0.0000000), wk =   2.0000000

     Dense  grid:    43828 G-vectors     FFT dimensions: (  60,  60,  60)

     Smooth grid:    11060 G-vectors     FFT dimensions: (  36,  36,  36)

     Estimated max dynamical RAM per process >      67.04 MB

     Initial potential from superposition of free atoms

     starting charge    7.80759, renormalised to    8.00000
     Starting wfcs are    6 randomized atomic wfcs

     total cpu time spent up to now is        9.3 secs

     Self-consistent Calculation

     iteration #  1     ecut=    30.00 Ry     beta= 0.70
     Davidson diagonalization with overlap
     ethr =  1.00E-02,  avg # of iterations =  2.0

     add environment contribution to local potential
     polarization accuracy = 4.4E-06, # of iterations =  12

     total cpu time spent up to now is       18.1 secs

     total energy              =     -34.06984359 Ry
     estimated scf accuracy    <       0.63666317 Ry
     electrostatic embedding   =       0.00000000 Ry
     correction to one-el term =      -0.00000000 Ry

     iteration #  2     ecut=    30.00 Ry     beta= 0.70
     Davidson diagonalization with overlap
     ethr =  7.96E-03,  avg # of iterations =  2.0

     add environment contribution to local potential
     polarization accuracy = 4.8E-06, # of iterations =  12

     total cpu time spent up to now is       27.4 secs

     total energy              =     -34.24635809 Ry
     estimated scf accuracy    <       0.27191984 Ry
     electrostatic embedding   =      -0.04819838 Ry
     correction to one-el term =       0.11342540 Ry

     iteration #  3     ecut=    30.00 Ry     beta= 0.70
     Davidson diagonalization with overlap
     ethr =  3.40E-03,  avg # of iterations =  2.0

     add environment contribution to local potential
     polarization accuracy = 4.7E-06, # of iterations =  12

     total cpu time spent up to now is       36.8 secs

     total energy              =     -34.29814587 Ry
     estimated scf accuracy    <       0.00720030 Ry
     electrostatic embedding   =      -0.04042642 Ry
     correction to one-el term =       0.18448082 Ry

     iteration #  4     ecut=    30.00 Ry     beta= 0.70
     Davidson diagonalization with overlap
     ethr =  9.00E-05,  avg # of iterations =  2.0

     negative rho (up, down):  1.251E-06 0.000E+00

     the potential shift due to the Gaussian-smeared nuclei is    -0.0063 ev

     total cpu time spent up to now is       37.4 secs

     End of self-consistent calculation

          k = 0.0000 0.0000 0.0000 (  1389 PWs)   bands (ev):

   -24.6727 -12.3882  -9.0041  -7.0158

     highest occupied level (ev):    -7.0158

!    total energy              =     -34.30164228 Ry
     estimated scf accuracy    <       0.00078335 Ry

     The total energy is the sum of the following terms:
     one-electron contribution =     -47.04615065 Ry
     hartree contribution      =      25.17258288 Ry
     xc contribution           =      -8.43445894 Ry
     ewald contribution        =      -4.33512441 Ry
     electrostatic embedding   =      -0.04399951 Ry
     correction to one-el term =       0.38550835 Ry

     convergence has been achieved in   4 iterations
 forces lc
       1    0.0003   -0.0001    0.0004
       2   -0.0000    0.0000   -0.0000
       3    0.0000   -0.0000    0.0000

     Forces acting on atoms (cartesian axes, Ry/au):

     atom    1 type  2   force =    -0.03291527    0.18601644    0.00021866
     atom    2 type  1   force =    -0.03426591   -0.10126780   -0.00010936
     atom    3 type  1   force =     0.06718118   -0.08474864   -0.00010930

     Total force =     0.242509     Total SCF correction =     0.034372
     SCF correction compared to forces is large: reduce conv_thr to get better values

     Writing output data file /Users/gabrielmedrano/Desktop/q-e/Environ/tests/../..//tempdir/pwscf.save/

     init_run     :      8.35s CPU      9.22s WALL (       1 calls)
     electrons    :     26.45s CPU     28.16s WALL (       1 calls)
     forces       :      6.42s CPU      6.85s WALL (       1 calls)

     Called by init_run:
     wfcinit      :      0.00s CPU      0.01s WALL (       1 calls)
     potinit      :      0.49s CPU      0.55s WALL (       1 calls)
     hinit0       :      7.36s CPU      7.95s WALL (       1 calls)

     Called by electrons:
     c_bands      :      0.03s CPU      0.07s WALL (       4 calls)
     sum_band     :      0.17s CPU      0.11s WALL (       4 calls)
     v_of_rho     :      0.35s CPU      0.44s WALL (       5 calls)
     newd         :      0.09s CPU      0.13s WALL (       5 calls)
     mix_rho      :      0.02s CPU      0.03s WALL (       4 calls)

     Called by c_bands:
     init_us_2    :      0.00s CPU      0.00s WALL (       9 calls)
     regterg      :      0.03s CPU      0.07s WALL (       4 calls)

     Called by *egterg:
     rdiaghg      :      0.00s CPU      0.00s WALL (      12 calls)
     h_psi        :      0.02s CPU      0.06s WALL (      13 calls)
     s_psi        :      0.00s CPU      0.00s WALL (      13 calls)
     g_psi        :      0.00s CPU      0.00s WALL (       8 calls)

     Called by h_psi:
     h_psi:calbec :      0.00s CPU      0.00s WALL (      13 calls)
     vloc_psi     :      0.02s CPU      0.02s WALL (      13 calls)
     add_vuspsi   :      0.00s CPU      0.04s WALL (      13 calls)

     General routines
     calbec       :      0.00s CPU      0.00s WALL (      21 calls)
     fft          :     17.12s CPU     17.87s WALL (     158 calls)
     ffts         :      0.00s CPU      0.00s WALL (       9 calls)
     fftw         :      0.02s CPU      0.02s WALL (      62 calls)
     interpolate  :      0.02s CPU      0.03s WALL (       5 calls)

     Parallel routines
     fft_scatt_xy :      1.75s CPU      1.75s WALL (     101 calls)
     fft_scatt_yz :      2.32s CPU      2.33s WALL (     101 calls)

     Environ routines
     calc_eelect  :      0.03s CPU      0.03s WALL (       8 calls)
     calc_velect  :     21.16s CPU     22.28s WALL (       6 calls)
     dielectric   :      0.42s CPU      0.47s WALL (       2 calls)
     calc_felect  :      0.71s CPU      0.80s WALL (       1 calls)

     PWSCF        :     41.27s CPU     44.42s WALL


   This run was terminated on:  12:44:28  20Apr2021            

=------------------------------------------------------------------------------=
   JOB DONE.
=------------------------------------------------------------------------------=
 Calling electrostatic_initbase now
 electrolyte_distance:    0.0000000000000000     
 sc_distance:    0.0000000000000000     
 velectrostatic started
 vreference created

%%%% IONS %%%%%%%%%%%%%%%%%%%%%%%%%%%%%%%%%%%%%%%%%%%%%%%%%%%%%%%%%%%%%%%%%%%%%%
 number of ions             =          3
 ionic center of charge     =      1.1843750     1.1772500     1.1500000
 total ionic charge         =     -8.0000000
 ionic dipole               =      0.0000000     0.0000000     0.0000000
 ionic quadrupole (pc)      =     -4.2453875    -2.0049500     0.0000000
 ionic quadrupole (gauss)   =     -5.2453875    -3.0049500    -1.0000000
 ion   1 type =  2 coordinates =     11.7900000    12.0500000    11.5000000
 ion   2 type =  1 coordinates =     13.4500000    11.2200000    11.5000000
 ion   3 type =  1 coordinates =     10.5600000    10.6600000    11.5000000

%%%% SYSTEM %%%%%%%%%%%%%%%%%%%%%%%%%%%%%%%%%%%%%%%%%%%%%%%%%%%%%%%%%%%%%%%%%%%%
 system is built from all present ionic types
 system defined dimension   =  0 
 system defined axis        =  3 
 system center              =      1.1843750     1.1772500     1.1500000 
 system width               =      0.1698726 

%%%% IONS %%%%%%%%%%%%%%%%%%%%%%%%%%%%%%%%%%%%%%%%%%%%%%%%%%%%%%%%%%%%%%%%%%%%%%
 number of ions             =          3
 ionic center of charge     =      1.1843750     1.1772500     1.1500000
 total ionic charge         =     -8.0000000
 ionic dipole               =      0.0000000     0.0000000     0.0000000
 ionic quadrupole (pc)      =     -4.2453875    -2.0049500     0.0000000
 ionic quadrupole (gauss)   =     -5.2453875    -3.0049500    -1.0000000
 ion   1 type =  2 coordinates =     11.7900000    12.0500000    11.5000000
 ion   2 type =  1 coordinates =     13.4500000    11.2200000    11.5000000
 ion   3 type =  1 coordinates =     10.5600000    10.6600000    11.5000000

%%%% SYSTEM %%%%%%%%%%%%%%%%%%%%%%%%%%%%%%%%%%%%%%%%%%%%%%%%%%%%%%%%%%%%%%%%%%%%
 system is built from all present ionic types
 system defined dimension   =  0 
 system defined axis        =  3 
 system center              =      1.1843750     1.1772500     1.1500000 
 system width               =      0.1698726 

%%%% BOUNDARY %%%%%%%%%%%%%%%%%%%%%%%%%%%%%%%%%%%%%%%%%%%%%%%%%%%%%%%%%%%%%%%%%%
 boundary label             = solvent              
 boundary mode              = ionic                
 boundary is built from soft-spheres centered on ionic positions
 solvent-dependent scaling  =      1.0000000 
 softness parameter         =      0.5000000 
 volume of the QM region    =    211.8920528 
 surface of the QM region   =    173.6178424 

%%%% DIELECTRIC %%%%%%%%%%%%%%%%%%%%%%%%%%%%%%%%%%%%%%%%%%%%%%%%%%%%%%%%%%%%%%%%%
 dielectric build on homogeneous background
 environment bulk permitt.  =    100.0000000 
 dielectric flags
 need gradient              =  F 
 need factor depend. sqrt   =  T 
 total dielectric charge    =      0.0000000

%%%% ELECTRONS %%%%%%%%%%%%%%%%%%%%%%%%%%%%%%%%%%%%%%%%%%%%%%%%%%%%%%%%%%%%%%%%%
 number of electrons        =          8
 total electronic charge    =      8.0000000

%%%% ELECTRONS %%%%%%%%%%%%%%%%%%%%%%%%%%%%%%%%%%%%%%%%%%%%%%%%%%%%%%%%%%%%%%%%%
 number of electrons        =          8
 total electronic charge    =      8.0000000

%%%% DENSITY %%%%%%%%%%%%%%%%%%%%%%%%%%%%%%%%%%%%%%%%%%%%%%%%%%%%%%%%%%%%%%%%%%%
 density label              = dvtot                                                                           
 integral of density        =      0.000000000    

%%%% DENSITY %%%%%%%%%%%%%%%%%%%%%%%%%%%%%%%%%%%%%%%%%%%%%%%%%%%%%%%%%%%%%%%%%%%
 density label              = vreference                                                                      
 integral of density        =      0.000000000    

%%%% DENSITY %%%%%%%%%%%%%%%%%%%%%%%%%%%%%%%%%%%%%%%%%%%%%%%%%%%%%%%%%%%%%%%%%%%
 density label              = velectrostatic                                                                  
 integral of density        =      0.000000000    

%%%% CHARGES %%%%%%%%%%%%%%%%%%%%%%%%%%%%%%%%%%%%%%%%%%%%%%%%%%%%%%%%%%%%%%%%%%%
 total number of charges    =         11
 total charge               =     -0.0000000

%%%% ELECTRONS %%%%%%%%%%%%%%%%%%%%%%%%%%%%%%%%%%%%%%%%%%%%%%%%%%%%%%%%%%%%%%%%%
 number of electrons        =          8
 total electronic charge    =      8.0000000

%%%% ELECTRONS %%%%%%%%%%%%%%%%%%%%%%%%%%%%%%%%%%%%%%%%%%%%%%%%%%%%%%%%%%%%%%%%%
 number of electrons        =          8
 total electronic charge    =      8.0000000

%%%% DENSITY %%%%%%%%%%%%%%%%%%%%%%%%%%%%%%%%%%%%%%%%%%%%%%%%%%%%%%%%%%%%%%%%%%%
 density label              = vreference                                                                      
 integral of density        =    -0.3090908445E-12

%%%% COMPUTE ELECTROSTATIC POTENTIAL %%%%%%%%%%%%%%%%%%%%%%%%%%%%%%%%%%%%%%%%%%%
 Iteration #          1
  pAp =    27.530543069550770       rzold =    26.245878594992615       alpha =   0.95333675506099935     
 delta_qm =   0.824935E-02 delta_en =   0.396878E+03 tol =   0.100000E-04
 Iteration #          2
  pAp =    140.21968778639422       rzold =    11.846549629704823       alpha =    8.4485636908216796E-002
 delta_qm =   0.220528E-02 delta_en =   0.283626E+02 tol =   0.100000E-04
 Iteration #          3
  pAp =    3.0325085010330439       rzold =   0.49552172727402183       alpha =   0.16340324424654346     
 delta_qm =   0.527375E-03 delta_en =   0.162202E+01 tol =   0.100000E-04
 Iteration #          4
  pAp =    5.0450863105052292E-002  rzold =    1.2020302996012991E-002  alpha =   0.23825762843706919     
 delta_qm =   0.278796E-03 delta_en =   0.453305E+00 tol =   0.100000E-04
 Iteration #          5
  pAp =    1.3089678493059924E-003  rzold =    8.2266026649066223E-004  alpha =   0.62848011654895286     
 delta_qm =   0.672647E-04 delta_en =   0.263871E-01 tol =   0.100000E-04
 Iteration #          6
  pAp =    3.2159773957192439E-004  rzold =    1.0961850678836711E-004  alpha =   0.34085596165656895     
 delta_qm =   0.377832E-04 delta_en =   0.832558E-02 tol =   0.100000E-04
 Iteration #          7
  pAp =    1.8748860222372779E-005  rzold =    1.0312961769952850E-005  alpha =   0.55005806473753116     
 delta_qm =   0.258786E-04 delta_en =   0.390570E-02 tol =   0.100000E-04
 Iteration #          8
  pAp =    2.1061237441467774E-005  rzold =    8.1257800358268269E-006  alpha =   0.38581683808510991     
 delta_qm =   0.179793E-04 delta_en =   0.188522E-02 tol =   0.100000E-04
 Iteration #          9
  pAp =    1.5649157802864860E-005  rzold =    6.1895021722849347E-006  alpha =   0.39551663100693091     
 delta_qm =   0.111933E-04 delta_en =   0.730689E-03 tol =   0.100000E-04
 Iteration #         10
  pAp =    1.7387237753399752E-006  rzold =    9.1042906180686947E-007  alpha =   0.52361914797469877     
 delta_qm =   0.578340E-05 delta_en =   0.195067E-03 tol =   0.100000E-04
 Iteration #         11
  pAp =    3.2164142710099883E-007  rzold =    2.0491993789066994E-007  alpha =   0.63710679229862666     
 delta_qm =   0.152517E-05 delta_en =   0.135660E-04 tol =   0.100000E-04
 Iteration #         12
  pAp =    3.9996851366023305E-008  rzold =    2.1502205472177896E-008  alpha =   0.53759745424470295     
 delta_qm =   0.864580E-06 delta_en =   0.435941E-05 tol =   0.100000E-04
 Charges are converged, EXIT

%%%% DENSITY %%%%%%%%%%%%%%%%%%%%%%%%%%%%%%%%%%%%%%%%%%%%%%%%%%%%%%%%%%%%%%%%%%%
 density label              = velectrostatic                                                                  
 integral of density        =    -0.5102401677E-11

%%%% CHARGES %%%%%%%%%%%%%%%%%%%%%%%%%%%%%%%%%%%%%%%%%%%%%%%%%%%%%%%%%%%%%%%%%%%
 total number of charges    =         11
 total charge               =     -0.0000000

%%%% DENSITY %%%%%%%%%%%%%%%%%%%%%%%%%%%%%%%%%%%%%%%%%%%%%%%%%%%%%%%%%%%%%%%%%%%
 density label              = dvtot                                                                           
 integral of density        =     -41.18432100    

%%%% ELECTRONS %%%%%%%%%%%%%%%%%%%%%%%%%%%%%%%%%%%%%%%%%%%%%%%%%%%%%%%%%%%%%%%%%
 number of electrons        =          8
 total electronic charge    =      8.0000000

%%%% ELECTRONS %%%%%%%%%%%%%%%%%%%%%%%%%%%%%%%%%%%%%%%%%%%%%%%%%%%%%%%%%%%%%%%%%
 number of electrons        =          8
 total electronic charge    =      8.0000000

%%%% DENSITY %%%%%%%%%%%%%%%%%%%%%%%%%%%%%%%%%%%%%%%%%%%%%%%%%%%%%%%%%%%%%%%%%%%
 density label              = vreference                                                                      
 integral of density        =    -0.1059184633E-11

%%%% COMPUTE ELECTROSTATIC POTENTIAL %%%%%%%%%%%%%%%%%%%%%%%%%%%%%%%%%%%%%%%%%%%
 Warning: bad guess with residual norm =   0.391903E+03, reset to no guess
 Iteration #          1
  pAp =    29.598785894563811       rzold =    28.430937773016129       alpha =   0.96054405320178449     
 delta_qm =   0.792450E-02 delta_en =   0.366236E+03 tol =   0.100000E-04
 Iteration #          2
  pAp =    137.62834409990455       rzold =    11.362253891194545       alpha =    8.2557513610326330E-002
 delta_qm =   0.193774E-02 delta_en =   0.218982E+02 tol =   0.100000E-04
 Iteration #          3
  pAp =    2.1444656682985848       rzold =   0.35956656040110652       alpha =   0.16767186610470941     
 delta_qm =   0.489798E-03 delta_en =   0.139911E+01 tol =   0.100000E-04
 Iteration #          4
  pAp =    4.0602148477205155E-002  rzold =    9.6579805420357271E-003  alpha =   0.23786870656507025     
 delta_qm =   0.268192E-03 delta_en =   0.419479E+00 tol =   0.100000E-04
 Iteration #          5
  pAp =    1.1250270179681491E-003  rzold =    7.1848209658486293E-004  alpha =   0.63863541506983079     
 delta_qm =   0.641365E-04 delta_en =   0.239898E-01 tol =   0.100000E-04
 Iteration #          6
  pAp =    2.6822558516922479E-004  rzold =    8.9827153594543557E-005  alpha =   0.33489405396532618     
 delta_qm =   0.394806E-04 delta_en =   0.909043E-02 tol =   0.100000E-04
 Iteration #          7
  pAp =    1.3518726232266843E-005  rzold =    1.0030090951803457E-005  alpha =   0.74194053341086075     
 delta_qm =   0.249226E-04 delta_en =   0.362246E-02 tol =   0.100000E-04
 Iteration #          8
  pAp =    1.7785398142085828E-005  rzold =    8.3100559637694548E-006  alpha =   0.46724036748467590     
 delta_qm =   0.161593E-04 delta_en =   0.152286E-02 tol =   0.100000E-04
 Iteration #          9
  pAp =    2.4253948120043538E-005  rzold =    6.3074866716003107E-006  alpha =   0.26006020299795168     
 delta_qm =   0.111420E-04 delta_en =   0.724015E-03 tol =   0.100000E-04
 Iteration #         10
  pAp =    1.3998878532874860E-006  rzold =    7.8152103331513576E-007  alpha =   0.55827402993733943     
 delta_qm =   0.511039E-05 delta_en =   0.152309E-03 tol =   0.100000E-04
 Iteration #         11
  pAp =    3.2247188677699445E-007  rzold =    1.8530919057703334E-007  alpha =   0.57465223535961751     
 delta_qm =   0.155632E-05 delta_en =   0.141259E-04 tol =   0.100000E-04
 Iteration #         12
  pAp =    3.5384455068843798E-008  rzold =    2.0131493700692433E-008  alpha =   0.56893609528604328     
 delta_qm =   0.905432E-06 delta_en =   0.478111E-05 tol =   0.100000E-04
 Charges are converged, EXIT

%%%% DENSITY %%%%%%%%%%%%%%%%%%%%%%%%%%%%%%%%%%%%%%%%%%%%%%%%%%%%%%%%%%%%%%%%%%%
 density label              = velectrostatic                                                                  
 integral of density        =    -0.5512422408E-11

%%%% CHARGES %%%%%%%%%%%%%%%%%%%%%%%%%%%%%%%%%%%%%%%%%%%%%%%%%%%%%%%%%%%%%%%%%%%
 total number of charges    =         11
 total charge               =     -0.0000000

%%%% DENSITY %%%%%%%%%%%%%%%%%%%%%%%%%%%%%%%%%%%%%%%%%%%%%%%%%%%%%%%%%%%%%%%%%%%
 density label              = dvtot                                                                           
 integral of density        =     -44.95599502    

%%%% ELECTRONS %%%%%%%%%%%%%%%%%%%%%%%%%%%%%%%%%%%%%%%%%%%%%%%%%%%%%%%%%%%%%%%%%
 number of electrons        =          8
 total electronic charge    =      8.0000000

%%%% ELECTRONS %%%%%%%%%%%%%%%%%%%%%%%%%%%%%%%%%%%%%%%%%%%%%%%%%%%%%%%%%%%%%%%%%
 number of electrons        =          8
 total electronic charge    =      8.0000000

%%%% DENSITY %%%%%%%%%%%%%%%%%%%%%%%%%%%%%%%%%%%%%%%%%%%%%%%%%%%%%%%%%%%%%%%%%%%
 density label              = vreference                                                                      
 integral of density        =     0.5281303944E-12

%%%% COMPUTE ELECTROSTATIC POTENTIAL %%%%%%%%%%%%%%%%%%%%%%%%%%%%%%%%%%%%%%%%%%%
 Warning: bad guess with residual norm =   0.265479E+03, reset to no guess
 Iteration #          1
  pAp =    29.358198790541280       rzold =    28.541974133358011       alpha =   0.97219772701293095     
 delta_qm =   0.658919E-02 delta_en =   0.253211E+03 tol =   0.100000E-04
 Iteration #          2
  pAp =    82.098755529861307       rzold =    7.1211822270547165       alpha =    8.6739222550877404E-002
 delta_qm =   0.212055E-02 delta_en =   0.262248E+02 tol =   0.100000E-04
 Iteration #          3
  pAp =    2.9570180285713534       rzold =   0.46339444475125147       alpha =   0.15671005055560475     
 delta_qm =   0.488706E-03 delta_en =   0.139288E+01 tol =   0.100000E-04
 Iteration #          4
  pAp =    4.8526642804046907E-002  rzold =    1.1296865838133049E-002  alpha =   0.23279718491448867     
 delta_qm =   0.246713E-03 delta_en =   0.354979E+00 tol =   0.100000E-04
 Iteration #          5
  pAp =    9.8999744764634670E-004  rzold =    6.3718243573398147E-004  alpha =   0.64362028129349269     
 delta_qm =   0.632301E-04 delta_en =   0.233166E-01 tol =   0.100000E-04
 Iteration #          6
  pAp =    2.7368042199941642E-004  rzold =    9.2233182983002837E-005  alpha =   0.33701052603316839     
 delta_qm =   0.388087E-04 delta_en =   0.878368E-02 tol =   0.100000E-04
 Iteration #          7
  pAp =    1.3538818098248321E-005  rzold =    9.3099853900092813E-006  alpha =   0.68765126486290740     
 delta_qm =   0.241733E-04 delta_en =   0.340792E-02 tol =   0.100000E-04
 Iteration #          8
  pAp =    9.4057457233994611E-006  rzold =    6.1481990702534772E-006  alpha =   0.65366418049746844     
 delta_qm =   0.132173E-04 delta_en =   0.101883E-02 tol =   0.100000E-04
 Iteration #          9
  pAp =    1.8647866425820510E-005  rzold =    3.9955744708423118E-006  alpha =   0.21426443002132914     
 delta_qm =   0.100825E-04 delta_en =   0.592868E-03 tol =   0.100000E-04
 Iteration #         10
  pAp =    1.2423964922981833E-006  rzold =    6.6394557385782896E-007  alpha =   0.53440715421665697     
 delta_qm =   0.478919E-05 delta_en =   0.133764E-03 tol =   0.100000E-04
 Iteration #         11
  pAp =    2.8266759622737736E-007  rzold =    1.5993707042977584E-007  alpha =   0.56581324695287227     
 delta_qm =   0.156649E-05 delta_en =   0.143112E-04 tol =   0.100000E-04
 Iteration #         12
  pAp =    3.5374086850398670E-008  rzold =    2.0526514891797606E-008  alpha =   0.58026981667701394     
 delta_qm =   0.897933E-06 delta_en =   0.470225E-05 tol =   0.100000E-04
 Charges are converged, EXIT

%%%% DENSITY %%%%%%%%%%%%%%%%%%%%%%%%%%%%%%%%%%%%%%%%%%%%%%%%%%%%%%%%%%%%%%%%%%%
 density label              = velectrostatic                                                                  
 integral of density        =    -0.2672915379E-12

%%%% CHARGES %%%%%%%%%%%%%%%%%%%%%%%%%%%%%%%%%%%%%%%%%%%%%%%%%%%%%%%%%%%%%%%%%%%
 total number of charges    =         11
 total charge               =      0.0000000

%%%% DENSITY %%%%%%%%%%%%%%%%%%%%%%%%%%%%%%%%%%%%%%%%%%%%%%%%%%%%%%%%%%%%%%%%%%%
 density label              = dvtot                                                                           
 integral of density        =     -42.75957053    

%%%% ELECTRONS %%%%%%%%%%%%%%%%%%%%%%%%%%%%%%%%%%%%%%%%%%%%%%%%%%%%%%%%%%%%%%%%%
 number of electrons        =          8
 total electronic charge    =      8.0000000

%%%% ELECTRONS %%%%%%%%%%%%%%%%%%%%%%%%%%%%%%%%%%%%%%%%%%%%%%%%%%%%%%%%%%%%%%%%%
 number of electrons        =          8
 total electronic charge    =      8.0000000

%%%% DENSITY %%%%%%%%%%%%%%%%%%%%%%%%%%%%%%%%%%%%%%%%%%%%%%%%%%%%%%%%%%%%%%%%%%%
 density label              = dvtot                                                                           
 integral of density        =     -42.75957053    

%%%% DENSITY %%%%%%%%%%%%%%%%%%%%%%%%%%%%%%%%%%%%%%%%%%%%%%%%%%%%%%%%%%%%%%%%%%%
 density label              = vreference                                                                      
 integral of density        =     0.5281303944E-12

%%%% DENSITY %%%%%%%%%%%%%%%%%%%%%%%%%%%%%%%%%%%%%%%%%%%%%%%%%%%%%%%%%%%%%%%%%%%
 density label              = velectrostatic                                                                  
 integral of density        =    -0.2672915379E-12

%%%% CHARGES %%%%%%%%%%%%%%%%%%%%%%%%%%%%%%%%%%%%%%%%%%%%%%%%%%%%%%%%%%%%%%%%%%%
 total number of charges    =         11
 total charge               =      0.0000000
