
     Program PWSCF v.6.1 (svn rev. 13369) starts on  4Oct2017 at 12:21:35 

     This program is part of the open-source Quantum ESPRESSO suite
     for quantum simulation of materials; please cite
         "P. Giannozzi et al., J. Phys.:Condens. Matter 21 395502 (2009);
          URL http://www.quantum-espresso.org", 
     in publications or presentations arising from this work. More details at
     http://www.quantum-espresso.org/quote

     Serial version
     Reading input from neutral.in

     Current dimensions of program PWSCF are:
     Max number of different atomic species (ntypx) = 10
     Max number of k-points (npk) =  40000
     Max angular momentum in pseudopotentials (lmaxx) =  3
               file H.pbe-rrkjus.UPF: wavefunction(s)  1S renormalized
               file O.pbe-rrkjus.UPF: wavefunction(s)  2S renormalized

     gamma-point specific algorithms are used

     G-vector sticks info
     --------------------
     sticks:   dense  smooth     PW     G-vecs:    dense   smooth      PW
     Sum        9549    3809    949               701475   177509   22119



     bravais-lattice index     =            1
     lattice parameter (alat)  =      20.0000  a.u.
     unit-cell volume          =    8000.0000 (a.u.)^3
     number of atoms/cell      =            3
     number of atomic types    =            2
     number of electrons       =         8.00
     number of Kohn-Sham states=            4
     kinetic-energy cutoff     =      30.0000  Ry
     charge density cutoff     =     300.0000  Ry
     convergence threshold     =      5.0E-03
     mixing beta               =       0.7000
     number of iterations used =            8  plain     mixing
     Exchange-correlation      =  SLA  PW   PBE  PBE ( 1  4  3  4 0 0)


     Environ Module
     ==============

     Plese cite
         O. Andreussi, I. Dabo and N. Marzari, J. Chem. Phys. 136, 064102 (2012)         
     in publications or presentations arising from this work.

     compensation onset threshold      =               0.1000E+03 
     static permittivity               =                   100.00 
     epsilon calculation mode          =                    ionic 

     Electrostatic Setup
     -------------------
     electrostatic problem to solve    = generalized              
     numerical solver adopted          = cg                       
     type of auxiliary density adopted = none                     
     type of core tool for poisson     = fft                      
     type of core tool for s(r) deriv  = analytic                 



     celldm(1)=  20.000000  celldm(2)=   0.000000  celldm(3)=   0.000000
     celldm(4)=   0.000000  celldm(5)=   0.000000  celldm(6)=   0.000000

     crystal axes: (cart. coord. in units of alat)
               a(1) = (   1.000000   0.000000   0.000000 )  
               a(2) = (   0.000000   1.000000   0.000000 )  
               a(3) = (   0.000000   0.000000   1.000000 )  

     reciprocal axes: (cart. coord. in units 2 pi/alat)
               b(1) = (  1.000000  0.000000  0.000000 )  
               b(2) = (  0.000000  1.000000  0.000000 )  
               b(3) = (  0.000000  0.000000  1.000000 )  


     PseudoPot. # 1 for H  read from file:
     /Users/oliviero/PWSCF/espresso-6.1-Environ-1.0/Environ/tests/../..//pseudo/H.pbe-rrkjus.UPF
     MD5 check sum: 7cc9d459525c9a0585f487a71c3c9563
     Pseudo is Ultrasoft, Zval =  1.0
     Generated by new atomic code, or converted to UPF format
     Using radial grid of 1061 points,  2 beta functions with: 
                l(1) =   0
                l(2) =   0
     Q(r) pseudized with 0 coefficients 


     PseudoPot. # 2 for O  read from file:
     /Users/oliviero/PWSCF/espresso-6.1-Environ-1.0/Environ/tests/../..//pseudo/O.pbe-rrkjus.UPF
     MD5 check sum: 390ba29e75625707450f3bd3f0eb6be9
     Pseudo is Ultrasoft, Zval =  6.0
     Generated by new atomic code, or converted to UPF format
     Using radial grid of 1269 points,  4 beta functions with: 
                l(1) =   0
                l(2) =   0
                l(3) =   1
                l(4) =   1
     Q(r) pseudized with 0 coefficients 


     atomic species   valence    mass     pseudopotential
        H              1.00     1.00000     H ( 1.00)
        O              6.00    16.00000     O ( 1.00)

     No symmetry found



   Cartesian axes

     site n.     atom                  positions (alat units)
         1           O   tau(   1) = (   0.5895000   0.6025000   0.5750000  )
         2           H   tau(   2) = (   0.6725000   0.5610000   0.5750000  )
         3           H   tau(   3) = (   0.5280000   0.5330000   0.5750000  )

     number of k points=     1
                       cart. coord. in units 2pi/alat
        k(    1) = (   0.0000000   0.0000000   0.0000000), wk =   2.0000000

     Dense  grid:   350738 G-vectors     FFT dimensions: ( 120, 120, 120)

     Smooth grid:    88755 G-vectors     FFT dimensions: (  72,  72,  72)

     Estimated max dynamical RAM per process >     270.62MB

     Initial potential from superposition of free atoms
     Check: negative starting charge=   -0.000775

     starting charge    7.80759, renormalised to    8.00000

     negative rho (up, down):  7.936E-04 0.000E+00
     Starting wfc are    6 randomized atomic wfcs

     total cpu time spent up to now is       30.8 secs

     Self-consistent Calculation

     iteration #  1     ecut=    30.00 Ry     beta=0.70
     Davidson diagonalization with overlap
     ethr =  1.00E-02,  avg # of iterations =  2.0

     negative rho (up, down):  2.595E-04 0.000E+00

     add environment contribution to local potential
     polarization accuracy = 5.5E-06, # of iterations =  11

     total cpu time spent up to now is       36.5 secs

     total energy              =     -34.06236055 Ry
     Harris-Foulkes estimate   =     -34.58697711 Ry
     estimated scf accuracy    <       0.68458994 Ry
     electrostatic embedding   =       0.00000000 Ry
     correction to one-el term =       0.00000000 Ry

     iteration #  2     ecut=    30.00 Ry     beta=0.70
     Davidson diagonalization with overlap
     ethr =  8.56E-03,  avg # of iterations =  2.0

     negative rho (up, down):  2.759E-03 0.000E+00

     add environment contribution to local potential
     polarization accuracy = 9.0E-05, # of iterations =  10

     total cpu time spent up to now is       43.0 secs

     total energy              =     -34.21923312 Ry
     Harris-Foulkes estimate   =     -33.92300706 Ry
     estimated scf accuracy    <       0.37529611 Ry
     electrostatic embedding   =      -0.04577209 Ry
     correction to one-el term =      -0.44316259 Ry

     iteration #  3     ecut=    30.00 Ry     beta=0.70
     Davidson diagonalization with overlap
     ethr =  4.69E-03,  avg # of iterations =  2.0

     negative rho (up, down):  2.250E-04 0.000E+00

     add environment contribution to local potential
     polarization accuracy = 8.5E-05, # of iterations =  10

     total cpu time spent up to now is       48.7 secs

     total energy              =     -34.30046719 Ry
     Harris-Foulkes estimate   =     -33.90797385 Ry
     estimated scf accuracy    <       0.01713856 Ry
     electrostatic embedding   =      -0.04297915 Ry
     correction to one-el term =      -0.35907786 Ry

     iteration #  4     ecut=    30.00 Ry     beta=0.70
     Davidson diagonalization with overlap
     ethr =  2.14E-04,  avg # of iterations =  2.0

     negative rho (up, down):  2.169E-04 0.000E+00

     total cpu time spent up to now is       51.2 secs

     End of self-consistent calculation

          k = 0.0000 0.0000 0.0000 ( 11060 PWs)   bands (ev):

   -24.7765 -12.5195  -9.1210  -7.1353

     highest occupied level (ev):    -7.1353

!    total energy              =     -34.30871566 Ry
     Harris-Foulkes estimate   =     -34.26279702 Ry
     estimated scf accuracy    <       0.00017568 Ry

     The total energy is the sum of the following terms:

     one-electron contribution =     -63.88570694 Ry
     hartree contribution      =      33.46101975 Ry
     xc contribution           =      -8.39544398 Ry
     ewald contribution        =       4.55735774 Ry
     electrostatic embedding   =      -0.04697405 Ry
     correction to one-el term =       0.00103182 Ry

     convergence has been achieved in   4 iterations

     Forces acting on atoms (cartesian axes, Ry/au):

     atom    1 type  2   force =     0.00019122   -0.00148906   -0.00000115
     atom    2 type  1   force =    -0.00361210    0.00003016    0.00000035
     atom    3 type  1   force =     0.00342088    0.00145890    0.00000081

     Total force =     0.005397     Total SCF correction =     0.031157
     SCF correction compared to forces is large: reduce conv_thr to get better values

     Writing output data file pwscf.save

     init_run     :     29.42s CPU     30.67s WALL (       1 calls)
     electrons    :     18.01s CPU     20.56s WALL (       1 calls)
     forces       :     21.52s CPU     22.22s WALL (       1 calls)

     Called by init_run:
     wfcinit      :      0.07s CPU      0.08s WALL (       1 calls)
     potinit      :      1.68s CPU      1.80s WALL (       1 calls)

     Called by electrons:
     c_bands      :      0.53s CPU      0.57s WALL (       4 calls)
     sum_band     :      2.93s CPU      3.06s WALL (       4 calls)
     v_of_rho     :      6.04s CPU      6.64s WALL (       5 calls)
     newd         :      1.48s CPU      2.02s WALL (       5 calls)
     mix_rho      :      0.47s CPU      0.53s WALL (       4 calls)

     Called by c_bands:
     init_us_2    :      0.03s CPU      0.07s WALL (       9 calls)
     regterg      :      0.49s CPU      0.52s WALL (       4 calls)

     Called by sum_band:
     sum_band:bec :      0.00s CPU      0.00s WALL (       4 calls)
     addusdens    :      1.92s CPU      2.00s WALL (       4 calls)

     Called by *egterg:
     h_psi        :      0.50s CPU      0.52s WALL (      13 calls)
     s_psi        :      0.01s CPU      0.01s WALL (      13 calls)
     g_psi        :      0.01s CPU      0.01s WALL (       8 calls)
     rdiaghg      :      0.00s CPU      0.00s WALL (      12 calls)

     Called by h_psi:
     h_psi:pot    :      0.49s CPU      0.51s WALL (      13 calls)
     h_psi:calbec :      0.01s CPU      0.01s WALL (      13 calls)
     vloc_psi     :      0.48s CPU      0.50s WALL (      13 calls)
     add_vuspsi   :      0.01s CPU      0.00s WALL (      13 calls)

     General routines
     calbec       :      0.01s CPU      0.01s WALL (      21 calls)
     fft          :      9.60s CPU      9.91s WALL (     159 calls)
     ffts         :      0.09s CPU      0.09s WALL (       9 calls)
     fftw         :      0.39s CPU      0.41s WALL (      62 calls)
     interpolate  :      0.74s CPU      0.82s WALL (       9 calls)
     davcio       :      0.00s CPU      0.00s WALL (       1 calls)


     Environ routines
     calc_eelect  :      0.02s CPU      0.02s WALL (       8 calls)
     calc_velect  :      7.43s CPU      8.67s WALL (       6 calls)
     dielectric   :      0.24s CPU      0.29s WALL (       2 calls)
     calc_felect  :      0.61s CPU      0.66s WALL (       1 calls)

     PWSCF        :  1m 9.14s CPU     1m13.80s WALL


   This run was terminated on:  12:22:49   4Oct2017            

=------------------------------------------------------------------------------=
   JOB DONE.
=------------------------------------------------------------------------------=

%%%% IONS %%%%%%%%%%%%%%%%%%%%%%%%%%%%%%%%%%%%%%%%%%%%%%%%%%%%%%%%%%%%%%%%%%%%%%
 number of ions             =          3
 ionic center of charge     =      0.5921875     0.5886250     0.5750000
 total ionic charge         =     -8.0000000
 ionic dipole               =      0.0000000     0.0000000     0.0000000
 ionic quadrupole (pc)      =     -4.2453875    -2.0049500     0.0000000
 ionic quadrupole (gauss)   =     -5.2453875    -3.0049500    -1.0000000
 ion   1 type =  2 coordinates =     11.7900000    12.0500000    11.5000000
 ion   2 type =  1 coordinates =     13.4500000    11.2200000    11.5000000
 ion   3 type =  1 coordinates =     10.5600000    10.6600000    11.5000000

%%%% SYSTEM %%%%%%%%%%%%%%%%%%%%%%%%%%%%%%%%%%%%%%%%%%%%%%%%%%%%%%%%%%%%%%%%%%%%
 system is built from all present ionic types
 system defined dimension   =  0 
 system defined axis        =  3 
 system center              =      0.5921875     0.5886250     0.5750000 
 system width               =      0.1209428 

%%%% BOUNDARY %%%%%%%%%%%%%%%%%%%%%%%%%%%%%%%%%%%%%%%%%%%%%%%%%%%%%%%%%%%%%%%%%%
 boundary mode              = ionic                
 boundary is built from soft-spheres centered on ionic positions
 solvent-dependent scaling  =      1.0000000 
 softness parameter         =      0.5000000 

%%%% DIELECTRIC %%%%%%%%%%%%%%%%%%%%%%%%%%%%%%%%%%%%%%%%%%%%%%%%%%%%%%%%%%%%%%%%%
 dielectric build on homogeneous background
 environment bulk permitt.  =    100.0000000 
 dielectric flags
 need gradient              =  F 
 need factor depend. sqrt   =  T 
 need gradient of logarithm =  T 

%%%% ELECTRONS %%%%%%%%%%%%%%%%%%%%%%%%%%%%%%%%%%%%%%%%%%%%%%%%%%%%%%%%%%%%%%%%%
 number of electrons        =          8
 total electronic charge    =      8.0000000
 number of spin components  =  1

%%%% COMPUTE ELECTROSTATIC POTENTIAL %%%%%%%%%%%%%%%%%%%%%%%%%%%%%%%%%%%%%%%%%%%
 Iteration #          1
  pAp =  27.173815101752453  rzold =  26.17476853764939  alpha =  0.9632349539303874
 delta_qm =   0.129966E-01 delta_en =   0.291878E+03 tol =   0.100000E-03
 Iteration #          2
  pAp =  74.96110531167406  rzold =  7.632238012758095  alpha =  0.10181597484488385
 delta_qm =   0.339747E-02 delta_en =   0.199460E+02 tol =   0.100000E-03
 Iteration #          3
  pAp =  2.070811344649185  rzold =  0.3394656356661512  alpha =  0.16392880816656905
 delta_qm =   0.915432E-03 delta_en =   0.144809E+01 tol =   0.100000E-03
 Iteration #          4
  pAp =  0.04077424792974558  rzold =  0.0097450767701166  alpha =  0.23900077291204638
 delta_qm =   0.516273E-03 delta_en =   0.460578E+00 tol =   0.100000E-03
 Iteration #          5
  pAp =  0.001283371384247237  rzold =  0.0007972917483075811  alpha =  0.6212478773439642
 delta_qm =   0.129595E-03 delta_en =   0.290214E-01 tol =   0.100000E-03
 Iteration #          6
  pAp =  0.0003016042809695985  rzold =  0.0001046124236668306  alpha =  0.3468532453535547
 delta_qm =   0.747084E-04 delta_en =   0.964457E-02 tol =   0.100000E-03
 Iteration #          7
  pAp =  0.000015977472339430694  rzold =  0.000010540696772773204  alpha =  0.6597224234749505
 delta_qm =   0.462189E-04 delta_en =   0.369134E-02 tol =   0.100000E-03
 Iteration #          8
  pAp =  0.000009527966890208456  rzold =  0.000006328629008889505  alpha =  0.6642161000153355
 delta_qm =   0.221767E-04 delta_en =   0.849840E-03 tol =   0.100000E-03
 Iteration #          9
  pAp =  0.000008200273788285655  rzold =  0.0000021740808171514976  alpha =  0.26512295482831794
 delta_qm =   0.154924E-04 delta_en =   0.414744E-03 tol =   0.100000E-03
 Iteration #         10
  pAp =  0.0000023517441387642877  rzold =  7.839772733980181E-7  alpha =  0.333359935069278
 delta_qm =   0.827136E-05 delta_en =   0.118222E-03 tol =   0.100000E-03
 Iteration #         11
  pAp =  2.161029131315665E-7  rzold =  1.3166974876974773E-7  alpha =  0.6092918733103118
 delta_qm =   0.178427E-05 delta_en =   0.550130E-05 tol =   0.100000E-03
 Charges are converged, EXIT

%%%% ELECTRONS %%%%%%%%%%%%%%%%%%%%%%%%%%%%%%%%%%%%%%%%%%%%%%%%%%%%%%%%%%%%%%%%%
 number of electrons        =          8
 total electronic charge    =      8.0000000
 number of spin components  =  1

%%%% COMPUTE ELECTROSTATIC POTENTIAL %%%%%%%%%%%%%%%%%%%%%%%%%%%%%%%%%%%%%%%%%%%
 Warning: bad guess with residual norm =   0.348792E+02, reset to no guess
 Iteration #          1
  pAp =  29.538679085464565  rzold =  28.59322810856246  alpha =  0.9679927807818819
 delta_qm =   0.126989E-01 delta_en =   0.278662E+03 tol =   0.100000E-03
 Iteration #          2
  pAp =  78.53077618148347  rzold =  7.727910628591648  alpha =  0.0984061409342569
 delta_qm =   0.297355E-02 delta_en =   0.152790E+02 tol =   0.100000E-03
 Iteration #          3
  pAp =  1.376684085263259  rzold =  0.23503259285388697  alpha =  0.17072369425186057
 delta_qm =   0.869510E-03 delta_en =   0.130645E+01 tol =   0.100000E-03
 Iteration #          4
  pAp =  0.030817238634589118  rzold =  0.007449625219637376  alpha =  0.24173565023038607
 delta_qm =   0.520715E-03 delta_en =   0.468537E+00 tol =   0.100000E-03
 Iteration #          5
  pAp =  0.001158594109583419  rzold =  0.0007325756173440674  alpha =  0.6322970324848884
 delta_qm =   0.132452E-03 delta_en =   0.303151E-01 tol =   0.100000E-03
 Iteration #          6
  pAp =  0.0002456897208745374  rzold =  0.00008580847031150834  alpha =  0.349255434887839
 delta_qm =   0.864504E-04 delta_en =   0.129145E-01 tol =   0.100000E-03
 Iteration #          7
  pAp =  0.00001562849462822826  rzold =  0.000013296147012807521  alpha =  0.8507631303652214
 delta_qm =   0.471296E-04 delta_en =   0.383824E-02 tol =   0.100000E-03
 Iteration #          8
  pAp =  0.000017301100572103565  rzold =  0.000009184503201504572  alpha =  0.5308623670053534
 delta_qm =   0.223683E-04 delta_en =   0.864592E-03 tol =   0.100000E-03
 Iteration #          9
  pAp =  0.000008598335227114573  rzold =  0.0000020682114487265844  alpha =  0.24053626592791433
 delta_qm =   0.158731E-04 delta_en =   0.435377E-03 tol =   0.100000E-03
 Iteration #         10
  pAp =  0.0000016999892165840289  rzold =  6.6953130175038E-7  alpha =  0.3938444404345936
 delta_qm =   0.722803E-05 delta_en =   0.902782E-04 tol =   0.100000E-03
 Charges are converged, EXIT

%%%% ELECTRONS %%%%%%%%%%%%%%%%%%%%%%%%%%%%%%%%%%%%%%%%%%%%%%%%%%%%%%%%%%%%%%%%%
 number of electrons        =          8
 total electronic charge    =      8.0000000
 number of spin components  =  1

%%%% COMPUTE ELECTROSTATIC POTENTIAL %%%%%%%%%%%%%%%%%%%%%%%%%%%%%%%%%%%%%%%%%%%
 Warning: bad guess with residual norm =   0.604027E+01, reset to no guess
 Iteration #          1
  pAp =  29.13273480483227  rzold =  28.445490287004812  alpha =  0.9764098865955604
 delta_qm =   0.107677E-01 delta_en =   0.200351E+03 tol =   0.100000E-03
 Iteration #          2
  pAp =  46.99806687762411  rzold =  4.959121729855752  alpha =  0.10551756826017032
 delta_qm =   0.329113E-02 delta_en =   0.187169E+02 tol =   0.100000E-03
 Iteration #          3
  pAp =  2.022386814924981  rzold =  0.31644600703475095  alpha =  0.1564715536609594
 delta_qm =   0.863330E-03 delta_en =   0.128795E+01 tol =   0.100000E-03
 Iteration #          4
  pAp =  0.03882238689624611  rzold =  0.00908812133142552  alpha =  0.2340948627325201
 delta_qm =   0.488135E-03 delta_en =   0.411741E+00 tol =   0.100000E-03
 Iteration #          5
  pAp =  0.0010087629985679454  rzold =  0.0006529214140402847  alpha =  0.64724956701146
 delta_qm =   0.136403E-03 delta_en =   0.321509E-01 tol =   0.100000E-03
 Iteration #          6
  pAp =  0.0002589482306704741  rzold =  0.00009161498198094562  alpha =  0.35379651656137684
 delta_qm =   0.893267E-04 delta_en =   0.137882E-01 tol =   0.100000E-03
 Iteration #          7
  pAp =  0.000017498358561472076  rzold =  0.00001366340977916672  alpha =  0.7808395130987226
 delta_qm =   0.495816E-04 delta_en =   0.424800E-02 tol =   0.100000E-03
 Iteration #          8
  pAp =  0.00001774974279754115  rzold =  0.000009499926029931181  alpha =  0.5352148556905959
 delta_qm =   0.230816E-04 delta_en =   0.920612E-03 tol =   0.100000E-03
 Iteration #          9
  pAp =  0.000019406490402345604  rzold =  0.000003957802473657079  alpha =  0.20394220652997158
 delta_qm =   0.159644E-04 delta_en =   0.440404E-03 tol =   0.100000E-03
 Iteration #         10
  pAp =  0.0000010389215967667555  rzold =  5.247676966261881E-7  alpha =  0.5051080834774502
 delta_qm =   0.700586E-05 delta_en =   0.848138E-04 tol =   0.100000E-03
 Charges are converged, EXIT

%%%% ELECTRONS %%%%%%%%%%%%%%%%%%%%%%%%%%%%%%%%%%%%%%%%%%%%%%%%%%%%%%%%%%%%%%%%%
 number of electrons        =          8
 total electronic charge    =      8.0000000
 number of spin components  =  1
