
     Program PWSCF v.6.4.1 starts on 24Apr2019 at 15: 9:59 

     This program is part of the open-source Quantum ESPRESSO suite
     for quantum simulation of materials; please cite
         "P. Giannozzi et al., J. Phys.:Condens. Matter 21 395502 (2009);
         "P. Giannozzi et al., J. Phys.:Condens. Matter 29 465901 (2017);
          URL http://www.quantum-espresso.org", 
     in publications or presentations arising from this work. More details at
     http://www.quantum-espresso.org/quote

     Parallel version (MPI), running on     1 processors

     MPI processes distributed on     1 nodes
     Reading input from charged.in

     Current dimensions of program PWSCF are:
     Max number of different atomic species (ntypx) = 10
     Max number of k-points (npk) =  40000
     Max angular momentum in pseudopotentials (lmaxx) =  3
               file C.pbe-rrkjus.UPF: wavefunction(s)  2S 2P renormalized
               file H.pbe-rrkjus.UPF: wavefunction(s)  1S renormalized
               file N.pbe-rrkjus.UPF: wavefunction(s)  2S renormalized
               file O.pbe-rrkjus.UPF: wavefunction(s)  2S renormalized

     gamma-point specific algorithms are used

     Subspace diagonalization in iterative solution of the eigenvalue problem:
     a serial algorithm will be used

 
     G-vector sticks info
     --------------------
     sticks:   dense  smooth     PW     G-vecs:    dense   smooth      PW
     Sum        9549    3809    949               701475   177509   22119
 


     bravais-lattice index     =            1
     lattice parameter (alat)  =      20.0000  a.u.
     unit-cell volume          =    8000.0000 (a.u.)^3
     number of atoms/cell      =           10
     number of atomic types    =            4
     number of electrons       =        24.00
     number of Kohn-Sham states=           12
     kinetic-energy cutoff     =      30.0000  Ry
     charge density cutoff     =     300.0000  Ry
     convergence threshold     =      5.0E-06
     mixing beta               =       0.7000
     number of iterations used =            8  plain     mixing
     Exchange-correlation      = SLA PW PBE PBE ( 1  4  3  4 0 0)
 

     Environ Module
     ==============

     Plese cite
         O. Andreussi, I. Dabo and N. Marzari, J. Chem. Phys. 136, 064102 (2012)         
     in publications or presentations arising from this work.

     compensation onset threshold      =               0.1000E+03 
     static permittivity               =                   100.00 
     epsilon calculation mode          =               electronic 

     Electrostatic Setup
     -------------------
     electrostatic problem to solve    = generalized              
     numerical solver adopted          = sd                       
     type of auxiliary density adopted = none                     
     type of core tool for poisson     = fft                      
     type of core tool for s(r) deriv  = analytic                 



     celldm(1)=  20.000000  celldm(2)=   0.000000  celldm(3)=   0.000000
     celldm(4)=   0.000000  celldm(5)=   0.000000  celldm(6)=   0.000000

     crystal axes: (cart. coord. in units of alat)
               a(1) = (   1.000000   0.000000   0.000000 )  
               a(2) = (   0.000000   1.000000   0.000000 )  
               a(3) = (   0.000000   0.000000   1.000000 )  

     reciprocal axes: (cart. coord. in units 2 pi/alat)
               b(1) = (  1.000000  0.000000  0.000000 )  
               b(2) = (  0.000000  1.000000  0.000000 )  
               b(3) = (  0.000000  0.000000  1.000000 )  


     PseudoPot. # 1 for C  read from file:
     /home/fnattino/Programs/quantumespresso/q-e-qe-6.4.1-develop/Environ/tests/../..//pseudo/C.pbe-rrkjus.UPF
     MD5 check sum: c9ac5a99bc85b198593446162950cd17
     Pseudo is Ultrasoft, Zval =  4.0
     Generated by new atomic code, or converted to UPF format
     Using radial grid of  627 points,  4 beta functions with: 
                l(1) =   0
                l(2) =   0
                l(3) =   1
                l(4) =   1
     Q(r) pseudized with 0 coefficients 


     PseudoPot. # 2 for H  read from file:
     /home/fnattino/Programs/quantumespresso/q-e-qe-6.4.1-develop/Environ/tests/../..//pseudo/H.pbe-rrkjus.UPF
     MD5 check sum: 2d52a7f45632fd764c17cc6affed14c8
     Pseudo is Ultrasoft, Zval =  1.0
     Generated by new atomic code, or converted to UPF format
     Using radial grid of 1061 points,  2 beta functions with: 
                l(1) =   0
                l(2) =   0
     Q(r) pseudized with 0 coefficients 


     PseudoPot. # 3 for N  read from file:
     /home/fnattino/Programs/quantumespresso/q-e-qe-6.4.1-develop/Environ/tests/../..//pseudo/N.pbe-rrkjus.UPF
     MD5 check sum: 28c76d763763edb36c62a6ca2be9aebd
     Pseudo is Ultrasoft, Zval =  5.0
     Generated by new atomic code, or converted to UPF format
     Using radial grid of 1257 points,  4 beta functions with: 
                l(1) =   0
                l(2) =   0
                l(3) =   1
                l(4) =   1
     Q(r) pseudized with 0 coefficients 


     PseudoPot. # 4 for O  read from file:
     /home/fnattino/Programs/quantumespresso/q-e-qe-6.4.1-develop/Environ/tests/../..//pseudo/O.pbe-rrkjus.UPF
     MD5 check sum: fadcf19ee70a498d3030e2e79cf929a4
     Pseudo is Ultrasoft, Zval =  6.0
     Generated by new atomic code, or converted to UPF format
     Using radial grid of 1269 points,  4 beta functions with: 
                l(1) =   0
                l(2) =   0
                l(3) =   1
                l(4) =   1
     Q(r) pseudized with 0 coefficients 


     atomic species   valence    mass     pseudopotential
        C              4.00    12.00000     C ( 1.00)
        H              1.00     1.00000     H ( 1.00)
        N              5.00    14.00000     N ( 1.00)
        O              6.00    16.00000     O ( 1.00)

     No symmetry found



   Cartesian axes

     site n.     atom                  positions (alat units)
         1           C   tau(   1) = (   0.0000000   0.0000000   0.0000000  )
         2           C   tau(   2) = (   0.0000000   0.0000000   0.1455089  )
         3           N   tau(   3) = (   0.1170969   0.0000000  -0.0545024  )
         4           H   tau(   4) = (   0.0476617  -0.0825466   0.1792090  )
         5           H   tau(   5) = (  -0.0953183  -0.0000030   0.1792090  )
         6           H   tau(   6) = (   0.0476566   0.0825496   0.1792090  )
         7           O   tau(   7) = (  -0.0984002  -0.0000019  -0.0641310  )
         8           H   tau(   8) = (   0.1263131  -0.0000015  -0.1475548  )
         9           H   tau(   9) = (   0.1944645   0.0000134  -0.0025716  )
        10           H   tau(  10) = (  -0.0770366  -0.0000045  -0.1522861  )

     number of k points=     1
                       cart. coord. in units 2pi/alat
        k(    1) = (   0.0000000   0.0000000   0.0000000), wk =   2.0000000

     Dense  grid:   350738 G-vectors     FFT dimensions: ( 120, 120, 120)

     Smooth grid:    88755 G-vectors     FFT dimensions: (  72,  72,  72)

     Estimated max dynamical RAM per process >     691.80 MB

     Initial potential from superposition of free atoms

     starting charge   24.42266, renormalised to   24.00000

     negative rho (up, down):  4.438E-04 0.000E+00
     Starting wfcs are   22 randomized atomic wfcs

     total cpu time spent up to now is        4.9 secs

     Self-consistent Calculation

     iteration #  1     ecut=    30.00 Ry     beta= 0.70
     Davidson diagonalization with overlap
     ethr =  1.00E-02,  avg # of iterations =  2.0

     negative rho (up, down):  1.277E-04 0.000E+00

     add environment contribution to local potential
     polarization accuracy = 6.2E-06, # of iterations =  41

     total cpu time spent up to now is       11.5 secs

     total energy              =     -80.23905785 Ry
     Harris-Foulkes estimate   =     -83.01882218 Ry
     estimated scf accuracy    <       3.73443027 Ry
     electrostatic embedding   =       0.00000000 Ry
     correction to one-el term =       0.00000000 Ry

     iteration #  2     ecut=    30.00 Ry     beta= 0.70
     Davidson diagonalization with overlap
     ethr =  1.00E-02,  avg # of iterations =  4.0

     negative rho (up, down):  6.920E-04 0.000E+00

     add environment contribution to local potential
     polarization accuracy = 6.4E-06, # of iterations =  59

     total cpu time spent up to now is       19.9 secs

     total energy              =     -80.96159072 Ry
     Harris-Foulkes estimate   =     -76.58374408 Ry
     estimated scf accuracy    <       1.54143782 Ry
     electrostatic embedding   =      -0.18544471 Ry
     correction to one-el term =      -5.01782790 Ry

     iteration #  3     ecut=    30.00 Ry     beta= 0.70
     Davidson diagonalization with overlap
     ethr =  6.42E-03,  avg # of iterations =  3.0

     negative rho (up, down):  3.243E-04 0.000E+00

     add environment contribution to local potential
     polarization accuracy = 7.7E-06, # of iterations =  73

     total cpu time spent up to now is       29.6 secs

     total energy              =     -81.32008265 Ry
     Harris-Foulkes estimate   =     -77.00548701 Ry
     estimated scf accuracy    <       0.24273717 Ry
     electrostatic embedding   =      -0.15280447 Ry
     correction to one-el term =      -4.29119178 Ry

     iteration #  4     ecut=    30.00 Ry     beta= 0.70
     Davidson diagonalization with overlap
     ethr =  1.01E-03,  avg # of iterations =  4.0

     negative rho (up, down):  8.667E-05 0.000E+00

     add environment contribution to local potential
     polarization accuracy = 8.2E-06, # of iterations =  89

     total cpu time spent up to now is       40.5 secs

     total energy              =     -81.37925438 Ry
     Harris-Foulkes estimate   =     -77.20731705 Ry
     estimated scf accuracy    <       0.02093643 Ry
     electrostatic embedding   =      -0.12841320 Ry
     correction to one-el term =      -4.05415830 Ry

     iteration #  5     ecut=    30.00 Ry     beta= 0.70
     Davidson diagonalization with overlap
     ethr =  8.72E-05,  avg # of iterations =  4.0

     negative rho (up, down):  9.645E-05 0.000E+00

     add environment contribution to local potential
     polarization accuracy = 8.2E-06, # of iterations =  91

     total cpu time spent up to now is       51.6 secs

     total energy              =     -81.38532282 Ry
     Harris-Foulkes estimate   =     -77.44086177 Ry
     estimated scf accuracy    <       0.00247569 Ry
     electrostatic embedding   =      -0.12263267 Ry
     correction to one-el term =      -3.82306923 Ry

     iteration #  6     ecut=    30.00 Ry     beta= 0.70
     Davidson diagonalization with overlap
     ethr =  1.03E-05,  avg # of iterations =  3.0

     negative rho (up, down):  1.093E-04 0.000E+00

     add environment contribution to local potential
     polarization accuracy = 9.7E-06, # of iterations =  91

     total cpu time spent up to now is       62.7 secs

     total energy              =     -81.38623889 Ry
     Harris-Foulkes estimate   =     -77.48153926 Ry
     estimated scf accuracy    <       0.00027451 Ry
     electrostatic embedding   =      -0.12279156 Ry
     correction to one-el term =      -3.78199280 Ry

     iteration #  7     ecut=    30.00 Ry     beta= 0.70
     Davidson diagonalization with overlap
     ethr =  1.14E-06,  avg # of iterations =  3.0

     negative rho (up, down):  2.805E-04 0.000E+00

     add environment contribution to local potential
     polarization accuracy = 8.0E-06, # of iterations =  93

     total cpu time spent up to now is       74.0 secs

     total energy              =     -81.38651028 Ry
     Harris-Foulkes estimate   =     -77.49013460 Ry
     estimated scf accuracy    <       0.00003969 Ry
     electrostatic embedding   =      -0.12424961 Ry
     correction to one-el term =      -3.77213799 Ry

     iteration #  8     ecut=    30.00 Ry     beta= 0.70
     Davidson diagonalization with overlap
     ethr =  1.65E-07,  avg # of iterations =  3.0

     negative rho (up, down):  3.908E-04 0.000E+00

     add environment contribution to local potential
     polarization accuracy = 8.3E-06, # of iterations =  93

     total cpu time spent up to now is       85.4 secs

     total energy              =     -81.38661343 Ry
     Harris-Foulkes estimate   =     -77.48778907 Ry
     estimated scf accuracy    <       0.00001142 Ry
     electrostatic embedding   =      -0.12563087 Ry
     correction to one-el term =      -3.77319898 Ry

     iteration #  9     ecut=    30.00 Ry     beta= 0.70
     Davidson diagonalization with overlap
     ethr =  4.76E-08,  avg # of iterations =  4.0

     negative rho (up, down):  2.791E-04 0.000E+00

     the potential shift due to the Gaussian-smeared nuclei is    -0.0668 ev

     total cpu time spent up to now is       87.6 secs

     End of self-consistent calculation

          k = 0.0000 0.0000 0.0000 ( 11060 PWs)   bands (ev):

   -28.9254 -23.0835 -18.6405 -16.0090 -14.6258 -13.3808 -11.6751 -10.9522
    -9.6306  -9.6242  -9.3206  -7.3746

     highest occupied level (ev):    -7.3746

!    total energy              =     -81.38667581 Ry
     Harris-Foulkes estimate   =     -77.47862135 Ry
     estimated scf accuracy    <       0.00000425 Ry

     The total energy is the sum of the following terms:

     one-electron contribution =    -241.98276989 Ry
     hartree contribution      =     123.15978821 Ry
     xc contribution           =     -22.96347830 Ry
     ewald contribution        =      64.30784006 Ry
     electrostatic embedding   =      -0.12729311 Ry
     correction to one-el term =      -3.78076279 Ry

     convergence has been achieved in   9 iterations

     Forces acting on atoms (cartesian axes, Ry/au):

     atom    1 type  1   force =     0.21862392    0.00000266    0.09551484
     atom    2 type  1   force =    -0.03077238    0.00000201   -0.07942690
     atom    3 type  3   force =    -0.13911029   -0.00000276    0.04303030
     atom    4 type  2   force =     0.01849744   -0.02817159    0.00876674
     atom    5 type  2   force =    -0.03115061   -0.00000039    0.01158397
     atom    6 type  2   force =     0.01849568    0.02817329    0.00876803
     atom    7 type  4   force =    -0.09349490   -0.00000667   -0.00192804
     atom    8 type  2   force =     0.00709034    0.00000074   -0.05294265
     atom    9 type  2   force =     0.04336017    0.00000266    0.03734380
     atom   10 type  2   force =    -0.01153937    0.00000006   -0.07071008

     Total force =     0.330022     Total SCF correction =     0.003247

     Writing output data file pwscf.save/
 
     init_run     :      3.86s CPU      4.28s WALL (       1 calls)
     electrons    :     67.64s CPU     82.72s WALL (       1 calls)
     forces       :      0.74s CPU      0.96s WALL (       1 calls)

     Called by init_run:
     wfcinit      :      0.13s CPU      0.14s WALL (       1 calls)
     potinit      :      1.34s CPU      1.43s WALL (       1 calls)
     hinit0       :      2.01s CPU      2.04s WALL (       1 calls)

     Called by electrons:
     c_bands      :      2.14s CPU      2.14s WALL (       9 calls)
     sum_band     :      3.61s CPU      5.06s WALL (       9 calls)
     v_of_rho     :      4.31s CPU      4.70s WALL (      10 calls)
     newd         :      2.45s CPU      4.37s WALL (      10 calls)
     mix_rho      :      0.50s CPU      0.50s WALL (       9 calls)

     Called by c_bands:
     init_us_2    :      0.08s CPU      0.08s WALL (      19 calls)
     regterg      :      2.02s CPU      2.02s WALL (       9 calls)

     Called by sum_band:
     sum_band:bec :      0.00s CPU      0.00s WALL (       9 calls)
     addusdens    :      2.95s CPU      4.39s WALL (       9 calls)

     Called by *egterg:
     h_psi        :      1.94s CPU      1.96s WALL (      40 calls)
     s_psi        :      0.03s CPU      0.03s WALL (      40 calls)
     g_psi        :      0.02s CPU      0.02s WALL (      30 calls)
     rdiaghg      :      0.01s CPU      0.01s WALL (      39 calls)

     Called by h_psi:
     h_psi:pot    :      1.93s CPU      1.95s WALL (      40 calls)
     h_psi:calbec :      0.03s CPU      0.04s WALL (      40 calls)
     vloc_psi     :      1.88s CPU      1.87s WALL (      40 calls)
     add_vuspsi   :      0.02s CPU      0.03s WALL (      40 calls)

     General routines
     calbec       :      0.04s CPU      0.06s WALL (      53 calls)
     fft          :     26.49s CPU     26.89s WALL (    1525 calls)
     ffts         :      0.05s CPU      0.05s WALL (      19 calls)
     fftw         :      1.68s CPU      1.68s WALL (     424 calls)
     interpolate  :      0.28s CPU      0.30s WALL (      10 calls)
 
     Parallel routines
 
     Environ routines
     calc_eelect  :      0.02s CPU      0.03s WALL (      18 calls)
     calc_velect  :     48.58s CPU     59.38s WALL (      16 calls)
     dielectric   :      0.52s CPU      0.56s WALL (      11 calls)
     calc_felect  :      0.08s CPU      0.08s WALL (       1 calls)
 
     PWSCF        :   1m12.88s CPU   1m28.65s WALL

 
   This run was terminated on:  15:11:28  24Apr2019            

=------------------------------------------------------------------------------=
   JOB DONE.
=------------------------------------------------------------------------------=

%%%% IONS %%%%%%%%%%%%%%%%%%%%%%%%%%%%%%%%%%%%%%%%%%%%%%%%%%%%%%%%%%%%%%%%%%%%%%
 number of ions             =         10
 ionic center of charge     =      0.0095530    -0.0000002     0.0063981
 total ionic charge         =    -25.0000000
 ionic dipole               =      0.0000000     0.0000000     0.0000000
 ionic quadrupole (pc)      =    -79.0828058    -5.4513517  -105.8059629
 ionic quadrupole (gauss)   =    -82.2078058    -8.5763517  -108.9309629
 ion   1 type =  1 coordinates =      0.0000000     0.0000000     0.0000000
 ion   2 type =  1 coordinates =      0.0000000     0.0000000     2.9101782
 ion   3 type =  3 coordinates =      2.3419379     0.0000000    -1.0900479
 ion   4 type =  2 coordinates =      0.9532347    -1.6509323     3.5841800
 ion   5 type =  2 coordinates =     -1.9063663    -0.0000596     3.5841809
 ion   6 type =  2 coordinates =      0.9531315     1.6509919     3.5841800
 ion   7 type =  4 coordinates =     -1.9680045    -0.0000375    -1.2826193
 ion   8 type =  2 coordinates =      2.5262613    -0.0000303    -2.9510950
 ion   9 type =  2 coordinates =      3.8892907     0.0002681    -0.0514326
 ion  10 type =  2 coordinates =     -1.5407317    -0.0000890    -3.0457220

%%%% SYSTEM %%%%%%%%%%%%%%%%%%%%%%%%%%%%%%%%%%%%%%%%%%%%%%%%%%%%%%%%%%%%%%%%%%%%
 system is built from all present ionic types
 system defined dimension   =  0 
 system defined axis        =  3 
 system center              =      0.0095530    -0.0000002     0.0063981 
 system width               =      0.2021425 

%%%% ELECTRONS %%%%%%%%%%%%%%%%%%%%%%%%%%%%%%%%%%%%%%%%%%%%%%%%%%%%%%%%%%%%%%%%%
 number of electrons        =         24
 total electronic charge    =     24.0000000

%%%% BOUNDARY %%%%%%%%%%%%%%%%%%%%%%%%%%%%%%%%%%%%%%%%%%%%%%%%%%%%%%%%%%%%%%%%%%
 boundary label             = solvent              
 boundary mode              = electronic           
 boundary is built as a function of a smooth density
 function type              =  2 
 using the modified SCCS function with parameters 
 rhomax                     =      0.0050000 
 rhomin                     =      0.0001000 
 volume of the QM region    =   2771.6247530 
 surface of the QM region   =    905.6008160 

%%%% DIELECTRIC %%%%%%%%%%%%%%%%%%%%%%%%%%%%%%%%%%%%%%%%%%%%%%%%%%%%%%%%%%%%%%%%%
 dielectric build on homogeneous background
 environment bulk permitt.  =    100.0000000 
 dielectric flags
 need gradient              =  F 
 need factor depend. sqrt   =  T 
 total dielectric charge    =      0.0000000

%%%% DENSITY %%%%%%%%%%%%%%%%%%%%%%%%%%%%%%%%%%%%%%%%%%%%%%%%%%%%%%%%%%%%%%%%%%%
 density label              = vreference                                                                      
 integral of density        =      0.000000000    

%%%% DENSITY %%%%%%%%%%%%%%%%%%%%%%%%%%%%%%%%%%%%%%%%%%%%%%%%%%%%%%%%%%%%%%%%%%%
 density label              = velectrostatic                                                                  
 integral of density        =      0.000000000    

%%%% CHARGES %%%%%%%%%%%%%%%%%%%%%%%%%%%%%%%%%%%%%%%%%%%%%%%%%%%%%%%%%%%%%%%%%%%
 total number of charges    =         34
 total charge               =     -1.0000000

%%%% DENSITY %%%%%%%%%%%%%%%%%%%%%%%%%%%%%%%%%%%%%%%%%%%%%%%%%%%%%%%%%%%%%%%%%%%
 density label              = vsoftcavity                                                                     
 integral of density        =      0.000000000    

%%%% ELECTRONS %%%%%%%%%%%%%%%%%%%%%%%%%%%%%%%%%%%%%%%%%%%%%%%%%%%%%%%%%%%%%%%%%
 number of electrons        =         24
 total electronic charge    =     24.0000000

%%%% BOUNDARY %%%%%%%%%%%%%%%%%%%%%%%%%%%%%%%%%%%%%%%%%%%%%%%%%%%%%%%%%%%%%%%%%%
 boundary label             = solvent              
 boundary mode              = electronic           
 boundary is built as a function of a smooth density
 function type              =  2 
 using the modified SCCS function with parameters 
 rhomax                     =      0.0050000 
 rhomin                     =      0.0001000 
 volume of the QM region    =    989.6663037 
 surface of the QM region   =    490.3846795 

%%%% DIELECTRIC %%%%%%%%%%%%%%%%%%%%%%%%%%%%%%%%%%%%%%%%%%%%%%%%%%%%%%%%%%%%%%%%%
 dielectric build on homogeneous background
 environment bulk permitt.  =    100.0000000 
 dielectric flags
 need gradient              =  F 
 need factor depend. sqrt   =  T 
 total dielectric charge    =      0.0000000

%%%% DENSITY %%%%%%%%%%%%%%%%%%%%%%%%%%%%%%%%%%%%%%%%%%%%%%%%%%%%%%%%%%%%%%%%%%%
 density label              = vreference                                                                      
 integral of density        =    -0.2329659099E-12

%%%% COMPUTE ELECTROSTATIC POTENTIAL %%%%%%%%%%%%%%%%%%%%%%%%%%%%%%%%%%%%%%%%%%%
 Iteration #          1
  pAp =    92.0128131107394       rzold =    89.1167871489848       alpha = 
  0.968525840436275     
 delta_qm =   0.144051E-01 delta_en =   0.358571E+03 tol =   0.100000E-04
 Iteration #          2
  pAp =    136.114909491982       rzold =    17.6132548542912       alpha = 
  0.129399893957456     
 delta_qm =   0.336507E-02 delta_en =   0.195674E+02 tol =   0.100000E-04
 Iteration #          3
  pAp =   0.908310649909994       rzold =   0.241839805106385       alpha = 
  0.266252306003843     
 delta_qm =   0.195624E-02 delta_en =   0.661287E+01 tol =   0.100000E-04
 Iteration #          4
  pAp =   0.435846359775065       rzold =   9.237392195720276E-002  alpha = 
  0.211941478655175     
 delta_qm =   0.169610E-02 delta_en =   0.497102E+01 tol =   0.100000E-04
 Iteration #          5
  pAp =   0.183051952483507       rzold =   4.411589662187941E-002  alpha = 
  0.241002054462403     
 delta_qm =   0.107770E-02 delta_en =   0.200697E+01 tol =   0.100000E-04
 Iteration #          6
  pAp =   0.143497237011565       rzold =   2.995279446977288E-002  alpha = 
  0.208734294078142     
 delta_qm =   0.103949E-02 delta_en =   0.186716E+01 tol =   0.100000E-04
 Iteration #          7
  pAp =   6.550562070859965E-002  rzold =   1.561117809647788E-002  alpha = 
  0.238318146253798     
 delta_qm =   0.650222E-03 delta_en =   0.730579E+00 tol =   0.100000E-04
 Iteration #          8
  pAp =   5.190017996466541E-002  rzold =   1.077144674629175E-002  alpha = 
  0.207541606861964     
 delta_qm =   0.651750E-03 delta_en =   0.734017E+00 tol =   0.100000E-04
 Iteration #          9
  pAp =   2.391468990788446E-002  rzold =   5.679826905393162E-003  alpha = 
  0.237503681932358     
 delta_qm =   0.406247E-03 delta_en =   0.285183E+00 tol =   0.100000E-04
 Iteration #         10
  pAp =   1.902486941566205E-002  rzold =   3.943222306398478E-003  alpha = 
  0.207266721271278     
 delta_qm =   0.417526E-03 delta_en =   0.301239E+00 tol =   0.100000E-04
 Iteration #         11
  pAp =   8.808391934347685E-003  rzold =   2.091161136962615E-003  alpha = 
  0.237405550587308     
 delta_qm =   0.261227E-03 delta_en =   0.117918E+00 tol =   0.100000E-04
 Iteration #         12
  pAp =   7.034039618181938E-003  rzold =   1.458226595910738E-003  alpha = 
  0.207309977632403     
 delta_qm =   0.273074E-03 delta_en =   0.128856E+00 tol =   0.100000E-04
 Iteration #         13
  pAp =   3.269836143254359E-003  rzold =   7.767844788755074E-004  alpha = 
  0.237560674249077     
 delta_qm =   0.172491E-03 delta_en =   0.514135E-01 tol =   0.100000E-04
 Iteration #         14
  pAp =   2.622870135521047E-003  rzold =   5.441997919541424E-004  alpha = 
  0.207482553018598     
 delta_qm =   0.182170E-03 delta_en =   0.573450E-01 tol =   0.100000E-04
 Iteration #         15
  pAp =   1.224861860629978E-003  rzold =   2.913306496324649E-004  alpha = 
  0.237847759814014     
 delta_qm =   0.116780E-03 delta_en =   0.235656E-01 tol =   0.100000E-04
 Iteration #         16
  pAp =   9.881719452207853E-004  rzold =   2.052890216045588E-004  alpha = 
  0.207746255697121     
 delta_qm =   0.123787E-03 delta_en =   0.264786E-01 tol =   0.100000E-04
 Iteration #         17
  pAp =   4.641926989310441E-004  rzold =   1.105967758132307E-004  alpha = 
  0.238256172636743     
 delta_qm =   0.808618E-04 delta_en =   0.112987E-01 tol =   0.100000E-04
 Iteration #         18
  pAp =   3.773599368604017E-004  rzold =   7.853210008858851E-005  alpha = 
  0.208109267618518     
 delta_qm =   0.855213E-04 delta_en =   0.126384E-01 tol =   0.100000E-04
 Iteration #         19
  pAp =   1.786533908860146E-004  rzold =   4.266385396777254E-005  alpha = 
  0.238807971996418     
 delta_qm =   0.570571E-04 delta_en =   0.562552E-02 tol =   0.100000E-04
 Iteration #         20
  pAp =   1.467141934624162E-004  rzold =   3.060337927406270E-005  alpha = 
  0.208591810729630     
 delta_qm =   0.599398E-04 delta_en =   0.620833E-02 tol =   0.100000E-04
 Iteration #         21
  pAp =   7.017664961082027E-005  rzold =   1.680939884523025E-005  alpha = 
  0.239529799989746     
 delta_qm =   0.408535E-04 delta_en =   0.288405E-02 tol =   0.100000E-04
 Iteration #         22
  pAp =   5.839641842576070E-005  rzold =   1.221715122579947E-005  alpha = 
  0.209210625499766     
 delta_qm =   0.425203E-04 delta_en =   0.312418E-02 tol =   0.100000E-04
 Iteration #         23
  pAp =   2.830195902032673E-005  rzold =   6.804796261043247E-006  alpha = 
  0.240435520953019     
 delta_qm =   0.295624E-04 delta_en =   0.151016E-02 tol =   0.100000E-04
 Iteration #         24
  pAp =   2.394348381838294E-005  rzold =   5.027328146161737E-006  alpha = 
  0.209966443659378     
 delta_qm =   0.304616E-04 delta_en =   0.160343E-02 tol =   0.100000E-04
 Iteration #         25
  pAp =   1.179185796659547E-005  rzold =   2.847857234321465E-006  alpha = 
  0.241510476329431     
 delta_qm =   0.215463E-04 delta_en =   0.802209E-03 tol =   0.100000E-04
 Iteration #         26
  pAp =   1.017319773939434E-005  rzold =   2.144851520515729E-006  alpha = 
  0.210833562411756     
 delta_qm =   0.219953E-04 delta_en =   0.835997E-03 tol =   0.100000E-04
 Iteration #         27
  pAp =   5.103105598791238E-006  rzold =   1.238532797485212E-006  alpha = 
  0.242701777086208     
 delta_qm =   0.157776E-04 delta_en =   0.430158E-03 tol =   0.100000E-04
 Iteration #         28
  pAp =   4.499041067596750E-006  rzold =   9.527065051748908E-007  alpha = 
  0.211757681439391     
 delta_qm =   0.159815E-04 delta_en =   0.441345E-03 tol =   0.100000E-04
 Iteration #         29
  pAp =   2.301415594082343E-006  rzold =   5.613703911486400E-007  alpha = 
  0.243923953844798     
 delta_qm =   0.115890E-04 delta_en =   0.232077E-03 tol =   0.100000E-04
 Iteration #         30
  pAp =   2.074525217622660E-006  rzold =   4.411843065064623E-007  alpha = 
  0.212667603535832     
 delta_qm =   0.116697E-04 delta_en =   0.235323E-03 tol =   0.100000E-04
 Iteration #         31
  pAp =   1.081809807677708E-006  rzold =   2.651326265529163E-007  alpha = 
  0.245082476301513     
 delta_qm =   0.853073E-05 delta_en =   0.125752E-03 tol =   0.100000E-04
 Iteration #         32
  pAp =   9.958515265749782E-007  rzold =   2.126114044909853E-007  alpha = 
  0.213497091501398     
 delta_qm =   0.855574E-05 delta_en =   0.126491E-03 tol =   0.100000E-04
 Iteration #         33
  pAp =   5.284859163832927E-007  rzold =   1.300620365460379E-007  alpha = 
  0.246103126902834     
 delta_qm =   0.629069E-05 delta_en =   0.683817E-04 tol =   0.100000E-04
 Iteration #         34
  pAp =   4.955594104622856E-007  rzold =   1.061507497764837E-007  alpha = 
  0.214203882592927     
 delta_qm =   0.629402E-05 delta_en =   0.684541E-04 tol =   0.100000E-04
 Iteration #         35
  pAp =   2.669337939370259E-007  rzold =   6.591913627285480E-008  alpha = 
  0.246949385091369     
 delta_qm =   0.464670E-05 delta_en =   0.373106E-04 tol =   0.100000E-04
 Iteration #         36
  pAp =   2.541552610789124E-007  rzold =   5.458627908658785E-008  alpha = 
  0.214775326132790     
 delta_qm =   0.464388E-05 delta_en =   0.372654E-04 tol =   0.100000E-04
 Iteration #         37
  pAp =   1.385558044858449E-007  rzold =   3.430930327602909E-008  alpha = 
  0.247620829768515     
 delta_qm =   0.343834E-05 delta_en =   0.204288E-04 tol =   0.100000E-04
 Iteration #         38
  pAp =   1.335269908898322E-007  rzold =   2.873787751206202E-008  alpha = 
  0.215221486836115     
 delta_qm =   0.343546E-05 delta_en =   0.203945E-04 tol =   0.100000E-04
 Iteration #         39
  pAp =   7.347790708243023E-008  rzold =   1.823279155385237E-008  alpha = 
  0.248139778034208     
 delta_qm =   0.254889E-05 delta_en =   0.112265E-04 tol =   0.100000E-04
 Iteration #         40
  pAp =   7.147349466721053E-008  rzold =   1.540709668919772E-008  alpha = 
  0.215563780124857     
 delta_qm =   0.254767E-05 delta_en =   0.112158E-04 tol =   0.100000E-04
 Iteration #         41
  pAp =   3.961307665757460E-008  rzold =   9.845314746588041E-009  alpha = 
  0.248536987714775     
 delta_qm =   0.189312E-05 delta_en =   0.619298E-05 tol =   0.100000E-04
 Charges are converged, EXIT

%%%% DENSITY %%%%%%%%%%%%%%%%%%%%%%%%%%%%%%%%%%%%%%%%%%%%%%%%%%%%%%%%%%%%%%%%%%%
 density label              = velectrostatic                                                                  
 integral of density        =     0.1228449441E-11

%%%% CHARGES %%%%%%%%%%%%%%%%%%%%%%%%%%%%%%%%%%%%%%%%%%%%%%%%%%%%%%%%%%%%%%%%%%%
 total number of charges    =         34
 total charge               =     -1.0000000

%%%% DENSITY %%%%%%%%%%%%%%%%%%%%%%%%%%%%%%%%%%%%%%%%%%%%%%%%%%%%%%%%%%%%%%%%%%%
 density label              = vsoftcavity                                                                     
 integral of density        =      71.22744381    

%%%% ELECTRONS %%%%%%%%%%%%%%%%%%%%%%%%%%%%%%%%%%%%%%%%%%%%%%%%%%%%%%%%%%%%%%%%%
 number of electrons        =         24
 total electronic charge    =     24.0000000

%%%% BOUNDARY %%%%%%%%%%%%%%%%%%%%%%%%%%%%%%%%%%%%%%%%%%%%%%%%%%%%%%%%%%%%%%%%%%
 boundary label             = solvent              
 boundary mode              = electronic           
 boundary is built as a function of a smooth density
 function type              =  2 
 using the modified SCCS function with parameters 
 rhomax                     =      0.0050000 
 rhomin                     =      0.0001000 
 volume of the QM region    =    837.6757710 
 surface of the QM region   =    448.9929608 

%%%% DIELECTRIC %%%%%%%%%%%%%%%%%%%%%%%%%%%%%%%%%%%%%%%%%%%%%%%%%%%%%%%%%%%%%%%%%
 dielectric build on homogeneous background
 environment bulk permitt.  =    100.0000000 
 dielectric flags
 need gradient              =  F 
 need factor depend. sqrt   =  T 
 total dielectric charge    =      0.9813672

%%%% DENSITY %%%%%%%%%%%%%%%%%%%%%%%%%%%%%%%%%%%%%%%%%%%%%%%%%%%%%%%%%%%%%%%%%%%
 density label              = vreference                                                                      
 integral of density        =    -0.3179678743E-12

%%%% COMPUTE ELECTROSTATIC POTENTIAL %%%%%%%%%%%%%%%%%%%%%%%%%%%%%%%%%%%%%%%%%%%
 Warning: bad guess with residual norm =   0.739952E+03, reset to no guess
 Iteration #          1
  pAp =    95.4532966094101       rzold =    92.7270418819568       alpha = 
  0.971438862519238     
 delta_qm =   0.202002E-01 delta_en =   0.705105E+03 tol =   0.100000E-04
 Iteration #          2
  pAp =    172.617733752236       rzold =    19.5453957354403       alpha = 
  0.113229361263046     
 delta_qm =   0.430270E-02 delta_en =   0.319909E+02 tol =   0.100000E-04
 Iteration #          3
  pAp =    1.16214989285498       rzold =   0.247084785916363       alpha = 
  0.212610083635051     
 delta_qm =   0.230204E-02 delta_en =   0.915733E+01 tol =   0.100000E-04
 Iteration #          4
  pAp =   0.449525510056334       rzold =   8.774100217175319E-002  alpha = 
  0.195185813060437     
 delta_qm =   0.233867E-02 delta_en =   0.945112E+01 tol =   0.100000E-04
 Iteration #          5
  pAp =   0.250267041796621       rzold =   5.069138737221050E-002  alpha = 
  0.202549193087137     
 delta_qm =   0.138266E-02 delta_en =   0.330350E+01 tol =   0.100000E-04
 Iteration #          6
  pAp =   0.174982251151780       rzold =   3.369925270077379E-002  alpha = 
  0.192586690815533     
 delta_qm =   0.158809E-02 delta_en =   0.435807E+01 tol =   0.100000E-04
 Iteration #          7
  pAp =   0.103121871088790       rzold =   2.069799029565108E-002  alpha = 
  0.200713874536175     
 delta_qm =   0.918562E-03 delta_en =   0.145801E+01 tol =   0.100000E-04
 Iteration #          8
  pAp =   7.304733348124298E-002  rzold =   1.399568868519387E-002  alpha = 
  0.191597530234114     
 delta_qm =   0.110882E-02 delta_en =   0.212455E+01 tol =   0.100000E-04
 Iteration #          9
  pAp =   4.343283075553268E-002  rzold =   8.694219350363287E-003  alpha = 
  0.200176207701032     
 delta_qm =   0.648092E-03 delta_en =   0.725801E+00 tol =   0.100000E-04
 Iteration #         10
  pAp =   3.097000386762362E-002  rzold =   5.928647202141344E-003  alpha = 
  0.191431916750234     
 delta_qm =   0.793848E-03 delta_en =   0.108898E+01 tol =   0.100000E-04
 Iteration #         11
  pAp =   1.853901502090168E-002  rzold =   3.711983575730206E-003  alpha = 
  0.200225501276371     
 delta_qm =   0.478079E-03 delta_en =   0.394951E+00 tol =   0.100000E-04
 Iteration #         12
  pAp =   1.331158067991550E-002  rzold =   2.550761834965170E-003  alpha = 
  0.191619755482064     
 delta_qm =   0.581571E-03 delta_en =   0.584453E+00 tol =   0.100000E-04
 Iteration #         13
  pAp =   8.029004934407754E-003  rzold =   1.610194360223566E-003  alpha = 
  0.200547187774563     
 delta_qm =   0.364114E-03 delta_en =   0.229097E+00 tol =   0.100000E-04
 Iteration #         14
  pAp =   5.815754539261432E-003  rzold =   1.116643005091631E-003  alpha = 
  0.192003118005293     
 delta_qm =   0.434655E-03 delta_en =   0.326463E+00 tol =   0.100000E-04
 Iteration #         15
  pAp =   3.541889686510020E-003  rzold =   7.121201893299575E-004  alpha = 
  0.201056569334219     
 delta_qm =   0.283367E-03 delta_en =   0.138753E+00 tol =   0.100000E-04
 Iteration #         16
  pAp =   2.595170780918316E-003  rzold =   4.997001955454263E-004  alpha = 
  0.192550023767070     
 delta_qm =   0.330246E-03 delta_en =   0.188460E+00 tol =   0.100000E-04
 Iteration #         17
  pAp =   1.600546858047067E-003  rzold =   3.229000223340806E-004  alpha = 
  0.201743560777766     
 delta_qm =   0.223498E-03 delta_en =   0.863158E-01 tol =   0.100000E-04
 Iteration #         18
  pAp =   1.190294486398394E-003  rzold =   2.300347150865253E-004  alpha = 
  0.193258658017115     
 delta_qm =   0.254192E-03 delta_en =   0.111652E+00 tol =   0.100000E-04
 Iteration #         19
  pAp =   7.459377696148278E-004  rzold =   1.511293172462712E-004  alpha = 
  0.202603117045954     
 delta_qm =   0.177588E-03 delta_en =   0.544967E-01 tol =   0.100000E-04
 Iteration #         20
  pAp =   5.650449618156342E-004  rzold =   1.096831044439219E-004  alpha = 
  0.194113941112725     
 delta_qm =   0.197584E-03 delta_en =   0.674600E-01 tol =   0.100000E-04
 Iteration #         21
  pAp =   3.609685138742723E-004  rzold =   7.349398575929119E-005  alpha = 
  0.203602206105128     
 delta_qm =   0.141591E-03 delta_en =   0.346428E-01 tol =   0.100000E-04
 Iteration #         22
  pAp =   2.793273822028755E-004  rzold =   5.448779778431841E-005  alpha = 
  0.195067871093081     
 delta_qm =   0.154689E-03 delta_en =   0.413487E-01 tol =   0.100000E-04
 Iteration #         23
  pAp =   1.822989859064004E-004  rzold =   3.731106174532967E-005  alpha = 
  0.204669606689346     
 delta_qm =   0.113002E-03 delta_en =   0.220658E-01 tol =   0.100000E-04
 Iteration #         24
  pAp =   1.443154722710985E-004  rzold =   2.829181763162387E-005  alpha = 
  0.196041472105481     
 delta_qm =   0.121725E-03 delta_en =   0.256037E-01 tol =   0.100000E-04
 Iteration #         25
  pAp =   9.626144660973951E-005  rzold =   1.980197816986073E-005  alpha = 
  0.205710373854461     
 delta_qm =   0.901627E-04 delta_en =   0.140475E-01 tol =   0.100000E-04
 Iteration #         26
  pAp =   7.791313601926680E-005  rzold =   1.534482178490821E-005  alpha = 
  0.196947813538319     
 delta_qm =   0.961250E-04 delta_en =   0.159668E-01 tol =   0.100000E-04
 Iteration #         27
  pAp =   5.303464464646945E-005  rzold =   1.095894772644392E-005  alpha = 
  0.206637525328898     
 delta_qm =   0.718852E-04 delta_en =   0.892942E-02 tol =   0.100000E-04
 Iteration #         28
  pAp =   4.378141768016126E-005  rzold =   8.656534668820839E-006  alpha = 
  0.197721662008752     
 delta_qm =   0.760944E-04 delta_en =   0.100057E-01 tol =   0.100000E-04
 Iteration #         29
  pAp =   3.032185022835149E-005  rzold =   6.288733581452733E-006  alpha = 
  0.207399401226929     
 delta_qm =   0.572680E-04 delta_en =   0.566718E-02 tol =   0.100000E-04
 Iteration #         30
  pAp =   2.544039566953940E-005  rzold =   5.045736968206080E-006  alpha = 
  0.198335632580098     
 delta_qm =   0.603406E-04 delta_en =   0.629163E-02 tol =   0.100000E-04
 Iteration #         31
  pAp =   1.786277184955039E-005  rzold =   3.715206869668860E-006  alpha = 
  0.207986022603898     
 delta_qm =   0.455956E-04 delta_en =   0.359244E-02 tol =   0.100000E-04
 Iteration #         32
  pAp =   1.517506800885506E-005  rzold =   3.016746654328088E-006  alpha = 
  0.198796252680234     
 delta_qm =   0.479076E-04 delta_en =   0.396600E-02 tol =   0.100000E-04
 Iteration #         33
  pAp =   1.076518453331810E-005  rzold =   2.243648687579433E-006  alpha = 
  0.208417113578998     
 delta_qm =   0.362896E-04 delta_en =   0.227567E-02 tol =   0.100000E-04
 Iteration #         34
  pAp =   9.229460777017872E-006  rzold =   1.837855237390281E-006  alpha = 
  0.199129210448209     
 delta_qm =   0.380726E-04 delta_en =   0.250478E-02 tol =   0.100000E-04
 Iteration #         35
  pAp =   6.596146826761049E-006  rzold =   1.376781851862206E-006  alpha = 
  0.208725167589736     
 delta_qm =   0.288799E-04 delta_en =   0.144123E-02 tol =   0.100000E-04
 Iteration #         36
  pAp =   5.692185463161446E-006  rzold =   1.134824776785613E-006  alpha = 
  0.199365390346106     
 delta_qm =   0.302804E-04 delta_en =   0.158441E-02 tol =   0.100000E-04
 Iteration #         37
  pAp =   4.089538499796445E-006  rzold =   8.544808167331897E-007  alpha = 
  0.208943091445580     
 delta_qm =   0.229852E-04 delta_en =   0.912938E-03 tol =   0.100000E-04
 Iteration #         38
  pAp =   3.545378105830698E-006  rzold =   7.074188171688980E-007  alpha = 
  0.199532686233235     
 delta_qm =   0.240997E-04 delta_en =   0.100361E-02 tol =   0.100000E-04
 Iteration #         39
  pAp =   2.556634900989023E-006  rzold =   5.345881085053465E-007  alpha = 
  0.209098337935754     
 delta_qm =   0.182983E-04 delta_en =   0.578585E-03 tol =   0.100000E-04
 Iteration #         40
  pAp =   2.223700485449705E-006  rzold =   4.439685035038381E-007  alpha = 
  0.199653013707938     
 delta_qm =   0.191929E-04 delta_en =   0.636536E-03 tol =   0.100000E-04
 Iteration #         41
  pAp =   1.607815429846220E-006  rzold =   3.363735310399634E-007  alpha = 
  0.209211533112439     
 delta_qm =   0.145726E-04 delta_en =   0.366959E-03 tol =   0.100000E-04
 Iteration #         42
  pAp =   1.401760269228446E-006  rzold =   2.799907729036000E-007  alpha = 
  0.199742266241939     
 delta_qm =   0.152946E-04 delta_en =   0.404224E-03 tol =   0.100000E-04
 Iteration #         43
  pAp =   1.015511488664544E-006  rzold =   2.125437456596844E-007  alpha = 
  0.209297233987172     
 delta_qm =   0.116109E-04 delta_en =   0.232956E-03 tol =   0.100000E-04
 Iteration #         44
  pAp =   8.869470607905769E-007  rzold =   1.772221482905126E-007  alpha = 
  0.199811416176909     
 delta_qm =   0.121958E-04 delta_en =   0.257017E-03 tol =   0.100000E-04
 Iteration #         45
  pAp =   6.435231045216363E-007  rzold =   1.347314192144528E-007  alpha = 
  0.209365317682891     
 delta_qm =   0.925604E-05 delta_en =   0.148045E-03 tol =   0.100000E-04
 Iteration #         46
  pAp =   5.628452367032659E-007  rzold =   1.124946403846029E-007  alpha = 
  0.199867802104028     
 delta_qm =   0.973087E-05 delta_en =   0.163624E-03 tol =   0.100000E-04
 Iteration #         47
  pAp =   4.088710053056378E-007  rzold =   8.562671200276172E-008  alpha = 
  0.209422313863401     
 delta_qm =   0.738317E-05 delta_en =   0.941954E-04 tol =   0.100000E-04
 Iteration #         48
  pAp =   3.580306812889165E-007  rzold =   7.157614296576885E-008  alpha = 
  0.199916227034213     
 delta_qm =   0.776914E-05 delta_en =   0.104301E-03 tol =   0.100000E-04
 Iteration #         49
  pAp =   2.603578475064734E-007  rzold =   5.453779869243119E-008  alpha = 
  0.209472459596499     
 delta_qm =   0.589301E-05 delta_en =   0.600092E-04 tol =   0.100000E-04
 Iteration #         50
  pAp =   2.282180378467390E-007  rzold =   4.563442932031651E-008  alpha = 
  0.199959782981582     
 delta_qm =   0.620695E-05 delta_en =   0.665734E-04 tol =   0.100000E-04
 Iteration #         51
  pAp =   1.661138399418187E-007  rzold =   3.480391631278312E-008  alpha = 
  0.209518462308578     
 delta_qm =   0.470677E-05 delta_en =   0.382815E-04 tol =   0.100000E-04
 Iteration #         52
  pAp =   1.457443801962589E-007  rzold =   2.914893880440723E-008  alpha = 
  0.200000430652320     
 delta_qm =   0.496221E-05 delta_en =   0.425495E-04 tol =   0.100000E-04
 Iteration #         53
  pAp =   1.061755435718830E-007  rzold =   2.225036191504005E-008  alpha = 
  0.209562024987196     
 delta_qm =   0.376195E-05 delta_en =   0.244552E-04 tol =   0.100000E-04
 Iteration #         54
  pAp =   9.323829339252597E-008  rzold =   1.865133151904977E-008  alpha = 
  0.200039391975238     
 delta_qm =   0.396981E-05 delta_en =   0.272322E-04 tol =   0.100000E-04
 Iteration #         55
  pAp =   6.798093432105068E-008  rzold =   1.424908917868162E-008  alpha = 
  0.209604197426709     
 delta_qm =   0.300898E-05 delta_en =   0.156452E-04 tol =   0.100000E-04
 Iteration #         56
  pAp =   5.974858638394668E-008  rzold =   1.195434241771680E-008  alpha = 
  0.200077410047792     
 delta_qm =   0.317810E-05 delta_en =   0.174533E-04 tol =   0.100000E-04
 Iteration #         57
  pAp =   4.359846126582048E-008  rzold =   9.140225881227308E-009  alpha = 
  0.209645607112123     
 delta_qm =   0.240851E-05 delta_en =   0.100240E-04 tol =   0.100000E-04
 Iteration #         58
  pAp =   3.835085532188709E-008  rzold =   7.674578306739716E-009  alpha = 
  0.200114919010940     
 delta_qm =   0.254609E-05 delta_en =   0.112019E-04 tol =   0.100000E-04
 Iteration #         59
  pAp =   2.800684163828739E-008  rzold =   5.872659664758531E-009  alpha = 
  0.209686609457961     
 delta_qm =   0.192935E-05 delta_en =   0.643229E-05 tol =   0.100000E-04
 Charges are converged, EXIT

%%%% DENSITY %%%%%%%%%%%%%%%%%%%%%%%%%%%%%%%%%%%%%%%%%%%%%%%%%%%%%%%%%%%%%%%%%%%
 density label              = velectrostatic                                                                  
 integral of density        =    -0.1357136625E-11

%%%% CHARGES %%%%%%%%%%%%%%%%%%%%%%%%%%%%%%%%%%%%%%%%%%%%%%%%%%%%%%%%%%%%%%%%%%%
 total number of charges    =         34
 total charge               =     -1.0000000

%%%% DENSITY %%%%%%%%%%%%%%%%%%%%%%%%%%%%%%%%%%%%%%%%%%%%%%%%%%%%%%%%%%%%%%%%%%%
 density label              = vsoftcavity                                                                     
 integral of density        =      49.60206136    

%%%% ELECTRONS %%%%%%%%%%%%%%%%%%%%%%%%%%%%%%%%%%%%%%%%%%%%%%%%%%%%%%%%%%%%%%%%%
 number of electrons        =         24
 total electronic charge    =     24.0000000

%%%% BOUNDARY %%%%%%%%%%%%%%%%%%%%%%%%%%%%%%%%%%%%%%%%%%%%%%%%%%%%%%%%%%%%%%%%%%
 boundary label             = solvent              
 boundary mode              = electronic           
 boundary is built as a function of a smooth density
 function type              =  2 
 using the modified SCCS function with parameters 
 rhomax                     =      0.0050000 
 rhomin                     =      0.0001000 
 volume of the QM region    =    757.1451779 
 surface of the QM region   =    424.1890029 

%%%% DIELECTRIC %%%%%%%%%%%%%%%%%%%%%%%%%%%%%%%%%%%%%%%%%%%%%%%%%%%%%%%%%%%%%%%%%
 dielectric build on homogeneous background
 environment bulk permitt.  =    100.0000000 
 dielectric flags
 need gradient              =  F 
 need factor depend. sqrt   =  T 
 total dielectric charge    =      0.9822880

%%%% DENSITY %%%%%%%%%%%%%%%%%%%%%%%%%%%%%%%%%%%%%%%%%%%%%%%%%%%%%%%%%%%%%%%%%%%
 density label              = vreference                                                                      
 integral of density        =    -0.8968628309E-12

%%%% COMPUTE ELECTROSTATIC POTENTIAL %%%%%%%%%%%%%%%%%%%%%%%%%%%%%%%%%%%%%%%%%%%
 Warning: bad guess with residual norm =   0.919184E+03, reset to no guess
 Iteration #          1
  pAp =    95.9547386894177       rzold =    93.3874449793497       alpha = 
  0.973244742832580     
 delta_qm =   0.225243E-01 delta_en =   0.876692E+03 tol =   0.100000E-04
 Iteration #          2
  pAp =    216.526750223087       rzold =    21.4226543344150       alpha = 
  9.893768004342762E-002
 delta_qm =   0.444864E-02 delta_en =   0.341979E+02 tol =   0.100000E-04
 Iteration #          3
  pAp =    1.24400163316255       rzold =   0.263898953877315       alpha = 
  0.212137144230608     
 delta_qm =   0.216501E-02 delta_en =   0.809957E+01 tol =   0.100000E-04
 Iteration #          4
  pAp =   0.416505672189154       rzold =   7.849366765043124E-002  alpha = 
  0.188457619887548     
 delta_qm =   0.236535E-02 delta_en =   0.966797E+01 tol =   0.100000E-04
 Iteration #          5
  pAp =   0.295343730298743       rzold =   5.089842402772703E-002  alpha = 
  0.172336226593477     
 delta_qm =   0.133007E-02 delta_en =   0.305696E+01 tol =   0.100000E-04
 Iteration #          6
  pAp =   0.173353187683649       rzold =   3.169857555527349E-002  alpha = 
  0.182855452379220     
 delta_qm =   0.166578E-02 delta_en =   0.479487E+01 tol =   0.100000E-04
 Iteration #          7
  pAp =   0.133349512263553       rzold =   2.280618232666796E-002  alpha = 
  0.171025614863844     
 delta_qm =   0.945699E-03 delta_en =   0.154543E+01 tol =   0.100000E-04
 Iteration #          8
  pAp =   7.977993971641686E-002  rzold =   1.452255410383559E-002  alpha = 
  0.182032653264179     
 delta_qm =   0.120917E-02 delta_en =   0.252648E+01 tol =   0.100000E-04
 Iteration #          9
  pAp =   6.187287281227246E-002  rzold =   1.055987656815719E-002  alpha = 
  0.170670539255495     
 delta_qm =   0.708993E-03 delta_en =   0.868615E+00 tol =   0.100000E-04
 Iteration #         10
  pAp =   3.729791658065684E-002  rzold =   6.785122501378566E-003  alpha = 
  0.181916930579908     
 delta_qm =   0.902388E-03 delta_en =   0.140712E+01 tol =   0.100000E-04
 Iteration #         11
  pAp =   2.912674058123086E-002  rzold =   4.973160307506182E-003  alpha = 
  0.170742081271904     
 delta_qm =   0.552840E-03 delta_en =   0.528132E+00 tol =   0.100000E-04
 Iteration #         12
  pAp =   1.768906093778932E-002  rzold =   3.221882489294581E-003  alpha = 
  0.182139826451253     
 delta_qm =   0.690487E-03 delta_en =   0.823863E+00 tol =   0.100000E-04
 Iteration #         13
  pAp =   1.393075661535320E-002  rzold =   2.382663865366005E-003  alpha = 
  0.171036213692805     
 delta_qm =   0.443582E-03 delta_en =   0.340010E+00 tol =   0.100000E-04
 Iteration #         14
  pAp =   8.538638228913729E-003  rzold =   1.558905618877438E-003  alpha = 
  0.182570753917016     
 delta_qm =   0.539875E-03 delta_en =   0.503652E+00 tol =   0.100000E-04
 Iteration #         15
  pAp =   6.799473398751937E-003  rzold =   1.166078604092720E-003  alpha = 
  0.171495428499913     
 delta_qm =   0.362964E-03 delta_en =   0.227652E+00 tol =   0.100000E-04
 Iteration #         16
  pAp =   4.218113962305112E-003  rzold =   7.726826107528028E-004  alpha = 
  0.183182013965917     
 delta_qm =   0.429700E-03 delta_en =   0.319062E+00 tol =   0.100000E-04
 Iteration #         17
  pAp =   3.408141601701672E-003  rzold =   5.865781155423022E-004  alpha = 
  0.172110840479582     
 delta_qm =   0.300703E-03 delta_en =   0.156249E+00 tol =   0.100000E-04
 Iteration #         18
  pAp =   2.147269043855863E-003  rzold =   3.950276640196997E-004  alpha = 
  0.183967474942193     
 delta_qm =   0.346859E-03 delta_en =   0.207898E+00 tol =   0.100000E-04
 Iteration #         19
  pAp =   1.767013983499342E-003  rzold =   3.054659561265821E-004  alpha = 
  0.172871272654926     
 delta_qm =   0.250890E-03 delta_en =   0.108771E+00 tol =   0.100000E-04
 Iteration #         20
  pAp =   1.134575166098091E-003  rzold =   2.097842076677689E-004  alpha = 
  0.184901110068570     
 delta_qm =   0.283004E-03 delta_en =   0.138398E+00 tol =   0.100000E-04
 Iteration #         21
  pAp =   9.540903375522506E-004  rzold =   1.657616059362372E-004  alpha = 
  0.173737852079609     
 delta_qm =   0.210060E-03 delta_en =   0.762486E-01 tol =   0.100000E-04
 Iteration #         22
  pAp =   6.259339877080663E-004  rzold =   1.163734658628388E-004  alpha = 
  0.185919710621490     
 delta_qm =   0.232729E-03 delta_en =   0.935935E-01 tol =   0.100000E-04
 Iteration #         23
  pAp =   5.389188552861779E-004  rzold =   9.411671162020474E-005  alpha = 
  0.174639856625960     
 delta_qm =   0.176102E-03 delta_en =   0.535888E-01 tol =   0.100000E-04
 Iteration #         24
  pAp =   3.615609783658998E-004  rzold =   6.758702955094844E-005  alpha = 
  0.186931205508993     
 delta_qm =   0.192461E-03 delta_en =   0.640073E-01 tol =   0.100000E-04
 Iteration #         25
  pAp =   3.186647011977470E-004  rzold =   5.592341886222121E-005  alpha = 
  0.175492982599030     
 delta_qm =   0.147651E-03 delta_en =   0.376717E-01 tol =   0.100000E-04
 Iteration #         26
  pAp =   2.183640133773244E-004  rzold =   4.101846286080598E-005  alpha = 
  0.187844426498645     
 delta_qm =   0.159780E-03 delta_en =   0.441151E-01 tol =   0.100000E-04
 Iteration #         27
  pAp =   1.965614175417779E-004  rzold =   3.463976115054270E-005  alpha = 
  0.176228690165913     
 delta_qm =   0.123748E-03 delta_en =   0.264619E-01 tol =   0.100000E-04
 Iteration #         28
  pAp =   1.371726177176181E-004  rzold =   2.587072708608577E-005  alpha = 
  0.188599791390895     
 delta_qm =   0.132999E-03 delta_en =   0.305659E-01 tol =   0.100000E-04
 Iteration #         29
  pAp =   1.256496571744354E-004  rzold =   2.221659131862982E-005  alpha = 
  0.176813783803542     
 delta_qm =   0.103663E-03 delta_en =   0.185690E-01 tol =   0.100000E-04
 Iteration #         30
  pAp =   8.896699788398707E-005  rzold =   1.683080908057718E-005  alpha = 
  0.189180364414730     
 delta_qm =   0.110903E-03 delta_en =   0.212535E-01 tol =   0.100000E-04
 Iteration #         31
  pAp =   8.259305404866477E-005  rzold =   1.463960532368945E-005  alpha = 
  0.177249836470070     
 delta_qm =   0.867996E-04 delta_en =   0.130191E-01 tol =   0.100000E-04
 Iteration #         32
  pAp =   5.911581452188708E-005  rzold =   1.120848153443545E-005  alpha = 
  0.189602082371471     
 delta_qm =   0.925890E-04 delta_en =   0.148137E-01 tol =   0.100000E-04
 Iteration #         33
  pAp =   5.541716860714102E-005  rzold =   9.839849986100998E-006  alpha = 
  0.177559594497815     
 delta_qm =   0.726574E-04 delta_en =   0.912229E-02 tol =   0.100000E-04
 Iteration #         34
  pAp =   3.997021780232757E-005  rzold =   7.590199709154669E-006  alpha = 
  0.189896381017785     
 delta_qm =   0.773625E-04 delta_en =   0.103420E-01 tol =   0.100000E-04
 Iteration #         35
  pAp =   3.772460983988730E-005  rzold =   6.706401813294454E-006  alpha = 
  0.177772595707632     
 delta_qm =   0.608085E-04 delta_en =   0.638957E-02 tol =   0.100000E-04
 Iteration #         36
  pAp =   2.735311991756378E-005  rzold =   5.199733183237374E-006  alpha = 
  0.190096530081695     
 delta_qm =   0.646771E-04 delta_en =   0.722843E-02 tol =   0.100000E-04
 Iteration #         37
  pAp =   2.593572130452195E-005  rzold =   4.614385870817959E-006  alpha = 
  0.177916234394971     
 delta_qm =   0.508880E-04 delta_en =   0.447480E-02 tol =   0.100000E-04
 Iteration #         38
  pAp =   1.887223929685164E-005  rzold =   3.590080618962993E-006  alpha = 
  0.190230770312557     
 delta_qm =   0.540942E-04 delta_en =   0.505645E-02 tol =   0.100000E-04
 Iteration #         39
  pAp =   1.794969868834686E-005  rzold =   3.195266566932757E-006  alpha = 
  0.178012267638072     
 delta_qm =   0.425860E-04 delta_en =   0.313384E-02 tol =   0.100000E-04
 Iteration #         40
  pAp =   1.309220141708424E-005  rzold =   2.491713916357800E-006  alpha = 
  0.190320469184527     
 delta_qm =   0.452575E-04 delta_en =   0.353936E-02 tol =   0.100000E-04
 Iteration #         41
  pAp =   1.247791648187679E-005  rzold =   2.222024176632892E-006  alpha = 
  0.178076538648116     
 delta_qm =   0.356404E-04 delta_en =   0.219497E-02 tol =   0.100000E-04
 Iteration #         42
  pAp =   9.115616533143454E-006  rzold =   1.735437863157234E-006  alpha = 
  0.190380744609798     
 delta_qm =   0.378741E-04 delta_en =   0.247872E-02 tol =   0.100000E-04
 Iteration #         43
  pAp =   8.699937546848764E-006  rzold =   1.549632874235823E-006  alpha = 
  0.178119999815070     
 delta_qm =   0.298304E-04 delta_en =   0.153767E-02 tol =   0.100000E-04
 Iteration #         44
  pAp =   6.362452427475338E-006  rzold =   1.211550055824535E-006  alpha = 
  0.190421864781673     
 delta_qm =   0.317022E-04 delta_en =   0.173669E-02 tol =   0.100000E-04
 Iteration #         45
  pAp =   6.078036624778807E-006  rzold =   1.082802128892011E-006  alpha = 
  0.178149984236302     
 delta_qm =   0.249706E-04 delta_en =   0.107746E-02 tol =   0.100000E-04
 Iteration #         46
  pAp =   4.448269608126379E-006  rzold =   8.471757488058947E-007  alpha = 
  0.190450629893975     
 delta_qm =   0.265413E-04 delta_en =   0.121727E-02 tol =   0.100000E-04
 Iteration #         47
  pAp =   4.252210018472550E-006  rzold =   7.576218093812662E-007  alpha = 
  0.178171305295361     
 delta_qm =   0.209053E-04 delta_en =   0.755193E-03 tol =   0.100000E-04
 Iteration #         48
  pAp =   3.113641628921034E-006  rzold =   5.930599087942260E-007  alpha = 
  0.190471473430209     
 delta_qm =   0.222246E-04 delta_en =   0.853514E-03 tol =   0.100000E-04
 Iteration #         49
  pAp =   2.977814737190503E-006  rzold =   5.306081247779574E-007  alpha = 
  0.178187084022082     
 delta_qm =   0.175045E-04 delta_en =   0.529474E-03 tol =   0.100000E-04
 Iteration #         50
  pAp =   2.181313418621327E-006  rzold =   4.155124126835108E-007  alpha = 
  0.190487258335453     
 delta_qm =   0.186132E-04 delta_en =   0.598667E-03 tol =   0.100000E-04
 Iteration #         51
  pAp =   2.086901088548390E-006  rzold =   3.718843743166760E-007  alpha = 
  0.178199329310500     
 delta_qm =   0.146593E-04 delta_en =   0.371337E-03 tol =   0.100000E-04
 Iteration #         52
  pAp =   1.529152174094269E-006  rzold =   2.913032186758915E-007  alpha = 
  0.190499823111740     
 delta_qm =   0.155913E-04 delta_en =   0.420056E-03 tol =   0.100000E-04
 Iteration #         53
  pAp =   1.463379505197668E-006  rzold =   2.607878796878804E-007  alpha = 
  0.178209328996072     
 delta_qm =   0.122785E-04 delta_en =   0.260515E-03 tol =   0.100000E-04
 Iteration #         54
  pAp =   1.072531554772015E-006  rzold =   2.043283566483011E-007  alpha = 
  0.190510345116825     
 delta_qm =   0.130622E-04 delta_en =   0.294831E-03 tol =   0.100000E-04
 Iteration #         55
  pAp =   1.026640339666278E-006  rzold =   1.829656928958939E-007  alpha = 
  0.178217907310528     
 delta_qm =   0.102861E-04 delta_en =   0.182827E-03 tol =   0.100000E-04
 Iteration #         56
  pAp =   7.525933802663059E-007  rzold =   1.433837730910795E-007  alpha = 
  0.190519577836764     
 delta_qm =   0.109451E-04 delta_en =   0.207006E-03 tol =   0.100000E-04
 Iteration #         57
  pAp =   7.205393257281547E-007  rzold =   1.284185478471957E-007  alpha = 
  0.178225591944506     
 delta_qm =   0.861841E-05 delta_en =   0.128351E-03 tol =   0.100000E-04
 Iteration #         58
  pAp =   5.282981390971121E-007  rzold =   1.006555900086575E-007  alpha = 
  0.190528004093830     
 delta_qm =   0.917266E-05 delta_en =   0.145390E-03 tol =   0.100000E-04
 Iteration #         59
  pAp =   5.058914279600523E-007  rzold =   9.016640598165677E-008  alpha = 
  0.178232721485798     
 delta_qm =   0.722236E-05 delta_en =   0.901369E-04 tol =   0.100000E-04
 Iteration #         60
  pAp =   3.709813167492027E-007  rzold =   7.068527178348325E-008  alpha = 
  0.190535934269890     
 delta_qm =   0.768851E-05 delta_en =   0.102148E-03 tol =   0.100000E-04
 Iteration #         61
  pAp =   3.553090133271871E-007  rzold =   6.333010589931089E-008  alpha = 
  0.178239514123987     
 delta_qm =   0.605351E-05 delta_en =   0.633225E-04 tol =   0.100000E-04
 Iteration #         62
  pAp =   2.605977211275315E-007  rzold =   4.965521985574851E-008  alpha = 
  0.190543568995556     
 delta_qm =   0.644556E-05 delta_en =   0.717902E-04 tol =   0.100000E-04
 Iteration #         63
  pAp =   2.496305614107651E-007  rzold =   4.449567686540960E-008  alpha = 
  0.178246111429411     
 delta_qm =   0.507470E-05 delta_en =   0.445004E-04 tol =   0.100000E-04
 Iteration #         64
  pAp =   1.831174271421681E-007  rzold =   3.489321600956898E-008  alpha = 
  0.190551039047085     
 delta_qm =   0.540444E-05 delta_en =   0.504714E-04 tol =   0.100000E-04
 Iteration #         65
  pAp =   1.754397839032709E-007  rzold =   3.127259870967888E-008  alpha = 
  0.178252606187209     
 delta_qm =   0.425490E-05 delta_en =   0.312841E-04 tol =   0.100000E-04
 Iteration #         66
  pAp =   1.287141820875645E-007  rzold =   2.452757254657536E-008  alpha = 
  0.190558430693280     
 delta_qm =   0.453224E-05 delta_en =   0.354951E-04 tol =   0.100000E-04
 Iteration #         67
  pAp =   1.233375296883555E-007  rzold =   2.198603211359611E-008  alpha = 
  0.178259060069952     
 delta_qm =   0.356817E-05 delta_en =   0.220007E-04 tol =   0.100000E-04
 Iteration #         68
  pAp =   9.050227029949019E-008  rzold =   1.724663770272850E-008  alpha = 
  0.190565801782164     
 delta_qm =   0.380143E-05 delta_en =   0.249711E-04 tol =   0.100000E-04
 Iteration #         69
  pAp =   8.673582311729037E-008  rzold =   1.546200616396186E-008  alpha = 
  0.178265514850226     
 delta_qm =   0.299281E-05 delta_en =   0.154776E-04 tol =   0.100000E-04
 Iteration #         70
  pAp =   6.365442588816169E-008  rzold =   1.213082712296216E-008  alpha = 
  0.190573191945452     
 delta_qm =   0.318899E-05 delta_en =   0.175732E-04 tol =   0.100000E-04
 Iteration #         71
  pAp =   6.101518921618277E-008  rzold =   1.087729978220423E-008  alpha = 
  0.178271999512530     
 delta_qm =   0.251068E-05 delta_en =   0.108925E-04 tol =   0.100000E-04
 Iteration #         72
  pAp =   4.478516797041002E-008  rzold =   8.535185484853014E-009  alpha = 
  0.190580629071042     
 delta_qm =   0.267567E-05 delta_en =   0.123711E-04 tol =   0.100000E-04
 Iteration #         73
  pAp =   4.293528073370047E-008  rzold =   7.654438938907866E-009  alpha = 
  0.178278534764530     
 delta_qm =   0.210659E-05 delta_en =   0.766842E-05 tol =   0.100000E-04
 Charges are converged, EXIT

%%%% DENSITY %%%%%%%%%%%%%%%%%%%%%%%%%%%%%%%%%%%%%%%%%%%%%%%%%%%%%%%%%%%%%%%%%%%
 density label              = velectrostatic                                                                  
 integral of density        =    -0.1013049726E-11

%%%% CHARGES %%%%%%%%%%%%%%%%%%%%%%%%%%%%%%%%%%%%%%%%%%%%%%%%%%%%%%%%%%%%%%%%%%%
 total number of charges    =         34
 total charge               =     -1.0000000

%%%% DENSITY %%%%%%%%%%%%%%%%%%%%%%%%%%%%%%%%%%%%%%%%%%%%%%%%%%%%%%%%%%%%%%%%%%%
 density label              = vsoftcavity                                                                     
 integral of density        =      37.81274370    

%%%% ELECTRONS %%%%%%%%%%%%%%%%%%%%%%%%%%%%%%%%%%%%%%%%%%%%%%%%%%%%%%%%%%%%%%%%%
 number of electrons        =         24
 total electronic charge    =     24.0000000

%%%% BOUNDARY %%%%%%%%%%%%%%%%%%%%%%%%%%%%%%%%%%%%%%%%%%%%%%%%%%%%%%%%%%%%%%%%%%
 boundary label             = solvent              
 boundary mode              = electronic           
 boundary is built as a function of a smooth density
 function type              =  2 
 using the modified SCCS function with parameters 
 rhomax                     =      0.0050000 
 rhomin                     =      0.0001000 
 volume of the QM region    =    717.0746160 
 surface of the QM region   =    412.4200185 

%%%% DIELECTRIC %%%%%%%%%%%%%%%%%%%%%%%%%%%%%%%%%%%%%%%%%%%%%%%%%%%%%%%%%%%%%%%%%
 dielectric build on homogeneous background
 environment bulk permitt.  =    100.0000000 
 dielectric flags
 need gradient              =  F 
 need factor depend. sqrt   =  T 
 total dielectric charge    =      0.9824173

%%%% DENSITY %%%%%%%%%%%%%%%%%%%%%%%%%%%%%%%%%%%%%%%%%%%%%%%%%%%%%%%%%%%%%%%%%%%
 density label              = vreference                                                                      
 integral of density        =    -0.5604076873E-12

%%%% COMPUTE ELECTROSTATIC POTENTIAL %%%%%%%%%%%%%%%%%%%%%%%%%%%%%%%%%%%%%%%%%%%
 Warning: bad guess with residual norm =   0.139383E+04, reset to no guess
 Iteration #          1
  pAp =    95.8691351092206       rzold =    93.2740062633159       alpha = 
  0.972930507373952     
 delta_qm =   0.276969E-01 delta_en =   0.132558E+04 tol =   0.100000E-04
 Iteration #          2
  pAp =    257.399232652172       rzold =    23.5292412380217       alpha = 
  9.141146613213542E-002
 delta_qm =   0.522812E-02 delta_en =   0.472319E+02 tol =   0.100000E-04
 Iteration #          3
  pAp =    1.74826713903463       rzold =   0.328895873415703       alpha = 
  0.188126783414413     
 delta_qm =   0.235798E-02 delta_en =   0.960780E+01 tol =   0.100000E-04
 Iteration #          4
  pAp =   0.517674809986389       rzold =   8.894336347348940E-002  alpha = 
  0.171813195770194     
 delta_qm =   0.276252E-02 delta_en =   0.131873E+02 tol =   0.100000E-04
 Iteration #          5
  pAp =   0.364512883179342       rzold =   5.831871404415577E-002  alpha = 
  0.159990817157106     
 delta_qm =   0.149001E-02 delta_en =   0.383636E+01 tol =   0.100000E-04
 Iteration #          6
  pAp =   0.224858457751423       rzold =   3.778971192182443E-002  alpha = 
  0.168059997830281     
 delta_qm =   0.200051E-02 delta_en =   0.691553E+01 tol =   0.100000E-04
 Iteration #          7
  pAp =   0.174063987724964       rzold =   2.768717782947164E-002  alpha = 
  0.159063216874129     
 delta_qm =   0.110022E-02 delta_en =   0.209173E+01 tol =   0.100000E-04
 Iteration #          8
  pAp =   0.109654295535368       rzold =   1.836749094706718E-002  alpha = 
  0.167503615406867     
 delta_qm =   0.149129E-02 delta_en =   0.384296E+01 tol =   0.100000E-04
 Iteration #          9
  pAp =   8.563692270452544E-002  rzold =   1.360282230587293E-002  alpha = 
  0.158842960212466     
 delta_qm =   0.856506E-03 delta_en =   0.126766E+01 tol =   0.100000E-04
 Iteration #         10
  pAp =   5.432684476943146E-002  rzold =   9.097966877004184E-003  alpha = 
  0.167467242311179     
 delta_qm =   0.114309E-02 delta_en =   0.225790E+01 tol =   0.100000E-04
 Iteration #         11
  pAp =   4.269217418370463E-002  rzold =   6.785283385692825E-003  alpha = 
  0.158935062817268     
 delta_qm =   0.692258E-03 delta_en =   0.828095E+00 tol =   0.100000E-04
 Iteration #         12
  pAp =   2.725807038896542E-002  rzold =   4.570317296065309E-003  alpha = 
  0.167668409056404     
 delta_qm =   0.898503E-03 delta_en =   0.139503E+01 tol =   0.100000E-04
 Iteration #         13
  pAp =   2.157607715860817E-002  rzold =   3.434635757172879E-003  alpha = 
  0.159187220731762     
 delta_qm =   0.574688E-03 delta_en =   0.570699E+00 tol =   0.100000E-04
 Iteration #         14
  pAp =   1.388518392057134E-002  rzold =   2.332989898261523E-003  alpha = 
  0.168020093331650     
 delta_qm =   0.721782E-03 delta_en =   0.900234E+00 tol =   0.100000E-04
 Iteration #         15
  pAp =   1.109541005433837E-002  rzold =   1.770462090025004E-003  alpha = 
  0.159567071550703     
 delta_qm =   0.485850E-03 delta_en =   0.407895E+00 tol =   0.100000E-04
 Iteration #         16
  pAp =   7.215179481015147E-003  rzold =   1.215866659113009E-003  alpha = 
  0.168515095475067     
 delta_qm =   0.590368E-03 delta_en =   0.602267E+00 tol =   0.100000E-04
 Iteration #         17
  pAp =   5.838464186344219E-003  rzold =   9.346235117385629E-004  alpha = 
  0.160080370780485     
 delta_qm =   0.415494E-03 delta_en =   0.298313E+00 tol =   0.100000E-04
 Iteration #         18
  pAp =   3.848917933605484E-003  rzold =   6.510956241339433E-004  alpha = 
  0.169163290921100     
 delta_qm =   0.489876E-03 delta_en =   0.414682E+00 tol =   0.100000E-04
 Iteration #         19
  pAp =   3.165487465924186E-003  rzold =   5.087951149898994E-004  alpha = 
  0.160731994824485     
 delta_qm =   0.357673E-03 delta_en =   0.221064E+00 tol =   0.100000E-04
 Iteration #         20
  pAp =   2.123063197326727E-003  rzold =   3.608356169134386E-004  alpha = 
  0.169959903863337     
 delta_qm =   0.411025E-03 delta_en =   0.291932E+00 tol =   0.100000E-04
 Iteration #         21
  pAp =   1.781134208627272E-003  rzold =   2.876603578093370E-004  alpha = 
  0.161504032888705     
 delta_qm =   0.308906E-03 delta_en =   0.164891E+00 tol =   0.100000E-04
 Iteration #         22
  pAp =   1.219178310302728E-003  rzold =   2.083177986950023E-004  alpha = 
  0.170867375948704     
 delta_qm =   0.347746E-03 delta_en =   0.208962E+00 tol =   0.100000E-04
 Iteration #         23
  pAp =   1.046213697246018E-003  rzold =   1.698487027929988E-004  alpha = 
  0.162346089752119     
 delta_qm =   0.267110E-03 delta_en =   0.123289E+00 tol =   0.100000E-04
 Iteration #         24
  pAp =   7.322107937320682E-004  rzold =   1.258038268033403E-004  alpha = 
  0.171813674259184     
 delta_qm =   0.295997E-03 delta_en =   0.151398E+00 tol =   0.100000E-04
 Iteration #         25
  pAp =   6.433112265770088E-004  rzold =   1.049777173525993E-004  alpha = 
  0.163183406437930     
 delta_qm =   0.230985E-03 delta_en =   0.921961E-01 tol =   0.100000E-04
 Iteration #         26
  pAp =   4.602831494906771E-004  rzold =   7.949624649097168E-005  alpha = 
  0.172711615836768     
 delta_qm =   0.253039E-03 delta_en =   0.110642E+00 tol =   0.100000E-04
 Iteration #         27
  pAp =   4.135360464709932E-004  rzold =   6.779564787151179E-005  alpha = 
  0.163941326155390     
 delta_qm =   0.199661E-03 delta_en =   0.688859E-01 tol =   0.100000E-04
 Iteration #         28
  pAp =   3.018521650228451E-004  rzold =   5.236811023195401E-005  alpha = 
  0.173489264945277     
 delta_qm =   0.216969E-03 delta_en =   0.813463E-01 tol =   0.100000E-04
 Iteration #         29
  pAp =   2.764913793401403E-004  rzold =   4.550230284786214E-005  alpha = 
  0.164570421531606     
 delta_qm =   0.172491E-03 delta_en =   0.514133E-01 tol =   0.100000E-04
 Iteration #         30
  pAp =   2.051930841642893E-004  rzold =   3.572631061464142E-005  alpha = 
  0.174110695592630     
 delta_qm =   0.186428E-03 delta_en =   0.600571E-01 tol =   0.100000E-04
 Iteration #         31
  pAp =   1.908791518507258E-004  rzold =   3.150573134903308E-005  alpha = 
  0.165055906019908     
 delta_qm =   0.148948E-03 delta_en =   0.383368E-01 tol =   0.100000E-04
 Iteration #         32
  pAp =   1.434809863731240E-004  rzold =   2.504835961024955E-005  alpha = 
  0.174576159834245     
 delta_qm =   0.160416E-03 delta_en =   0.444671E-01 tol =   0.100000E-04
 Iteration #         33
  pAp =   1.350244666655701E-004  rzold =   2.233440862822749E-005  alpha = 
  0.165410085888697     
 delta_qm =   0.128577E-03 delta_en =   0.285675E-01 tol =   0.100000E-04
 Iteration #         34
  pAp =   1.024469677580292E-004  rzold =   1.791884206031209E-005  alpha = 
  0.174908466814116     
 delta_qm =   0.138171E-03 delta_en =   0.329898E-01 tol =   0.100000E-04
 Iteration #         35
  pAp =   9.720775288341145E-005  rzold =   1.610327585017333E-005  alpha = 
  0.165658348974358     
 delta_qm =   0.110972E-03 delta_en =   0.212799E-01 tol =   0.100000E-04
 Iteration #         36
  pAp =   7.423786752792866E-005  rzold =   1.300187770998087E-005  alpha = 
  0.175138081722101     
 delta_qm =   0.119096E-03 delta_en =   0.245097E-01 tol =   0.100000E-04
 Iteration #         37
  pAp =   7.084381311044239E-005  rzold =   1.174788280052888E-005  alpha = 
  0.165827928858296     
 delta_qm =   0.957707E-04 delta_en =   0.158493E-01 tol =   0.100000E-04
 Iteration #         38
  pAp =   5.434551123491378E-005  rzold =   9.526422100634647E-006  alpha = 
  0.175293632982046     
 delta_qm =   0.102707E-03 delta_en =   0.182284E-01 tol =   0.100000E-04
 Iteration #         39
  pAp =   5.206131890063647E-005  rzold =   8.639166499740005E-006  alpha = 
  0.165942136737423     
 delta_qm =   0.826533E-04 delta_en =   0.118050E-01 tol =   0.100000E-04
 Iteration #         40
  pAp =   4.005717388300122E-005  rzold =   7.025950481502377E-006  alpha = 
  0.175398057337338     
 delta_qm =   0.886091E-04 delta_en =   0.135675E-01 tol =   0.100000E-04
 Iteration #         41
  pAp =   3.847290865037808E-005  rzold =   6.387223113372742E-006  alpha = 
  0.166018721678065     
 delta_qm =   0.713379E-04 delta_en =   0.879396E-02 tol =   0.100000E-04
 Iteration #         42
  pAp =   2.966149383104276E-005  rzold =   5.204647959199614E-006  alpha = 
  0.175468167208511     
 delta_qm =   0.764699E-04 delta_en =   0.101047E-01 tol =   0.100000E-04
 Iteration #         43
  pAp =   2.853781381924298E-005  rzold =   4.739283472119499E-006  alpha = 
  0.166070305950479     
 delta_qm =   0.615786E-04 delta_en =   0.655245E-02 tol =   0.100000E-04
 Iteration #         44
  pAp =   2.203157453065374E-005  rzold =   3.866886047740997E-006  alpha = 
  0.175515646526343     
 delta_qm =   0.660110E-04 delta_en =   0.752967E-02 tol =   0.100000E-04
 Iteration #         45
  pAp =   2.122179240632786E-005  rzold =   3.525056441167039E-006  alpha = 
  0.166105500123352     
 delta_qm =   0.531617E-04 delta_en =   0.488362E-02 tol =   0.100000E-04
 Iteration #         46
  pAp =   1.639858136295054E-005  rzold =   2.878743950032574E-006  alpha = 
  0.175548353014032     
 delta_qm =   0.569953E-04 delta_en =   0.561335E-02 tol =   0.100000E-04
 Iteration #         47
  pAp =   1.580856128838350E-005  rzold =   2.626276738900473E-006  alpha = 
  0.166130028595981     
 delta_qm =   0.459022E-04 delta_en =   0.364092E-02 tol =   0.100000E-04
 Iteration #         48
  pAp =   1.222345580762137E-005  rzold =   2.146090038117537E-006  alpha = 
  0.175571464559101     
 delta_qm =   0.492208E-04 delta_en =   0.418641E-02 tol =   0.100000E-04
 Iteration #         49
  pAp =   1.179033638008138E-005  rzold =   1.958936524682924E-006  alpha = 
  0.166147636635063     
 delta_qm =   0.396403E-04 delta_en =   0.271530E-02 tol =   0.100000E-04
 Iteration #         50
  pAp =   9.120658972036747E-006  rzold =   1.601481464658677E-006  alpha = 
  0.175588350531327     
 delta_qm =   0.425147E-04 delta_en =   0.312335E-02 tol =   0.100000E-04
 Iteration #         51
  pAp =   8.801110263912094E-006  rzold =   1.462399089880266E-006  alpha = 
  0.166160750863066     
 delta_qm =   0.342381E-04 delta_en =   0.202565E-02 tol =   0.100000E-04
 Iteration #         52
  pAp =   6.810586763332874E-006  rzold =   1.195947120239688E-006  alpha = 
  0.175601187063423     
 delta_qm =   0.367284E-04 delta_en =   0.233103E-02 tol =   0.100000E-04
 Iteration #         53
  pAp =   6.574023336581282E-006  rzold =   1.092411602790986E-006  alpha = 
  0.166170934732197     
 delta_qm =   0.295769E-04 delta_en =   0.151164E-02 tol =   0.100000E-04
 Iteration #         54
  pAp =   5.088525133437196E-006  rzold =   8.936028899818860E-007  alpha = 
  0.175611373934253     
 delta_qm =   0.317348E-04 delta_en =   0.174027E-02 tol =   0.100000E-04
 Iteration #         55
  pAp =   4.912986952333292E-006  rzold =   8.164362062120423E-007  alpha = 
  0.166179192848110     
 delta_qm =   0.255544E-04 delta_en =   0.112843E-02 tol =   0.100000E-04
 Iteration #         56
  pAp =   3.803627377758647E-006  rzold =   6.679923180517307E-007  alpha = 
  0.175619810173245     
 delta_qm =   0.274244E-04 delta_en =   0.129963E-02 tol =   0.100000E-04
 Iteration #         57
  pAp =   3.673159852655891E-006  rzold =   6.104283693741706E-007  alpha = 
  0.166186170452886     
 delta_qm =   0.220824E-04 delta_en =   0.842626E-03 tol =   0.100000E-04
 Iteration #         58
  pAp =   2.844259957705400E-006  rzold =   4.995290527635819E-007  alpha = 
  0.175627073541680     
 delta_qm =   0.237030E-04 delta_en =   0.970844E-03 tol =   0.100000E-04
 Iteration #         59
  pAp =   2.747177731821582E-006  rzold =   4.565597380871506E-007  alpha = 
  0.166192282646532     
 delta_qm =   0.190850E-04 delta_en =   0.629403E-03 tol =   0.100000E-04
 Iteration #         60
  pAp =   2.127568227874263E-006  rzold =   3.736723316298223E-007  alpha = 
  0.175633536322909     
 delta_qm =   0.204895E-04 delta_en =   0.725446E-03 tol =   0.100000E-04
 Iteration #         61
  pAp =   2.055265874584856E-006  rzold =   3.415806615813114E-007  alpha = 
  0.166197797474892     
 delta_qm =   0.164970E-04 delta_en =   0.470277E-03 tol =   0.100000E-04
 Iteration #         62
  pAp =   1.591934763548530E-006  rzold =   2.796065297218070E-007  alpha = 
  0.175639439582653     
 delta_qm =   0.177141E-04 delta_en =   0.542227E-03 tol =   0.100000E-04
 Iteration #         63
  pAp =   1.538051437785632E-006  rzold =   2.556285925519848E-007  alpha = 
  0.166202889104944     
 delta_qm =   0.142620E-04 delta_en =   0.351484E-03 tol =   0.100000E-04
 Iteration #         64
  pAp =   1.191472039878041E-006  rzold =   2.092760356927039E-007  alpha = 
  0.175644940618267     
 delta_qm =   0.153167E-04 delta_en =   0.405391E-03 tol =   0.100000E-04
 Iteration #         65
  pAp =   1.151294026331880E-006  rzold =   1.913538996248656E-007  alpha = 
  0.166207671757436     
 delta_qm =   0.123316E-04 delta_en =   0.262774E-03 tol =   0.100000E-04
 Iteration #         66
  pAp =   8.919725941273699E-007  rzold =   1.566751138963022E-007  alpha = 
  0.175650143208245     
 delta_qm =   0.132455E-04 delta_en =   0.303166E-03 tol =   0.100000E-04
 Iteration #         67
  pAp =   8.620005602067251E-007  rzold =   1.432750278937183E-007  alpha = 
  0.166212221323102     
 delta_qm =   0.106639E-04 delta_en =   0.196507E-03 tol =   0.100000E-04
 Iteration #         68
  pAp =   6.679169419279584E-007  rzold =   1.173230284952571E-007  alpha = 
  0.175655116872169     
 delta_qm =   0.114558E-04 delta_en =   0.226776E-03 tol =   0.100000E-04
 Iteration #         69
  pAp =   6.455497562619009E-007  rzold =   1.073010785937261E-007  alpha = 
  0.166216589120969     
 delta_qm =   0.922306E-05 delta_en =   0.146992E-03 tol =   0.100000E-04
 Iteration #         70
  pAp =   5.002559409010943E-007  rzold =   8.787491311913002E-008  alpha = 
  0.175659909127404     
 delta_qm =   0.990922E-05 delta_en =   0.169677E-03 tol =   0.100000E-04
 Iteration #         71
  pAp =   4.835582896363707E-007  rzold =   8.037745090170319E-008  alpha = 
  0.166220810653760     
 delta_qm =   0.797793E-05 delta_en =   0.109983E-03 tol =   0.100000E-04
 Iteration #         72
  pAp =   3.747635633822602E-007  rzold =   6.583267395098511E-008  alpha = 
  0.175664553290192     
 delta_qm =   0.857244E-05 delta_en =   0.126985E-03 tol =   0.100000E-04
 Iteration #         73
  pAp =   3.622944657902929E-007  rzold =   6.022236539781053E-008  alpha = 
  0.166224911182246     
 delta_qm =   0.690179E-05 delta_en =   0.823129E-04 tol =   0.100000E-04
 Iteration #         74
  pAp =   2.808114920002125E-007  rzold =   4.932989461234167E-008  alpha = 
  0.175669073444844     
 delta_qm =   0.741688E-05 delta_en =   0.950574E-04 tol =   0.100000E-04
 Iteration #         75
  pAp =   2.714974043532781E-007  rzold =   4.513071739757606E-008  alpha = 
  0.166228909278451     
 delta_qm =   0.597157E-05 delta_en =   0.616198E-04 tol =   0.100000E-04
 Iteration #         76
  pAp =   2.104565147526715E-007  rzold =   3.697162993770229E-008  alpha = 
  0.175673487614063     
 delta_qm =   0.641783E-05 delta_en =   0.711738E-04 tol =   0.100000E-04
 Iteration #         77
  pAp =   2.034972460407969E-007  rzold =   3.382792088744502E-008  alpha = 
  0.166232819095071     
 delta_qm =   0.516736E-05 delta_en =   0.461404E-04 tol =   0.100000E-04
 Iteration #         78
  pAp =   1.577603158398487E-007  rzold =   2.771498675798264E-008  alpha = 
  0.175677809786573     
 delta_qm =   0.555399E-05 delta_en =   0.533032E-04 tol =   0.100000E-04
 Iteration #         79
  pAp =   1.525591733254648E-007  rzold =   2.536092617795540E-008  alpha = 
  0.166236651819365     
 delta_qm =   0.447200E-05 delta_en =   0.345579E-04 tol =   0.100000E-04
 Iteration #         80
  pAp =   1.182821593616376E-007  rzold =   2.078005237923989E-008  alpha = 
  0.175682051218786     
 delta_qm =   0.480695E-05 delta_en =   0.399285E-04 tol =   0.100000E-04
 Iteration #         81
  pAp =   1.143940299294730E-007  rzold =   1.901691119303199E-008  alpha = 
  0.166240416608773     
 delta_qm =   0.387067E-05 delta_en =   0.258890E-04 tol =   0.100000E-04
 Iteration #         82
  pAp =   8.870032562458604E-008  rzold =   1.558342503483015E-008  alpha = 
  0.175686221274826     
 delta_qm =   0.416085E-05 delta_en =   0.299163E-04 tol =   0.100000E-04
 Iteration #         83
  pAp =   8.579305670005879E-008  rzold =   1.426259131588142E-008  alpha = 
  0.166244121196717     
 delta_qm =   0.335059E-05 delta_en =   0.193993E-04 tol =   0.100000E-04
 Iteration #         84
  pAp =   6.652950127716028E-008  rzold =   1.168858989924000E-008  alpha = 
  0.175690327972633     
 delta_qm =   0.360198E-05 delta_en =   0.224195E-04 tol =   0.100000E-04
 Iteration #         85
  pAp =   6.435515593068579E-008  rzold =   1.069890130874360E-008  alpha = 
  0.166247772288314     
 delta_qm =   0.290072E-05 delta_en =   0.145397E-04 tol =   0.100000E-04
 Iteration #         86
[...]
 Iteration #          7
  pAp =   0.191049852332211       rzold =   3.020877712852150E-002  alpha = 
  0.158119866410535     
 delta_qm =   0.116246E-02 delta_en =   0.233505E+01 tol =   0.100000E-04
 Iteration #          8
  pAp =   0.125191899124048       rzold =   2.049857384469963E-002  alpha = 
  0.163737222520990     
 delta_qm =   0.159223E-02 delta_en =   0.438082E+01 tol =   0.100000E-04
 Iteration #          9
  pAp =   9.484973914515218E-002  rzold =   1.499091502392568E-002  alpha = 
  0.158049090688426     
 delta_qm =   0.911821E-03 delta_en =   0.143669E+01 tol =   0.100000E-04
 Iteration #         10
  pAp =   6.257204586632589E-002  rzold =   1.024863804438769E-002  alpha = 
  0.163789403119119     
 delta_qm =   0.122384E-02 delta_en =   0.258817E+01 tol =   0.100000E-04
 Iteration #         11
  pAp =   4.769204237919449E-002  rzold =   7.543996384862497E-003  alpha = 
  0.158181449326094     
 delta_qm =   0.741440E-03 delta_en =   0.949940E+00 tol =   0.100000E-04
 Iteration #         12
  pAp =   3.165390189975127E-002  rzold =   5.191248876557670E-003  alpha = 
  0.164000283219380     
 delta_qm =   0.965177E-03 delta_en =   0.160975E+01 tol =   0.100000E-04
 Iteration #         13
  pAp =   2.429067177284331E-002  rzold =   3.848463392352890E-003  alpha = 
  0.158433798305053     
 delta_qm =   0.618878E-03 delta_en =   0.661840E+00 tol =   0.100000E-04
 Iteration #         14
  pAp =   1.624280305681661E-002  rzold =   2.669175266969957E-003  alpha = 
  0.164329719299883     
 delta_qm =   0.778273E-03 delta_en =   0.104666E+01 tol =   0.100000E-04
 Iteration #         15
  pAp =   1.257502432472642E-002  rzold =   1.996885244502020E-003  alpha = 
  0.158797724198077     
 delta_qm =   0.525951E-03 delta_en =   0.478007E+00 tol =   0.100000E-04
 Iteration #         16
  pAp =   8.492150599740357E-003  rzold =   1.399388373235874E-003  alpha = 
  0.164786099445606     
 delta_qm =   0.639204E-03 delta_en =   0.706030E+00 tol =   0.100000E-04
 Iteration #         17
  pAp =   6.652345884204628E-003  rzold =   1.059640641887064E-003  alpha = 
  0.159288266174355     
 delta_qm =   0.452125E-03 delta_en =   0.353233E+00 tol =   0.100000E-04
 Iteration #         18
  pAp =   4.551466068991603E-003  rzold =   7.527508436459999E-004  alpha = 
  0.165386456195811     
 delta_qm =   0.532732E-03 delta_en =   0.490411E+00 tol =   0.100000E-04
 Iteration #         19
  pAp =   3.620481748515742E-003  rzold =   5.789755073733528E-004  alpha = 
  0.159916703795209     
 delta_qm =   0.391245E-03 delta_en =   0.264509E+00 tol =   0.100000E-04
 Iteration #         20
  pAp =   2.518655154571076E-003  rzold =   4.184323177201634E-004  alpha = 
  0.166133230649204     
 delta_qm =   0.449038E-03 delta_en =   0.348426E+00 tol =   0.100000E-04
 Iteration #         21
  pAp =   2.041941249597444E-003  rzold =   3.280832021492478E-004  alpha = 
  0.160672204557270     
 delta_qm =   0.339691E-03 delta_en =   0.199394E+00 tol =   0.100000E-04
 Iteration #         22
  pAp =   1.449174324299701E-003  rzold =   2.420090718062635E-004  alpha = 
  0.166997902011003     
 delta_qm =   0.381712E-03 delta_en =   0.251776E+00 tol =   0.100000E-04
 Iteration #         23
  pAp =   1.201015790901912E-003  rzold =   1.939774275581584E-004  alpha = 
  0.161511138344392     
 delta_qm =   0.295303E-03 delta_en =   0.150689E+00 tol =   0.100000E-04
 Iteration #         24
  pAp =   8.714741039895832E-004  rzold =   1.463350328193389E-004  alpha = 
  0.167916673770823     
 delta_qm =   0.326494E-03 delta_en =   0.184201E+00 tol =   0.100000E-04
 Iteration #         25
  pAp =   7.393117707607071E-004  rzold =   1.200360107116122E-004  alpha = 
  0.162361828201521     
 delta_qm =   0.256744E-03 delta_en =   0.113906E+00 tol =   0.100000E-04
 Iteration #         26
  pAp =   5.486481393009714E-004  rzold =   9.261489829716662E-005  alpha = 
  0.168805636368633     
 delta_qm =   0.280499E-03 delta_en =   0.135959E+00 tol =   0.100000E-04
 Iteration #         27
  pAp =   4.760777746266198E-004  rzold =   7.767058280685560E-005  alpha = 
  0.163146836391956     
 delta_qm =   0.223128E-03 delta_en =   0.860303E-01 tol =   0.100000E-04
 Iteration #         28
  pAp =   3.607020823182700E-004  rzold =   6.117136382567914E-005  alpha = 
  0.169589716345757     
 delta_qm =   0.241732E-03 delta_en =   0.100975E+00 tol =   0.100000E-04
 Iteration #         29
  pAp =   3.192874055320016E-004  rzold =   5.230239624902557E-005  alpha = 
  0.163809769326411     
 delta_qm =   0.193808E-03 delta_en =   0.649060E-01 tol =   0.100000E-04
 Iteration #         30
  pAp =   2.461809051625942E-004  rzold =   4.190643973898611E-005  alpha = 
  0.170226198946292     
 delta_qm =   0.208771E-03 delta_en =   0.753153E-01 tol =   0.100000E-04
 Iteration #         31
  pAp =   2.214650301664051E-004  rzold =   3.639306132693727E-005  alpha = 
  0.164328703721721     
 delta_qm =   0.168260E-03 delta_en =   0.489223E-01 tol =   0.100000E-04
 Iteration #         32
  pAp =   1.731116145794446E-004  rzold =   2.955169754265402E-005  alpha = 
  0.170708924496179     
 delta_qm =   0.180573E-03 delta_en =   0.563440E-01 tol =   0.100000E-04
 Iteration #         33
  pAp =   1.576510214591585E-004  rzold =   2.596692962865605E-005  alpha = 
  0.164711458183499     
 delta_qm =   0.146032E-03 delta_en =   0.368504E-01 tol =   0.100000E-04
 Iteration #         34
  pAp =   1.244810999080656E-004  rzold =   2.129333733764756E-005  alpha = 
  0.171056789772693     
 delta_qm =   0.156346E-03 delta_en =   0.422395E-01 tol =   0.100000E-04
 Iteration #         35
  pAp =   1.143682624360320E-004  rzold =   1.886869420400066E-005  alpha = 
  0.164981908460437     
 delta_qm =   0.126718E-03 delta_en =   0.277473E-01 tol =   0.100000E-04
 Iteration #         36
  pAp =   9.095138015314853E-005  rzold =   1.557985960452077E-005  alpha = 
  0.171298770599046     
 delta_qm =   0.135471E-03 delta_en =   0.317130E-01 tol =   0.100000E-04
 Iteration #         37
  pAp =   8.407656226326081E-005  rzold =   1.388673162317592E-005  alpha = 
  0.165167690606732     
 delta_qm =   0.109952E-03 delta_en =   0.208904E-01 tol =   0.100000E-04
 Iteration #         38
  pAp =   6.719001732929508E-005  rzold =   1.152063323637006E-005  alpha = 
  0.171463465769148     
 delta_qm =   0.117448E-03 delta_en =   0.238360E-01 tol =   0.100000E-04
 Iteration #         39
  pAp =   6.237085965628859E-005  rzold =   1.030948510771717E-005  alpha = 
  0.165293298257077     
 delta_qm =   0.954062E-04 delta_en =   0.157289E-01 tol =   0.100000E-04
 Iteration #         40
  pAp =   5.000893101215919E-005  rzold =   8.580251363991532E-006  alpha = 
  0.171574380622240     
 delta_qm =   0.101865E-03 delta_en =   0.179306E-01 tol =   0.100000E-04
 Iteration #         41
  pAp =   4.655250088390771E-005  rzold =   7.698747766423363E-006  alpha = 
  0.165377748139084     
 delta_qm =   0.827926E-04 delta_en =   0.118448E-01 tol =   0.100000E-04
 Iteration #         42
  pAp =   3.740873875103813E-005  rzold =   6.421172746015465E-006  alpha = 
  0.171649003959998     
 delta_qm =   0.883798E-04 delta_en =   0.134974E-01 tol =   0.100000E-04
 Iteration #         43
  pAp =   3.488888020972050E-005  rzold =   5.771832271697777E-006  alpha = 
  0.165434724101282     
 delta_qm =   0.718558E-04 delta_en =   0.892212E-02 tol =   0.100000E-04
 Iteration #         44
  pAp =   2.807801602213750E-005  rzold =   4.820984176581222E-006  alpha = 
  0.171699602022458     
 delta_qm =   0.767013E-04 delta_en =   0.101660E-01 tol =   0.100000E-04
 Iteration #         45
  pAp =   2.622009218867391E-005  rzold =   4.338733822115115E-006  alpha = 
  0.165473629569818     
 delta_qm =   0.623734E-04 delta_en =   0.672269E-02 tol =   0.100000E-04
 Iteration #         46
  pAp =   2.112301502930666E-005  rzold =   3.627549832511203E-006  alpha = 
  0.171734471971839     
 delta_qm =   0.665820E-04 delta_en =   0.766051E-02 tol =   0.100000E-04
 Iteration #         47
  pAp =   1.974259911289728E-005  rzold =   3.267414864007084E-006  alpha = 
  0.165500745130998     
 delta_qm =   0.541514E-04 delta_en =   0.506713E-02 tol =   0.100000E-04
 Iteration #         48
  pAp =   1.591597726802157E-005  rzold =   2.733713953938518E-006  alpha = 
  0.171759101430178     
 delta_qm =   0.578103E-04 delta_en =   0.577503E-02 tol =   0.100000E-04
 Iteration #         49
  pAp =   1.488502714147064E-005  rzold =   2.463772552960237E-006  alpha = 
  0.165520192173248     
 delta_qm =   0.470213E-04 delta_en =   0.382061E-02 tol =   0.100000E-04
 Iteration #         50
  pAp =   1.200599434679661E-005  rzold =   2.062354528772286E-006  alpha = 
  0.171777069787023     
 delta_qm =   0.502042E-04 delta_en =   0.435535E-02 tol =   0.100000E-04
 Iteration #         51
  pAp =   1.123334467419122E-005  rzold =   1.859507735806219E-006  alpha = 
  0.165534646157388     
 delta_qm =   0.408372E-04 delta_en =   0.288174E-02 tol =   0.100000E-04
 Iteration #         52
  pAp =   9.064002270690822E-006  rzold =   1.557111225954387E-006  alpha = 
  0.171790692395282     
 delta_qm =   0.436067E-04 delta_en =   0.328588E-02 tol =   0.100000E-04
 Iteration #         53
  pAp =   8.483553921042010E-006  rzold =   1.404417001103046E-006  alpha = 
  0.165545833052305     
 delta_qm =   0.354725E-04 delta_en =   0.217434E-02 tol =   0.100000E-04
 Iteration #         54
  pAp =   6.847213009613421E-006  rzold =   1.176361192908097E-006  alpha = 
  0.171801460135167     
 delta_qm =   0.378829E-04 delta_en =   0.247987E-02 tol =   0.100000E-04
 Iteration #         55
  pAp =   6.410430391840545E-006  rzold =   1.061277924413465E-006  alpha = 
  0.165554862862921     
 delta_qm =   0.308179E-04 delta_en =   0.164116E-02 tol =   0.100000E-04
 Iteration #         56
  pAp =   5.175158880844955E-006  rzold =   8.891457616487159E-007  alpha = 
  0.171810331261471     
 delta_qm =   0.329157E-04 delta_en =   0.187219E-02 tol =   0.100000E-04
 Iteration #         57
  pAp =   4.846093441374547E-006  rzold =   8.023310982378469E-007  alpha = 
  0.165562449000214     
 delta_qm =   0.267786E-04 delta_en =   0.123913E-02 tol =   0.100000E-04
 Iteration #         58
  pAp =   3.913022354239704E-006  rzold =   6.723273695224763E-007  alpha = 
  0.171817921968685     
 delta_qm =   0.286044E-04 delta_en =   0.141387E-02 tol =   0.100000E-04
 Iteration #         59
  pAp =   3.664891898397266E-006  rzold =   6.067926724855446E-007  alpha = 
  0.165569050686299     
 delta_qm =   0.232725E-04 delta_en =   0.935898E-03 tol =   0.100000E-04
 Iteration #         60
  pAp =   2.959746925791070E-006  rzold =   5.085574190438678E-007  alpha = 
  0.171824629535832     
 delta_qm =   0.248615E-04 delta_en =   0.106806E-02 tol =   0.100000E-04
 Iteration #         61
  pAp =   2.772518991104487E-006  rzold =   4.590597339154894E-007  alpha = 
  0.165574964639869     
 delta_qm =   0.202286E-04 delta_en =   0.707092E-03 tol =   0.100000E-04
 Iteration #         62
  pAp =   2.239406912346445E-006  rzold =   3.847988828276282E-007  alpha = 
  0.171830711384398     
 delta_qm =   0.216115E-04 delta_en =   0.807071E-03 tol =   0.100000E-04
 Iteration #         63
  pAp =   2.098056960138643E-006  rzold =   3.473970766958751E-007  alpha = 
  0.165580383800885     
 delta_qm =   0.175856E-04 delta_en =   0.534389E-03 tol =   0.100000E-04
 Iteration #         64
  pAp =   1.694865545909970E-006  rzold =   2.912394847844980E-007  alpha = 
  0.171836335623976     
 delta_qm =   0.187889E-04 delta_en =   0.610026E-03 tol =   0.100000E-04
 Iteration #         65
  pAp =   1.588103721084374E-006  rzold =   2.629668451980910E-007  alpha = 
  0.165585434821936     
 delta_qm =   0.152902E-04 delta_en =   0.403988E-03 tol =   0.100000E-04
 Iteration #         66
  pAp =   1.283075443499721E-006  rzold =   2.204857541793649E-007  alpha = 
  0.171841613286563     
 delta_qm =   0.163373E-04 delta_en =   0.461213E-03 tol =   0.100000E-04
 Iteration #         67
  pAp =   1.202406783026244E-006  rzold =   1.991067820359874E-007  alpha = 
  0.165590201957170     
 delta_qm =   0.132963E-04 delta_en =   0.305495E-03 tol =   0.100000E-04
 Iteration #         68
  pAp =   9.715763215722801E-007  rzold =   1.669621058202956E-007  alpha = 
  0.171846618853478     
 delta_qm =   0.142073E-04 delta_en =   0.348794E-03 tol =   0.100000E-04
 Iteration #         69
  pAp =   9.106024907687352E-007  rzold =   1.507909847679391E-007  alpha = 
  0.165594742268540     
 delta_qm =   0.115640E-04 delta_en =   0.231080E-03 tol =   0.100000E-04
 Iteration #         70
  pAp =   7.358748883469974E-007  rzold =   1.264611322294898E-007  alpha = 
  0.171851403318791     
 delta_qm =   0.123567E-04 delta_en =   0.263844E-03 tol =   0.100000E-04
 Iteration #         71
  pAp =   6.897730375490620E-007  rzold =   1.142257909823042E-007  alpha = 
  0.165599095302677     
 delta_qm =   0.100588E-04 delta_en =   0.174839E-03 tol =   0.100000E-04
 Iteration #         72
  pAp =   5.574795310086838E-007  rzold =   9.580620367675520E-008  alpha = 
  0.171856002503638     
 delta_qm =   0.107484E-04 delta_en =   0.199633E-03 tol =   0.100000E-04
 Iteration #         73
  pAp =   5.226121455414679E-007  rzold =   8.654629030451787E-008  alpha = 
  0.165603289251628     
 delta_qm =   0.875068E-05 delta_en =   0.132321E-03 tol =   0.100000E-04
 Iteration #         74
  pAp =   4.224234406660619E-007  rzold =   7.259787937277917E-008  alpha = 
  0.171860442352132     
 delta_qm =   0.935057E-05 delta_en =   0.151085E-03 tol =   0.100000E-04
 Iteration #         75
  pAp =   3.960456306614516E-007  rzold =   6.558806534506394E-008  alpha = 
  0.165607344879737     
 delta_qm =   0.761364E-05 delta_en =   0.100168E-03 tol =   0.100000E-04
 Iteration #         76
  pAp =   3.201533179274671E-007  rzold =   5.502306748531599E-008  alpha = 
  0.171864742310064     
 delta_qm =   0.813547E-05 delta_en =   0.114369E-03 tol =   0.100000E-04
 Iteration #         77
  pAp =   3.001928756203334E-007  rzold =   4.971532578752502E-008  alpha = 
  0.165611278031801     
 delta_qm =   0.662517E-05 delta_en =   0.758468E-04 tol =   0.100000E-04
 Iteration #         78
  pAp =   2.426923457005429E-007  rzold =   4.171127073770802E-008  alpha = 
  0.171868917486073     
 delta_qm =   0.707907E-05 delta_en =   0.865957E-04 tol =   0.100000E-04
 Iteration #         79
  pAp =   2.275842934613267E-007  rzold =   3.769139580229040E-008  alpha = 
  0.165615101240259     
 delta_qm =   0.576572E-05 delta_en =   0.574448E-04 tol =   0.100000E-04
 Iteration #         80
  pAp =   1.840092647083669E-007  rzold =   3.162622068029552E-008  alpha = 
  0.171872980039453     
 delta_qm =   0.616052E-05 delta_en =   0.655811E-04 tol =   0.100000E-04
 Iteration #         81
  pAp =   1.725712861631810E-007  rzold =   2.858105360165530E-008  alpha = 
  0.165618824759928     
 delta_qm =   0.501835E-05 delta_en =   0.435177E-04 tol =   0.100000E-04
 Iteration #         82
  pAp =   1.395425152473485E-007  rzold =   2.398414053127548E-008  alpha = 
  0.171876940076377     
 delta_qm =   0.536174E-05 delta_en =   0.496769E-04 tol =   0.100000E-04
 Iteration #         83
  pAp =   1.308811028282205E-007  rzold =   2.167684985650778E-008  alpha = 
  0.165622457238600     
 delta_qm =   0.436836E-05 delta_en =   0.329747E-04 tol =   0.100000E-04
 Iteration #         84
  pAp =   1.058411529221935E-007  rzold =   1.819206269692338E-008  alpha = 
  0.171880806233250     
 delta_qm =   0.466701E-05 delta_en =   0.376375E-04 tol =   0.100000E-04
 Iteration #         85
  pAp =   9.928085757110393E-008  rzold =   1.644349192721855E-008  alpha = 
  0.165626006155737     
 delta_qm =   0.380298E-05 delta_en =   0.249915E-04 tol =   0.100000E-04
 Iteration #         86
  pAp =   8.029376485787866E-008  rzold =   1.380126053583424E-008  alpha = 
  0.171884586060483     
 delta_qm =   0.406271E-05 delta_en =   0.285217E-04 tol =   0.100000E-04
 Iteration #         87
  pAp =   7.532383528567904E-008  rzold =   1.247584752783849E-008  alpha = 
  0.165629478113025     
 delta_qm =   0.331114E-05 delta_en =   0.189452E-04 tol =   0.100000E-04
 Iteration #         88
  pAp =   6.092374143010506E-008  rzold =   1.047207750810406E-008  alpha = 
  0.171888286278645     
 delta_qm =   0.353701E-05 delta_en =   0.216180E-04 tol =   0.100000E-04
 Iteration #         89
  pAp =   5.715786156792791E-008  rzold =   9.467221170691708E-009  alpha = 
  0.165632879029958     
 delta_qm =   0.288321E-05 delta_en =   0.143647E-04 tol =   0.100000E-04
 Iteration #         90
  pAp =   4.623460711586161E-008  rzold =   7.947355061757123E-009  alpha = 
  0.171891912952595     
 delta_qm =   0.307963E-05 delta_en =   0.163886E-04 tol =   0.100000E-04
 Iteration #         91
  pAp =   4.338050488676631E-008  rzold =   7.185382602923336E-009  alpha = 
  0.165636214278256     
 delta_qm =   0.251085E-05 delta_en =   0.108939E-04 tol =   0.100000E-04
 Iteration #         92
  pAp =   3.509313259784390E-008  rzold =   6.032350578267773E-009  alpha = 
  0.171895471612540     
 delta_qm =   0.268166E-05 delta_en =   0.124266E-04 tol =   0.100000E-04
 Iteration #         93
  pAp =   3.292963168954420E-008  rzold =   5.454447358656663E-009  alpha = 
  0.165639488776565     
 delta_qm =   0.218680E-05 delta_en =   0.826344E-05 tol =   0.100000E-04
 Charges are converged, EXIT

%%%% DENSITY %%%%%%%%%%%%%%%%%%%%%%%%%%%%%%%%%%%%%%%%%%%%%%%%%%%%%%%%%%%%%%%%%%%
 density label              = velectrostatic                                                                  
 integral of density        =    -0.1373650165E-11

%%%% CHARGES %%%%%%%%%%%%%%%%%%%%%%%%%%%%%%%%%%%%%%%%%%%%%%%%%%%%%%%%%%%%%%%%%%%
 total number of charges    =         34
 total charge               =     -1.0000000

%%%% DENSITY %%%%%%%%%%%%%%%%%%%%%%%%%%%%%%%%%%%%%%%%%%%%%%%%%%%%%%%%%%%%%%%%%%%
 density label              = vsoftcavity                                                                     
 integral of density        =      34.87700306    

%%%% ELECTRONS %%%%%%%%%%%%%%%%%%%%%%%%%%%%%%%%%%%%%%%%%%%%%%%%%%%%%%%%%%%%%%%%%
 number of electrons        =         24
 total electronic charge    =     24.0000000

%%%% BOUNDARY %%%%%%%%%%%%%%%%%%%%%%%%%%%%%%%%%%%%%%%%%%%%%%%%%%%%%%%%%%%%%%%%%%
 boundary label             = solvent              
 boundary mode              = electronic           
 boundary is built as a function of a smooth density
 function type              =  2 
 using the modified SCCS function with parameters 
 rhomax                     =      0.0050000 
 rhomin                     =      0.0001000 
 volume of the QM region    =    716.3105982 
 surface of the QM region   =    412.9496736 

%%%% DIELECTRIC %%%%%%%%%%%%%%%%%%%%%%%%%%%%%%%%%%%%%%%%%%%%%%%%%%%%%%%%%%%%%%%%%
 dielectric build on homogeneous background
 environment bulk permitt.  =    100.0000000 
 dielectric flags
 need gradient              =  F 
 need factor depend. sqrt   =  T 
 total dielectric charge    =      0.9827889

%%%% DENSITY %%%%%%%%%%%%%%%%%%%%%%%%%%%%%%%%%%%%%%%%%%%%%%%%%%%%%%%%%%%%%%%%%%%
 density label              = vreference                                                                      
 integral of density        =    -0.9967335599E-12

%%%% DENSITY %%%%%%%%%%%%%%%%%%%%%%%%%%%%%%%%%%%%%%%%%%%%%%%%%%%%%%%%%%%%%%%%%%%
 density label              = velectrostatic                                                                  
 integral of density        =    -0.1373650165E-11

%%%% CHARGES %%%%%%%%%%%%%%%%%%%%%%%%%%%%%%%%%%%%%%%%%%%%%%%%%%%%%%%%%%%%%%%%%%%
 total number of charges    =         34
 total charge               =     -1.0000000

%%%% DENSITY %%%%%%%%%%%%%%%%%%%%%%%%%%%%%%%%%%%%%%%%%%%%%%%%%%%%%%%%%%%%%%%%%%%
 density label              = vsoftcavity                                                                     
 integral of density        =      34.87700306    
