
     Program PWSCF v.6.3MaX starts on 21Apr2019 at 23:14:50 

     This program is part of the open-source Quantum ESPRESSO suite
     for quantum simulation of materials; please cite
         "P. Giannozzi et al., J. Phys.:Condens. Matter 21 395502 (2009);
         "P. Giannozzi et al., J. Phys.:Condens. Matter 29 465901 (2017);
          URL http://www.quantum-espresso.org", 
     in publications or presentations arising from this work. More details at
     http://www.quantum-espresso.org/quote

     Parallel version (MPI), running on     1 processors

     MPI processes distributed on     1 nodes
     Reading input from charged.in

     Current dimensions of program PWSCF are:
     Max number of different atomic species (ntypx) = 10
     Max number of k-points (npk) =  40000
     Max angular momentum in pseudopotentials (lmaxx) =  3
               file C.pbe-rrkjus.UPF: wavefunction(s)  2S 2P renormalized
               file H.pbe-rrkjus.UPF: wavefunction(s)  1S renormalized
               file N.pbe-rrkjus.UPF: wavefunction(s)  2S renormalized
               file O.pbe-rrkjus.UPF: wavefunction(s)  2S renormalized

     gamma-point specific algorithms are used

     Subspace diagonalization in iterative solution of the eigenvalue problem:
     a serial algorithm will be used

 
     G-vector sticks info
     --------------------
     sticks:   dense  smooth     PW     G-vecs:    dense   smooth      PW
     Sum        9549    3809    949               701475   177509   22119
 


     bravais-lattice index     =            1
     lattice parameter (alat)  =      20.0000  a.u.
     unit-cell volume          =    8000.0000 (a.u.)^3
     number of atoms/cell      =           10
     number of atomic types    =            4
     number of electrons       =        24.00
     number of Kohn-Sham states=           12
     kinetic-energy cutoff     =      30.0000  Ry
     charge density cutoff     =     300.0000  Ry
     convergence threshold     =      5.0E-03
     mixing beta               =       0.7000
     number of iterations used =            8  plain     mixing
     Exchange-correlation      = SLA PW PBE PBE ( 1  4  3  4 0 0)
 

     Environ Module
     ==============

     Plese cite
         O. Andreussi, I. Dabo and N. Marzari, J. Chem. Phys. 136, 064102 (2012)         
     in publications or presentations arising from this work.

     compensation onset threshold      =               0.1000E+03 
     static permittivity               =                   100.00 
     epsilon calculation mode          =               electronic 

     Electrostatic Setup
     -------------------
     electrostatic problem to solve    = generalized              
     numerical solver adopted          = iterative                
     type of auxiliary density adopted = full                     
     type of core tool for poisson     = fft                      
     type of core tool for s(r) deriv  = analytic                 



     celldm(1)=  20.000000  celldm(2)=   0.000000  celldm(3)=   0.000000
     celldm(4)=   0.000000  celldm(5)=   0.000000  celldm(6)=   0.000000

     crystal axes: (cart. coord. in units of alat)
               a(1) = (   1.000000   0.000000   0.000000 )  
               a(2) = (   0.000000   1.000000   0.000000 )  
               a(3) = (   0.000000   0.000000   1.000000 )  

     reciprocal axes: (cart. coord. in units 2 pi/alat)
               b(1) = (  1.000000  0.000000  0.000000 )  
               b(2) = (  0.000000  1.000000  0.000000 )  
               b(3) = (  0.000000  0.000000  1.000000 )  


     PseudoPot. # 1 for C  read from file:
     /home/fnattino/Programs/quantumespresso/q-e-qe-6.3-develop/Environ/tests/../..//pseudo/C.pbe-rrkjus.UPF
     MD5 check sum: c9ac5a99bc85b198593446162950cd17
     Pseudo is Ultrasoft, Zval =  4.0
     Generated by new atomic code, or converted to UPF format
     Using radial grid of  627 points,  4 beta functions with: 
                l(1) =   0
                l(2) =   0
                l(3) =   1
                l(4) =   1
     Q(r) pseudized with 0 coefficients 


     PseudoPot. # 2 for H  read from file:
     /home/fnattino/Programs/quantumespresso/q-e-qe-6.3-develop/Environ/tests/../..//pseudo/H.pbe-rrkjus.UPF
     MD5 check sum: 2d52a7f45632fd764c17cc6affed14c8
     Pseudo is Ultrasoft, Zval =  1.0
     Generated by new atomic code, or converted to UPF format
     Using radial grid of 1061 points,  2 beta functions with: 
                l(1) =   0
                l(2) =   0
     Q(r) pseudized with 0 coefficients 


     PseudoPot. # 3 for N  read from file:
     /home/fnattino/Programs/quantumespresso/q-e-qe-6.3-develop/Environ/tests/../..//pseudo/N.pbe-rrkjus.UPF
     MD5 check sum: 28c76d763763edb36c62a6ca2be9aebd
     Pseudo is Ultrasoft, Zval =  5.0
     Generated by new atomic code, or converted to UPF format
     Using radial grid of 1257 points,  4 beta functions with: 
                l(1) =   0
                l(2) =   0
                l(3) =   1
                l(4) =   1
     Q(r) pseudized with 0 coefficients 


     PseudoPot. # 4 for O  read from file:
     /home/fnattino/Programs/quantumespresso/q-e-qe-6.3-develop/Environ/tests/../..//pseudo/O.pbe-rrkjus.UPF
     MD5 check sum: fadcf19ee70a498d3030e2e79cf929a4
     Pseudo is Ultrasoft, Zval =  6.0
     Generated by new atomic code, or converted to UPF format
     Using radial grid of 1269 points,  4 beta functions with: 
                l(1) =   0
                l(2) =   0
                l(3) =   1
                l(4) =   1
     Q(r) pseudized with 0 coefficients 


     atomic species   valence    mass     pseudopotential
        C              4.00    12.00000     C ( 1.00)
        H              1.00     1.00000     H ( 1.00)
        N              5.00    14.00000     N ( 1.00)
        O              6.00    16.00000     O ( 1.00)

     No symmetry found



   Cartesian axes

     site n.     atom                  positions (alat units)
         1           C   tau(   1) = (   0.0000000   0.0000000   0.0000000  )
         2           C   tau(   2) = (   0.0000000   0.0000000   0.1455089  )
         3           N   tau(   3) = (   0.1170969   0.0000000  -0.0545024  )
         4           H   tau(   4) = (   0.0476617  -0.0825466   0.1792090  )
         5           H   tau(   5) = (  -0.0953183  -0.0000030   0.1792090  )
         6           H   tau(   6) = (   0.0476566   0.0825496   0.1792090  )
         7           O   tau(   7) = (  -0.0984002  -0.0000019  -0.0641310  )
         8           H   tau(   8) = (   0.1263131  -0.0000015  -0.1475548  )
         9           H   tau(   9) = (   0.1944645   0.0000134  -0.0025716  )
        10           H   tau(  10) = (  -0.0770366  -0.0000045  -0.1522861  )

     number of k points=     1
                       cart. coord. in units 2pi/alat
        k(    1) = (   0.0000000   0.0000000   0.0000000), wk =   2.0000000

     Dense  grid:   350738 G-vectors     FFT dimensions: ( 120, 120, 120)

     Smooth grid:    88755 G-vectors     FFT dimensions: (  72,  72,  72)

     Estimated max dynamical RAM per process >     691.80 MB

     Initial potential from superposition of free atoms
     Check: negative starting charge=   -0.000452

     starting charge   24.42266, renormalised to   24.00000

     negative rho (up, down):  4.438E-04 0.000E+00
     Starting wfcs are   22 randomized atomic wfcs

     total cpu time spent up to now is        4.9 secs

     Self-consistent Calculation

     iteration #  1     ecut=    30.00 Ry     beta= 0.70
     Davidson diagonalization with overlap
     ethr =  1.00E-02,  avg # of iterations =  2.0

     negative rho (up, down):  1.277E-04 0.000E+00

     add environment contribution to local potential
     polarization accuracy = 6.6E-06, # of iterations =  16

     total cpu time spent up to now is       10.5 secs

     total energy              =     -80.23905785 Ry
     Harris-Foulkes estimate   =     -83.01882218 Ry
     estimated scf accuracy    <       3.73443027 Ry
     electrostatic embedding   =       0.00000000 Ry
     correction to one-el term =       0.00000000 Ry

     iteration #  2     ecut=    30.00 Ry     beta= 0.70
     Davidson diagonalization with overlap
     ethr =  1.00E-02,  avg # of iterations =  4.0

     negative rho (up, down):  6.917E-04 0.000E+00

     add environment contribution to local potential
     polarization accuracy = 5.7E-06, # of iterations =  16

     total cpu time spent up to now is       16.0 secs

     total energy              =     -80.96006089 Ry
     Harris-Foulkes estimate   =     -76.60190587 Ry
     estimated scf accuracy    <       1.54109946 Ry
     electrostatic embedding   =      -0.18395270 Ry
     correction to one-el term =      -4.99956240 Ry

     iteration #  3     ecut=    30.00 Ry     beta= 0.70
     Davidson diagonalization with overlap
     ethr =  6.42E-03,  avg # of iterations =  3.0

     negative rho (up, down):  3.247E-04 0.000E+00

     add environment contribution to local potential
     polarization accuracy = 5.8E-06, # of iterations =  16

     total cpu time spent up to now is       21.4 secs

     total energy              =     -81.31873521 Ry
     Harris-Foulkes estimate   =     -77.02312048 Ry
     estimated scf accuracy    <       0.24329037 Ry
     electrostatic embedding   =      -0.15144950 Ry
     correction to one-el term =      -4.27381599 Ry

     iteration #  4     ecut=    30.00 Ry     beta= 0.70
     Davidson diagonalization with overlap
     ethr =  1.01E-03,  avg # of iterations =  4.0

     negative rho (up, down):  8.627E-05 0.000E+00

     add environment contribution to local potential
     polarization accuracy = 6.5E-06, # of iterations =  17

     total cpu time spent up to now is       26.9 secs

     total energy              =     -81.37795896 Ry
     Harris-Foulkes estimate   =     -77.22355881 Ry
     estimated scf accuracy    <       0.02088991 Ry
     electrostatic embedding   =      -0.12707599 Ry
     correction to one-el term =      -4.03793864 Ry

     iteration #  5     ecut=    30.00 Ry     beta= 0.70
     Davidson diagonalization with overlap
     ethr =  8.70E-05,  avg # of iterations =  4.0

     negative rho (up, down):  2.757E-04 0.000E+00

     the potential shift due to the Gaussian-smeared nuclei is    -0.0668 ev

     total cpu time spent up to now is       29.0 secs

     End of self-consistent calculation

          k = 0.0000 0.0000 0.0000 ( 11060 PWs)   bands (ev):

   -28.9429 -23.2049 -18.6866 -16.0170 -14.7238 -13.4492 -11.7111 -10.9685
    -9.6107  -9.5960  -9.3593  -7.4452

     highest occupied level (ev):    -7.4452

!    total energy              =     -81.38334848 Ry
     Harris-Foulkes estimate   =     -77.45701115 Ry
     estimated scf accuracy    <       0.00248966 Ry

     The total energy is the sum of the following terms:

     one-electron contribution =    -241.95971193 Ry
     hartree contribution      =     123.14249125 Ry
     xc contribution           =     -22.94577256 Ry
     ewald contribution        =      64.30784006 Ry
     electrostatic embedding   =      -0.12132834 Ry
     correction to one-el term =      -3.80686697 Ry

     convergence has been achieved in   5 iterations

     Forces acting on atoms (cartesian axes, Ry/au):

     atom    1 type  1   force =     0.21840105    0.00001185    0.10003285
     atom    2 type  1   force =    -0.03315319   -0.00000467   -0.08131759
     atom    3 type  3   force =    -0.13992072   -0.00000081    0.04567353
     atom    4 type  2   force =     0.01760755   -0.02836441    0.00832069
     atom    5 type  2   force =    -0.03270731   -0.00000250    0.01164673
     atom    6 type  2   force =     0.01761100    0.02837035    0.00832208
     atom    7 type  4   force =    -0.08232962   -0.00003018   -0.00937785
     atom    8 type  2   force =     0.00505992    0.00000590   -0.04792216
     atom    9 type  2   force =     0.03808587    0.00001012    0.03882309
     atom   10 type  2   force =    -0.00865456    0.00000434   -0.07420136

     Total force =     0.329213     Total SCF correction =     0.121335
     SCF correction compared to forces is large: reduce conv_thr to get better values

     Writing output data file pwscf.save/
 
     init_run     :      3.87s CPU      4.29s WALL (       1 calls)
     electrons    :     20.63s CPU     24.04s WALL (       1 calls)
     forces       :      0.74s CPU      1.00s WALL (       1 calls)

     Called by init_run:
     wfcinit      :      0.14s CPU      0.14s WALL (       1 calls)
     potinit      :      1.39s CPU      1.49s WALL (       1 calls)
     hinit0       :      1.96s CPU      2.00s WALL (       1 calls)

     Called by electrons:
     c_bands      :      1.18s CPU      1.18s WALL (       5 calls)
     sum_band     :      1.97s CPU      2.83s WALL (       5 calls)
     v_of_rho     :      2.77s CPU      3.03s WALL (       6 calls)
     newd         :      1.51s CPU      2.62s WALL (       6 calls)
     mix_rho      :      0.23s CPU      0.23s WALL (       5 calls)

     Called by c_bands:
     init_us_2    :      0.05s CPU      0.05s WALL (      11 calls)
     regterg      :      1.12s CPU      1.11s WALL (       5 calls)

     Called by sum_band:
     sum_band:bec :      0.00s CPU      0.00s WALL (       5 calls)
     addusdens    :      1.60s CPU      2.46s WALL (       5 calls)

     Called by *egterg:
     h_psi        :      1.13s CPU      1.13s WALL (      23 calls)
     s_psi        :      0.04s CPU      0.02s WALL (      23 calls)
     g_psi        :      0.01s CPU      0.01s WALL (      17 calls)
     rdiaghg      :      0.01s CPU      0.01s WALL (      22 calls)

     Called by h_psi:
     h_psi:pot    :      1.12s CPU      1.13s WALL (      23 calls)
     h_psi:calbec :      0.01s CPU      0.02s WALL (      23 calls)
     vloc_psi     :      1.10s CPU      1.08s WALL (      23 calls)
     add_vuspsi   :      0.02s CPU      0.02s WALL (      23 calls)

     General routines
     calbec       :      0.02s CPU      0.03s WALL (      32 calls)
     fft          :      6.91s CPU      6.90s WALL (     400 calls)
     ffts         :      0.03s CPU      0.03s WALL (      11 calls)
     fftw         :      0.96s CPU      0.97s WALL (     244 calls)
     interpolate  :      0.16s CPU      0.18s WALL (       6 calls)
 
     Parallel routines
 
     Environ routines
     calc_eelect  :      0.02s CPU      0.01s WALL (      10 calls)
     calc_velect  :     10.42s CPU     11.56s WALL (       8 calls)
     dielectric   :      0.25s CPU      0.26s WALL (       7 calls)
     calc_felect  :      0.08s CPU      0.09s WALL (       1 calls)
 
     PWSCF        :    25.89s CPU        30.00s WALL

 
   This run was terminated on:  23:15:20  21Apr2019            

=------------------------------------------------------------------------------=
   JOB DONE.
=------------------------------------------------------------------------------=

%%%% IONS %%%%%%%%%%%%%%%%%%%%%%%%%%%%%%%%%%%%%%%%%%%%%%%%%%%%%%%%%%%%%%%%%%%%%%
 number of ions             =         10
 ionic center of charge     =      0.0095530    -0.0000002     0.0063981
 total ionic charge         =    -25.0000000
 ionic dipole               =      0.0000000     0.0000000     0.0000000
 ionic quadrupole (pc)      =    -79.0828058    -5.4513517  -105.8059629
 ionic quadrupole (gauss)   =    -82.2078058    -8.5763517  -108.9309629
 ion   1 type =  1 coordinates =      0.0000000     0.0000000     0.0000000
 ion   2 type =  1 coordinates =      0.0000000     0.0000000     2.9101782
 ion   3 type =  3 coordinates =      2.3419379     0.0000000    -1.0900479
 ion   4 type =  2 coordinates =      0.9532347    -1.6509323     3.5841800
 ion   5 type =  2 coordinates =     -1.9063663    -0.0000596     3.5841809
 ion   6 type =  2 coordinates =      0.9531315     1.6509919     3.5841800
 ion   7 type =  4 coordinates =     -1.9680045    -0.0000375    -1.2826193
 ion   8 type =  2 coordinates =      2.5262613    -0.0000303    -2.9510950
 ion   9 type =  2 coordinates =      3.8892907     0.0002681    -0.0514326
 ion  10 type =  2 coordinates =     -1.5407317    -0.0000890    -3.0457220

%%%% SYSTEM %%%%%%%%%%%%%%%%%%%%%%%%%%%%%%%%%%%%%%%%%%%%%%%%%%%%%%%%%%%%%%%%%%%%
 system is built from all present ionic types
 system defined dimension   =  0 
 system defined axis        =  3 
 system center              =      0.0095530    -0.0000002     0.0063981 
 system width               =      0.2021425 

%%%% ELECTRONS %%%%%%%%%%%%%%%%%%%%%%%%%%%%%%%%%%%%%%%%%%%%%%%%%%%%%%%%%%%%%%%%%
 number of electrons        =         24
 total electronic charge    =     24.0000000
 number of spin components  =  1

%%%% BOUNDARY %%%%%%%%%%%%%%%%%%%%%%%%%%%%%%%%%%%%%%%%%%%%%%%%%%%%%%%%%%%%%%%%%%
 boundary label             = solvent              
 boundary mode              = electronic           
 boundary is built as a function of a smooth density
 function type              =  2 
 using the modified SCCS function with parameters 
 rhomax                     =      0.0050000 
 rhomin                     =      0.0001000 
 volume of the QM region    =   2771.6247530 
 surface of the QM region   =    905.6008160 

%%%% DIELECTRIC %%%%%%%%%%%%%%%%%%%%%%%%%%%%%%%%%%%%%%%%%%%%%%%%%%%%%%%%%%%%%%%%%
 dielectric build on homogeneous background
 environment bulk permitt.  =    100.0000000 
 dielectric flags
 need gradient              =  F 
 need factor depend. sqrt   =  F 
 total dielectric charge    =      0.0000000

%%%% DENSITY %%%%%%%%%%%%%%%%%%%%%%%%%%%%%%%%%%%%%%%%%%%%%%%%%%%%%%%%%%%%%%%%%%%
 density label              = vreference                                                                      
 integral of density        =      0.000000000    

%%%% DENSITY %%%%%%%%%%%%%%%%%%%%%%%%%%%%%%%%%%%%%%%%%%%%%%%%%%%%%%%%%%%%%%%%%%%
 density label              = velectrostatic                                                                  
 integral of density        =      0.000000000    

%%%% CHARGES %%%%%%%%%%%%%%%%%%%%%%%%%%%%%%%%%%%%%%%%%%%%%%%%%%%%%%%%%%%%%%%%%%%
 total number of charges    =         34
 total charge               =     -1.0000000

%%%% DENSITY %%%%%%%%%%%%%%%%%%%%%%%%%%%%%%%%%%%%%%%%%%%%%%%%%%%%%%%%%%%%%%%%%%%
 density label              = vsoftcavity                                                                     
 integral of density        =      0.000000000    

%%%% ELECTRONS %%%%%%%%%%%%%%%%%%%%%%%%%%%%%%%%%%%%%%%%%%%%%%%%%%%%%%%%%%%%%%%%%
 number of electrons        =         24
 total electronic charge    =     24.0000000
 number of spin components  =  1

%%%% BOUNDARY %%%%%%%%%%%%%%%%%%%%%%%%%%%%%%%%%%%%%%%%%%%%%%%%%%%%%%%%%%%%%%%%%%
 boundary label             = solvent              
 boundary mode              = electronic           
 boundary is built as a function of a smooth density
 function type              =  2 
 using the modified SCCS function with parameters 
 rhomax                     =      0.0050000 
 rhomin                     =      0.0001000 
 volume of the QM region    =    989.6663037 
 surface of the QM region   =    490.3846795 

%%%% DIELECTRIC %%%%%%%%%%%%%%%%%%%%%%%%%%%%%%%%%%%%%%%%%%%%%%%%%%%%%%%%%%%%%%%%%
 dielectric build on homogeneous background
 environment bulk permitt.  =    100.0000000 
 dielectric flags
 need gradient              =  F 
 need factor depend. sqrt   =  F 
 total dielectric charge    =      0.0000000

%%%% DENSITY %%%%%%%%%%%%%%%%%%%%%%%%%%%%%%%%%%%%%%%%%%%%%%%%%%%%%%%%%%%%%%%%%%%
 density label              = vreference                                                                      
 integral of density        =    -0.1947413424E-12

%%%% COMPUTE ELECTROSTATIC POTENTIAL %%%%%%%%%%%%%%%%%%%%%%%%%%%%%%%%%%%%%%%%%%%
 Starting from polarization: rhoiter =      0.000000 jellium =      0.000000
 Iteration #          1
 delta_qm =   0.365417E-02 delta_en =   0.230740E+02 tol =   0.100000E-04
 Iteration #          2
 delta_qm =   0.210155E-02 delta_en =   0.763171E+01 tol =   0.100000E-04
 Iteration #          3
 delta_qm =   0.108865E-02 delta_en =   0.204795E+01 tol =   0.100000E-04
 Iteration #          4
 delta_qm =   0.579864E-03 delta_en =   0.581026E+00 tol =   0.100000E-04
 Iteration #          5
 delta_qm =   0.366763E-03 delta_en =   0.232442E+00 tol =   0.100000E-04
 Iteration #          6
 delta_qm =   0.160731E-03 delta_en =   0.446422E-01 tol =   0.100000E-04
 Iteration #          7
 delta_qm =   0.103970E-03 delta_en =   0.186793E-01 tol =   0.100000E-04
 Iteration #          8
 delta_qm =   0.630513E-04 delta_en =   0.686961E-02 tol =   0.100000E-04
 Iteration #          9
 delta_qm =   0.339969E-04 delta_en =   0.199720E-02 tol =   0.100000E-04
 Iteration #         10
 delta_qm =   0.231611E-04 delta_en =   0.926965E-03 tol =   0.100000E-04
 Iteration #         11
 delta_qm =   0.158680E-04 delta_en =   0.435099E-03 tol =   0.100000E-04
 Iteration #         12
 delta_qm =   0.982413E-05 delta_en =   0.166775E-03 tol =   0.100000E-04
 Iteration #         13
 delta_qm =   0.653130E-05 delta_en =   0.737128E-04 tol =   0.100000E-04
 Iteration #         14
 delta_qm =   0.463183E-05 delta_en =   0.370722E-04 tol =   0.100000E-04
 Iteration #         15
 delta_qm =   0.301289E-05 delta_en =   0.156859E-04 tol =   0.100000E-04
 Iteration #         16
 delta_qm =   0.195363E-05 delta_en =   0.659521E-05 tol =   0.100000E-04
 Charges are converged, EXIT

%%%% DENSITY %%%%%%%%%%%%%%%%%%%%%%%%%%%%%%%%%%%%%%%%%%%%%%%%%%%%%%%%%%%%%%%%%%%
 density label              = velectrostatic                                                                  
 integral of density        =     0.1430296211E-12

%%%% CHARGES %%%%%%%%%%%%%%%%%%%%%%%%%%%%%%%%%%%%%%%%%%%%%%%%%%%%%%%%%%%%%%%%%%%
 total number of charges    =         34
 total charge               =     -1.0000000

%%%% DENSITY %%%%%%%%%%%%%%%%%%%%%%%%%%%%%%%%%%%%%%%%%%%%%%%%%%%%%%%%%%%%%%%%%%%
 density label              = vsoftcavity                                                                     
 integral of density        =      71.73931454    

%%%% ELECTRONS %%%%%%%%%%%%%%%%%%%%%%%%%%%%%%%%%%%%%%%%%%%%%%%%%%%%%%%%%%%%%%%%%
 number of electrons        =         24
 total electronic charge    =     24.0000000
 number of spin components  =  1

%%%% BOUNDARY %%%%%%%%%%%%%%%%%%%%%%%%%%%%%%%%%%%%%%%%%%%%%%%%%%%%%%%%%%%%%%%%%%
 boundary label             = solvent              
 boundary mode              = electronic           
 boundary is built as a function of a smooth density
 function type              =  2 
 using the modified SCCS function with parameters 
 rhomax                     =      0.0050000 
 rhomin                     =      0.0001000 
 volume of the QM region    =    837.3015762 
 surface of the QM region   =    448.8710889 

%%%% DIELECTRIC %%%%%%%%%%%%%%%%%%%%%%%%%%%%%%%%%%%%%%%%%%%%%%%%%%%%%%%%%%%%%%%%%
 dielectric build on homogeneous background
 environment bulk permitt.  =    100.0000000 
 dielectric flags
 need gradient              =  F 
 need factor depend. sqrt   =  F 
 total dielectric charge    =      0.9886184

%%%% DENSITY %%%%%%%%%%%%%%%%%%%%%%%%%%%%%%%%%%%%%%%%%%%%%%%%%%%%%%%%%%%%%%%%%%%
 density label              = vreference                                                                      
 integral of density        =     0.6217906848E-12

%%%% COMPUTE ELECTROSTATIC POTENTIAL %%%%%%%%%%%%%%%%%%%%%%%%%%%%%%%%%%%%%%%%%%%
 Starting from polarization: rhoiter =      1.773882 jellium =      0.000000
 Iteration #          1
 delta_qm =   0.890174E-03 delta_en =   0.136929E+01 tol =   0.100000E-04
 Iteration #          2
 delta_qm =   0.583175E-03 delta_en =   0.587681E+00 tol =   0.100000E-04
 Iteration #          3
 delta_qm =   0.362149E-03 delta_en =   0.226631E+00 tol =   0.100000E-04
 Iteration #          4
 delta_qm =   0.232946E-03 delta_en =   0.937677E-01 tol =   0.100000E-04
 Iteration #          5
 delta_qm =   0.148904E-03 delta_en =   0.383139E-01 tol =   0.100000E-04
 Iteration #          6
 delta_qm =   0.931762E-04 delta_en =   0.150021E-01 tol =   0.100000E-04
 Iteration #          7
 delta_qm =   0.585382E-04 delta_en =   0.592137E-02 tol =   0.100000E-04
 Iteration #          8
 delta_qm =   0.389053E-04 delta_en =   0.261553E-02 tol =   0.100000E-04
 Iteration #          9
 delta_qm =   0.256530E-04 delta_en =   0.113716E-02 tol =   0.100000E-04
 Iteration #         10
 delta_qm =   0.167119E-04 delta_en =   0.482608E-03 tol =   0.100000E-04
 Iteration #         11
 delta_qm =   0.117454E-04 delta_en =   0.238387E-03 tol =   0.100000E-04
 Iteration #         12
 delta_qm =   0.810037E-05 delta_en =   0.113385E-03 tol =   0.100000E-04
 Iteration #         13
 delta_qm =   0.537164E-05 delta_en =   0.498606E-04 tol =   0.100000E-04
 Iteration #         14
 delta_qm =   0.381187E-05 delta_en =   0.251084E-04 tol =   0.100000E-04
 Iteration #         15
 delta_qm =   0.271285E-05 delta_en =   0.127173E-04 tol =   0.100000E-04
 Iteration #         16
 delta_qm =   0.181149E-05 delta_en =   0.567042E-05 tol =   0.100000E-04
 Charges are converged, EXIT

%%%% DENSITY %%%%%%%%%%%%%%%%%%%%%%%%%%%%%%%%%%%%%%%%%%%%%%%%%%%%%%%%%%%%%%%%%%%
 density label              = velectrostatic                                                                  
 integral of density        =     0.1450033509E-12

%%%% CHARGES %%%%%%%%%%%%%%%%%%%%%%%%%%%%%%%%%%%%%%%%%%%%%%%%%%%%%%%%%%%%%%%%%%%
 total number of charges    =         34
 total charge               =     -1.0000000

%%%% DENSITY %%%%%%%%%%%%%%%%%%%%%%%%%%%%%%%%%%%%%%%%%%%%%%%%%%%%%%%%%%%%%%%%%%%
 density label              = vsoftcavity                                                                     
 integral of density        =      49.95329443    

%%%% ELECTRONS %%%%%%%%%%%%%%%%%%%%%%%%%%%%%%%%%%%%%%%%%%%%%%%%%%%%%%%%%%%%%%%%%
 number of electrons        =         24
 total electronic charge    =     24.0000000
 number of spin components  =  1

%%%% BOUNDARY %%%%%%%%%%%%%%%%%%%%%%%%%%%%%%%%%%%%%%%%%%%%%%%%%%%%%%%%%%%%%%%%%%
 boundary label             = solvent              
 boundary mode              = electronic           
 boundary is built as a function of a smooth density
 function type              =  2 
 using the modified SCCS function with parameters 
 rhomax                     =      0.0050000 
 rhomin                     =      0.0001000 
 volume of the QM region    =    756.8200910 
 surface of the QM region   =    424.0813006 

%%%% DIELECTRIC %%%%%%%%%%%%%%%%%%%%%%%%%%%%%%%%%%%%%%%%%%%%%%%%%%%%%%%%%%%%%%%%%
 dielectric build on homogeneous background
 environment bulk permitt.  =    100.0000000 
 dielectric flags
 need gradient              =  F 
 need factor depend. sqrt   =  F 
 total dielectric charge    =      0.9888486

%%%% DENSITY %%%%%%%%%%%%%%%%%%%%%%%%%%%%%%%%%%%%%%%%%%%%%%%%%%%%%%%%%%%%%%%%%%%
 density label              = vreference                                                                      
 integral of density        =     0.1940834325E-12

%%%% COMPUTE ELECTROSTATIC POTENTIAL %%%%%%%%%%%%%%%%%%%%%%%%%%%%%%%%%%%%%%%%%%%
 Starting from polarization: rhoiter =      1.556978 jellium =      0.000000
 Iteration #          1
 delta_qm =   0.532086E-03 delta_en =   0.489224E+00 tol =   0.100000E-04
 Iteration #          2
 delta_qm =   0.303192E-03 delta_en =   0.158847E+00 tol =   0.100000E-04
 Iteration #          3
 delta_qm =   0.221588E-03 delta_en =   0.848467E-01 tol =   0.100000E-04
 Iteration #          4
 delta_qm =   0.143525E-03 delta_en =   0.355959E-01 tol =   0.100000E-04
 Iteration #          5
 delta_qm =   0.935642E-04 delta_en =   0.151274E-01 tol =   0.100000E-04
 Iteration #          6
 delta_qm =   0.637735E-04 delta_en =   0.702787E-02 tol =   0.100000E-04
 Iteration #          7
 delta_qm =   0.437251E-04 delta_en =   0.330374E-02 tol =   0.100000E-04
 Iteration #          8
 delta_qm =   0.290883E-04 delta_en =   0.146212E-02 tol =   0.100000E-04
 Iteration #          9
 delta_qm =   0.200073E-04 delta_en =   0.691704E-03 tol =   0.100000E-04
 Iteration #         10
 delta_qm =   0.145083E-04 delta_en =   0.363728E-03 tol =   0.100000E-04
 Iteration #         11
 delta_qm =   0.103082E-04 delta_en =   0.183615E-03 tol =   0.100000E-04
 Iteration #         12
 delta_qm =   0.706531E-05 delta_en =   0.862593E-04 tol =   0.100000E-04
 Iteration #         13
 delta_qm =   0.507653E-05 delta_en =   0.445326E-04 tol =   0.100000E-04
 Iteration #         14
 delta_qm =   0.377338E-05 delta_en =   0.246040E-04 tol =   0.100000E-04
 Iteration #         15
 delta_qm =   0.263885E-05 delta_en =   0.120330E-04 tol =   0.100000E-04
 Iteration #         16
 delta_qm =   0.182878E-05 delta_en =   0.577919E-05 tol =   0.100000E-04
 Charges are converged, EXIT

%%%% DENSITY %%%%%%%%%%%%%%%%%%%%%%%%%%%%%%%%%%%%%%%%%%%%%%%%%%%%%%%%%%%%%%%%%%%
 density label              = velectrostatic                                                                  
 integral of density        =    -0.4743530671E-12

%%%% CHARGES %%%%%%%%%%%%%%%%%%%%%%%%%%%%%%%%%%%%%%%%%%%%%%%%%%%%%%%%%%%%%%%%%%%
 total number of charges    =         34
 total charge               =     -1.0000000

%%%% DENSITY %%%%%%%%%%%%%%%%%%%%%%%%%%%%%%%%%%%%%%%%%%%%%%%%%%%%%%%%%%%%%%%%%%%
 density label              = vsoftcavity                                                                     
 integral of density        =      38.04509658    

%%%% ELECTRONS %%%%%%%%%%%%%%%%%%%%%%%%%%%%%%%%%%%%%%%%%%%%%%%%%%%%%%%%%%%%%%%%%
 number of electrons        =         24
 total electronic charge    =     24.0000000
 number of spin components  =  1

%%%% BOUNDARY %%%%%%%%%%%%%%%%%%%%%%%%%%%%%%%%%%%%%%%%%%%%%%%%%%%%%%%%%%%%%%%%%%
 boundary label             = solvent              
 boundary mode              = electronic           
 boundary is built as a function of a smooth density
 function type              =  2 
 using the modified SCCS function with parameters 
 rhomax                     =      0.0050000 
 rhomin                     =      0.0001000 
 volume of the QM region    =    716.8148968 
 surface of the QM region   =    412.3316884 

%%%% DIELECTRIC %%%%%%%%%%%%%%%%%%%%%%%%%%%%%%%%%%%%%%%%%%%%%%%%%%%%%%%%%%%%%%%%%
 dielectric build on homogeneous background
 environment bulk permitt.  =    100.0000000 
 dielectric flags
 need gradient              =  F 
 need factor depend. sqrt   =  F 
 total dielectric charge    =      0.9889668

%%%% DENSITY %%%%%%%%%%%%%%%%%%%%%%%%%%%%%%%%%%%%%%%%%%%%%%%%%%%%%%%%%%%%%%%%%%%
 density label              = vreference                                                                      
 integral of density        =     0.3574424707E-12

%%%% COMPUTE ELECTROSTATIC POTENTIAL %%%%%%%%%%%%%%%%%%%%%%%%%%%%%%%%%%%%%%%%%%%
 Starting from polarization: rhoiter =      1.396840 jellium =      0.000000
 Iteration #          1
 delta_qm =   0.428243E-03 delta_en =   0.316902E+00 tol =   0.100000E-04
 Iteration #          2
 delta_qm =   0.280361E-03 delta_en =   0.135825E+00 tol =   0.100000E-04
 Iteration #          3
 delta_qm =   0.222541E-03 delta_en =   0.855782E-01 tol =   0.100000E-04
 Iteration #          4
 delta_qm =   0.144621E-03 delta_en =   0.361416E-01 tol =   0.100000E-04
 Iteration #          5
 delta_qm =   0.101803E-03 delta_en =   0.179086E-01 tol =   0.100000E-04
 Iteration #          6
 delta_qm =   0.748807E-04 delta_en =   0.968910E-02 tol =   0.100000E-04
 Iteration #          7
 delta_qm =   0.505131E-04 delta_en =   0.440912E-02 tol =   0.100000E-04
 Iteration #          8
 delta_qm =   0.344230E-04 delta_en =   0.204758E-02 tol =   0.100000E-04
 Iteration #          9
 delta_qm =   0.257520E-04 delta_en =   0.114595E-02 tol =   0.100000E-04
 Iteration #         10
 delta_qm =   0.185092E-04 delta_en =   0.591998E-03 tol =   0.100000E-04
 Iteration #         11
 delta_qm =   0.129427E-04 delta_en =   0.289462E-03 tol =   0.100000E-04
 Iteration #         12
 delta_qm =   0.951976E-05 delta_en =   0.156601E-03 tol =   0.100000E-04
 Iteration #         13
 delta_qm =   0.696392E-05 delta_en =   0.838013E-04 tol =   0.100000E-04
 Iteration #         14
 delta_qm =   0.504051E-05 delta_en =   0.439029E-04 tol =   0.100000E-04
 Iteration #         15
 delta_qm =   0.369379E-05 delta_en =   0.235770E-04 tol =   0.100000E-04
 Iteration #         16
 delta_qm =   0.265776E-05 delta_en =   0.122060E-04 tol =   0.100000E-04
 Iteration #         17
 delta_qm =   0.193287E-05 delta_en =   0.645579E-05 tol =   0.100000E-04
 Charges are converged, EXIT

%%%% DENSITY %%%%%%%%%%%%%%%%%%%%%%%%%%%%%%%%%%%%%%%%%%%%%%%%%%%%%%%%%%%%%%%%%%%
 density label              = velectrostatic                                                                  
 integral of density        =    -0.1729645234E-12

%%%% CHARGES %%%%%%%%%%%%%%%%%%%%%%%%%%%%%%%%%%%%%%%%%%%%%%%%%%%%%%%%%%%%%%%%%%%
 total number of charges    =         34
 total charge               =     -1.0000000

%%%% DENSITY %%%%%%%%%%%%%%%%%%%%%%%%%%%%%%%%%%%%%%%%%%%%%%%%%%%%%%%%%%%%%%%%%%%
 density label              = vsoftcavity                                                                     
 integral of density        =      33.99592169    

%%%% ELECTRONS %%%%%%%%%%%%%%%%%%%%%%%%%%%%%%%%%%%%%%%%%%%%%%%%%%%%%%%%%%%%%%%%%
 number of electrons        =         24
 total electronic charge    =     24.0000000
 number of spin components  =  1

%%%% BOUNDARY %%%%%%%%%%%%%%%%%%%%%%%%%%%%%%%%%%%%%%%%%%%%%%%%%%%%%%%%%%%%%%%%%%
 boundary label             = solvent              
 boundary mode              = electronic           
 boundary is built as a function of a smooth density
 function type              =  2 
 using the modified SCCS function with parameters 
 rhomax                     =      0.0050000 
 rhomin                     =      0.0001000 
 volume of the QM region    =    716.8148968 
 surface of the QM region   =    412.3316884 

%%%% DIELECTRIC %%%%%%%%%%%%%%%%%%%%%%%%%%%%%%%%%%%%%%%%%%%%%%%%%%%%%%%%%%%%%%%%%
 dielectric build on homogeneous background
 environment bulk permitt.  =    100.0000000 
 dielectric flags
 need gradient              =  F 
 need factor depend. sqrt   =  F 
 total dielectric charge    =      0.9890240

%%%% DENSITY %%%%%%%%%%%%%%%%%%%%%%%%%%%%%%%%%%%%%%%%%%%%%%%%%%%%%%%%%%%%%%%%%%%
 density label              = vreference                                                                      
 integral of density        =     0.3574424707E-12

%%%% DENSITY %%%%%%%%%%%%%%%%%%%%%%%%%%%%%%%%%%%%%%%%%%%%%%%%%%%%%%%%%%%%%%%%%%%
 density label              = velectrostatic                                                                  
 integral of density        =    -0.1729645234E-12

%%%% CHARGES %%%%%%%%%%%%%%%%%%%%%%%%%%%%%%%%%%%%%%%%%%%%%%%%%%%%%%%%%%%%%%%%%%%
 total number of charges    =         34
 total charge               =     -1.0000000

%%%% DENSITY %%%%%%%%%%%%%%%%%%%%%%%%%%%%%%%%%%%%%%%%%%%%%%%%%%%%%%%%%%%%%%%%%%%
 density label              = vsoftcavity                                                                     
 integral of density        =      33.99592169    
