
     Program PWSCF v.6.1 (svn rev. 13369) starts on  1Feb2018 at 12:15:40 

     This program is part of the open-source Quantum ESPRESSO suite
     for quantum simulation of materials; please cite
         "P. Giannozzi et al., J. Phys.:Condens. Matter 21 395502 (2009);
          URL http://www.quantum-espresso.org", 
     in publications or presentations arising from this work. More details at
     http://www.quantum-espresso.org/quote

     Parallel version (MPI), running on     1 processors
     Reading input from charged.in

     Current dimensions of program PWSCF are:
     Max number of different atomic species (ntypx) = 10
     Max number of k-points (npk) =  40000
     Max angular momentum in pseudopotentials (lmaxx) =  3
               file C.pbe-rrkjus.UPF: wavefunction(s)  2S 2P renormalized
               file H.pbe-rrkjus.UPF: wavefunction(s)  1S renormalized
               file N.pbe-rrkjus.UPF: wavefunction(s)  2S renormalized
               file O.pbe-rrkjus.UPF: wavefunction(s)  2S renormalized

     gamma-point specific algorithms are used

     Subspace diagonalization in iterative solution of the eigenvalue problem:
     a serial algorithm will be used

 
     G-vector sticks info
     --------------------
     sticks:   dense  smooth     PW     G-vecs:    dense   smooth      PW
     Sum        9549    3809    949               701475   177509   22119
 


     bravais-lattice index     =            1
     lattice parameter (alat)  =      20.0000  a.u.
     unit-cell volume          =    8000.0000 (a.u.)^3
     number of atoms/cell      =           10
     number of atomic types    =            4
     number of electrons       =        24.00
     number of Kohn-Sham states=           12
     kinetic-energy cutoff     =      30.0000  Ry
     charge density cutoff     =     300.0000  Ry
     convergence threshold     =      5.0E-03
     mixing beta               =       0.7000
     number of iterations used =            8  plain     mixing
     Exchange-correlation      =  SLA  PW   PBE  PBE ( 1  4  3  4 0 0)
 

     Environ Module
     ==============

     Plese cite
         O. Andreussi, I. Dabo and N. Marzari, J. Chem. Phys. 136, 064102 (2012)         
     in publications or presentations arising from this work.

     compensation onset threshold      =               0.1000E+03 
     switching function adopted        =                     SCCS 
     density limit for vacuum region   =               0.5000E-02 
     density limit for bulk solvent    =               0.1000E-03 
     static permittivity               =                   100.00 
     epsilon calculation mode          =               electronic 

     Electrostatic Setup
     -------------------
     electrostatic problem to solve    = generalized              
     numerical solver adopted          = cg                       
     type of auxiliary density adopted = none                     
     type of core tool for poisson     = fft                      
     type of core tool for s(r) deriv  = analytic                 



     celldm(1)=  20.000000  celldm(2)=   0.000000  celldm(3)=   0.000000
     celldm(4)=   0.000000  celldm(5)=   0.000000  celldm(6)=   0.000000

     crystal axes: (cart. coord. in units of alat)
               a(1) = (   1.000000   0.000000   0.000000 )  
               a(2) = (   0.000000   1.000000   0.000000 )  
               a(3) = (   0.000000   0.000000   1.000000 )  

     reciprocal axes: (cart. coord. in units 2 pi/alat)
               b(1) = (  1.000000  0.000000  0.000000 )  
               b(2) = (  0.000000  1.000000  0.000000 )  
               b(3) = (  0.000000  0.000000  1.000000 )  


     PseudoPot. # 1 for C  read from file:
     /home/fnattino/Programs/qe-6.1/Environ/tests/../..//pseudo/C.pbe-rrkjus.UPF
     MD5 check sum: 00fb224312de0c5b6853bd333518df6f
     Pseudo is Ultrasoft, Zval =  4.0
     Generated by new atomic code, or converted to UPF format
     Using radial grid of  627 points,  4 beta functions with: 
                l(1) =   0
                l(2) =   0
                l(3) =   1
                l(4) =   1
     Q(r) pseudized with 0 coefficients 


     PseudoPot. # 2 for H  read from file:
     /home/fnattino/Programs/qe-6.1/Environ/tests/../..//pseudo/H.pbe-rrkjus.UPF
     MD5 check sum: 7cc9d459525c9a0585f487a71c3c9563
     Pseudo is Ultrasoft, Zval =  1.0
     Generated by new atomic code, or converted to UPF format
     Using radial grid of 1061 points,  2 beta functions with: 
                l(1) =   0
                l(2) =   0
     Q(r) pseudized with 0 coefficients 


     PseudoPot. # 3 for N  read from file:
     /home/fnattino/Programs/qe-6.1/Environ/tests/../..//pseudo/N.pbe-rrkjus.UPF
     MD5 check sum: 0c3fbe5807a93f9ba59d5a7019aa238b
     Pseudo is Ultrasoft, Zval =  5.0
     Generated by new atomic code, or converted to UPF format
     Using radial grid of 1257 points,  4 beta functions with: 
                l(1) =   0
                l(2) =   0
                l(3) =   1
                l(4) =   1
     Q(r) pseudized with 0 coefficients 


     PseudoPot. # 4 for O  read from file:
     /home/fnattino/Programs/qe-6.1/Environ/tests/../..//pseudo/O.pbe-rrkjus.UPF
     MD5 check sum: 390ba29e75625707450f3bd3f0eb6be9
     Pseudo is Ultrasoft, Zval =  6.0
     Generated by new atomic code, or converted to UPF format
     Using radial grid of 1269 points,  4 beta functions with: 
                l(1) =   0
                l(2) =   0
                l(3) =   1
                l(4) =   1
     Q(r) pseudized with 0 coefficients 


     atomic species   valence    mass     pseudopotential
        C              4.00    12.00000     C ( 1.00)
        H              1.00     1.00000     H ( 1.00)
        N              5.00    14.00000     N ( 1.00)
        O              6.00    16.00000     O ( 1.00)

     No symmetry found



   Cartesian axes

     site n.     atom                  positions (alat units)
         1           C   tau(   1) = (   0.0000000   0.0000000   0.0000000  )
         2           C   tau(   2) = (   0.0000000   0.0000000   0.1455089  )
         3           N   tau(   3) = (   0.1170969   0.0000000  -0.0545024  )
         4           H   tau(   4) = (   0.0476617  -0.0825466   0.1792090  )
         5           H   tau(   5) = (  -0.0953183  -0.0000030   0.1792090  )
         6           H   tau(   6) = (   0.0476566   0.0825496   0.1792090  )
         7           O   tau(   7) = (  -0.0984002  -0.0000019  -0.0641310  )
         8           H   tau(   8) = (   0.1263131  -0.0000015  -0.1475548  )
         9           H   tau(   9) = (   0.1944645   0.0000134  -0.0025716  )
        10           H   tau(  10) = (  -0.0770366  -0.0000045  -0.1522861  )

     number of k points=     1
                       cart. coord. in units 2pi/alat
        k(    1) = (   0.0000000   0.0000000   0.0000000), wk =   2.0000000

     Dense  grid:   350738 G-vectors     FFT dimensions: ( 120, 120, 120)

     Smooth grid:    88755 G-vectors     FFT dimensions: (  72,  72,  72)

     Estimated max dynamical RAM per process >     298.98MB

     Initial potential from superposition of free atoms
     Check: negative starting charge=   -0.000452

     starting charge   24.42266, renormalised to   24.00000

     negative rho (up, down):  4.438E-04 0.000E+00
     Starting wfc are   22 randomized atomic wfcs

     total cpu time spent up to now is        3.5 secs

     per-process dynamical memory:   607.6 Mb

     Self-consistent Calculation

     iteration #  1     ecut=    30.00 Ry     beta=0.70
     Davidson diagonalization with overlap
     ethr =  1.00E-02,  avg # of iterations =  2.0

     negative rho (up, down):  1.277E-04 0.000E+00

     add environment contribution to local potential
     polarization accuracy = 4.2E-06, # of iterations =  14

     total cpu time spent up to now is        7.2 secs

     total energy              =     -80.23903180 Ry
     Harris-Foulkes estimate   =     -83.01879009 Ry
     estimated scf accuracy    <       3.73442311 Ry
     electrostatic embedding   =       0.00000000 Ry
     correction to one-el term =       0.00000000 Ry

     iteration #  2     ecut=    30.00 Ry     beta=0.70
     Davidson diagonalization with overlap
     ethr =  1.00E-02,  avg # of iterations =  4.0

     negative rho (up, down):  6.920E-04 0.000E+00

     add environment contribution to local potential
     polarization accuracy = 6.0E-06, # of iterations =  16

     total cpu time spent up to now is       11.2 secs

     total energy              =     -80.96150496 Ry
     Harris-Foulkes estimate   =     -76.58375529 Ry
     estimated scf accuracy    <       1.54143295 Ry
     electrostatic embedding   =      -0.18539258 Ry
     correction to one-el term =      -5.01778132 Ry

     iteration #  3     ecut=    30.00 Ry     beta=0.70
     Davidson diagonalization with overlap
     ethr =  6.42E-03,  avg # of iterations =  3.0

     negative rho (up, down):  3.243E-04 0.000E+00

     add environment contribution to local potential
     polarization accuracy = 4.4E-06, # of iterations =  17

     total cpu time spent up to now is       15.2 secs

     total energy              =     -81.32004778 Ry
     Harris-Foulkes estimate   =     -77.00548907 Ry
     estimated scf accuracy    <       0.24273973 Ry
     electrostatic embedding   =      -0.15279979 Ry
     correction to one-el term =      -4.29116085 Ry

     iteration #  4     ecut=    30.00 Ry     beta=0.70
     Davidson diagonalization with overlap
     ethr =  1.01E-03,  avg # of iterations =  4.0

     negative rho (up, down):  8.667E-05 0.000E+00

     add environment contribution to local potential
     polarization accuracy = 4.6E-06, # of iterations =  19

     total cpu time spent up to now is       19.2 secs

     total energy              =     -81.37922204 Ry
     Harris-Foulkes estimate   =     -77.20728779 Ry
     estimated scf accuracy    <       0.02093657 Ry
     electrostatic embedding   =      -0.12841009 Ry
     correction to one-el term =      -4.05415847 Ry

     iteration #  5     ecut=    30.00 Ry     beta=0.70
     Davidson diagonalization with overlap
     ethr =  8.72E-05,  avg # of iterations =  4.0

     negative rho (up, down):  2.756E-04 0.000E+00

     total cpu time spent up to now is       21.0 secs

     End of self-consistent calculation

          k = 0.0000 0.0000 0.0000 ( 11060 PWs)   bands (ev):

   -28.9375 -23.1992 -18.6810 -16.0122 -14.7185 -13.4442 -11.7059 -10.9635
    -9.6059  -9.5911  -9.3542  -7.4401

     highest occupied level (ev):    -7.4401

!    total energy              =     -81.38468558 Ry
     Harris-Foulkes estimate   =     -77.44080966 Ry
     estimated scf accuracy    <       0.00247578 Ry

     The total energy is the sum of the following terms:

     one-electron contribution =    -241.93634168 Ry
     hartree contribution      =     123.13422934 Ry
     xc contribution           =     -22.94469086 Ry
     ewald contribution        =      64.30784006 Ry
     electrostatic embedding   =      -0.12263015 Ry
     correction to one-el term =      -3.82309228 Ry

     convergence has been achieved in   5 iterations

     Forces acting on atoms (cartesian axes, Ry/au):

     atom    1 type  1   force =     0.21834112    0.00001130    0.09997483
     atom    2 type  1   force =    -0.03323348   -0.00000499   -0.08062873
     atom    3 type  3   force =    -0.13914498   -0.00000165    0.04522336
     atom    4 type  2   force =     0.01776101   -0.02856335    0.00858424
     atom    5 type  2   force =    -0.03290966   -0.00000174    0.01191839
     atom    6 type  2   force =     0.01776419    0.02857026    0.00858533
     atom    7 type  4   force =    -0.08357434   -0.00003233   -0.01002176
     atom    8 type  2   force =     0.00524131    0.00000665   -0.04816674
     atom    9 type  2   force =     0.03844889    0.00001095    0.03891310
     atom   10 type  2   force =    -0.00869403    0.00000489   -0.07438202

     Total force =     0.329164     Total SCF correction =     0.120927
     SCF correction compared to forces is large: reduce conv_thr to get better values

     Writing output data file pwscf.save
 
     init_run     :      3.28s CPU      3.43s WALL (       1 calls)
     electrons    :     16.06s CPU     17.56s WALL (       1 calls)
     forces       :      0.69s CPU      0.78s WALL (       1 calls)

     Called by init_run:
     wfcinit      :      0.09s CPU      0.10s WALL (       1 calls)
     potinit      :      1.25s CPU      1.27s WALL (       1 calls)

     Called by electrons:
     c_bands      :      0.84s CPU      0.85s WALL (       5 calls)
     sum_band     :      2.22s CPU      2.48s WALL (       5 calls)
     v_of_rho     :      3.18s CPU      3.31s WALL (       6 calls)
     newd         :      1.30s CPU      1.60s WALL (       6 calls)
     mix_rho      :      0.24s CPU      0.25s WALL (       5 calls)

     Called by c_bands:
     init_us_2    :      0.05s CPU      0.05s WALL (      11 calls)
     regterg      :      0.78s CPU      0.78s WALL (       5 calls)

     Called by sum_band:
     sum_band:bec :      0.00s CPU      0.00s WALL (       5 calls)
     addusdens    :      1.63s CPU      1.89s WALL (       5 calls)

     Called by *egterg:
     h_psi        :      0.77s CPU      0.77s WALL (      23 calls)
     s_psi        :      0.02s CPU      0.02s WALL (      23 calls)
     g_psi        :      0.01s CPU      0.01s WALL (      17 calls)
     rdiaghg      :      0.00s CPU      0.01s WALL (      22 calls)

     Called by h_psi:
     h_psi:pot    :      0.77s CPU      0.76s WALL (      23 calls)
     h_psi:calbec :      0.02s CPU      0.02s WALL (      23 calls)
     vloc_psi     :      0.72s CPU      0.72s WALL (      23 calls)
     add_vuspsi   :      0.02s CPU      0.02s WALL (      23 calls)

     General routines
     calbec       :      0.02s CPU      0.03s WALL (      32 calls)
     fft          :      6.39s CPU      6.79s WALL (     309 calls)
     ffts         :      0.04s CPU      0.04s WALL (      11 calls)
     fftw         :      0.52s CPU      0.55s WALL (     244 calls)
     interpolate  :      0.34s CPU      0.35s WALL (      11 calls)
     davcio       :      0.00s CPU      0.00s WALL (       1 calls)
 
     Parallel routines
     fft_scatter  :      1.62s CPU      1.89s WALL (     564 calls)
 
     Environ routines
     calc_eelect  :      0.01s CPU      0.01s WALL (      10 calls)
     calc_velect  :      5.79s CPU      6.47s WALL (       8 calls)
     dielectric   :      0.56s CPU      0.56s WALL (       7 calls)
     calc_felect  :      0.08s CPU      0.08s WALL (       1 calls)
 
     PWSCF        :    20.20s CPU        21.95s WALL

 
   This run was terminated on:  12:16: 2   1Feb2018            

=------------------------------------------------------------------------------=
   JOB DONE.
=------------------------------------------------------------------------------=

%%%% IONS %%%%%%%%%%%%%%%%%%%%%%%%%%%%%%%%%%%%%%%%%%%%%%%%%%%%%%%%%%%%%%%%%%%%%%
 number of ions             =         10
 ionic center of charge     =      0.0095530    -0.0000002     0.0063981
 total ionic charge         =    -25.0000000
 ionic dipole               =      0.0000000     0.0000000     0.0000000
 ionic quadrupole (pc)      =    -79.0828058    -5.4513517  -105.8059629
 ionic quadrupole (gauss)   =    -82.2078058    -8.5763517  -108.9309629
 ion   1 type =  1 coordinates =      0.0000000     0.0000000     0.0000000
 ion   2 type =  1 coordinates =      0.0000000     0.0000000     2.9101782
 ion   3 type =  3 coordinates =      2.3419379     0.0000000    -1.0900479
 ion   4 type =  2 coordinates =      0.9532347    -1.6509323     3.5841800
 ion   5 type =  2 coordinates =     -1.9063663    -0.0000596     3.5841809
 ion   6 type =  2 coordinates =      0.9531315     1.6509919     3.5841800
 ion   7 type =  4 coordinates =     -1.9680045    -0.0000375    -1.2826193
 ion   8 type =  2 coordinates =      2.5262613    -0.0000303    -2.9510950
 ion   9 type =  2 coordinates =      3.8892907     0.0002681    -0.0514326
 ion  10 type =  2 coordinates =     -1.5407317    -0.0000890    -3.0457220

%%%% SYSTEM %%%%%%%%%%%%%%%%%%%%%%%%%%%%%%%%%%%%%%%%%%%%%%%%%%%%%%%%%%%%%%%%%%%%
 system is built from all present ionic types
 system defined dimension   =  0 
 system defined axis        =  3 
 system center              =      0.0095530    -0.0000002     0.0063981 
 system width               =      0.2021425 

%%%% ELECTRONS %%%%%%%%%%%%%%%%%%%%%%%%%%%%%%%%%%%%%%%%%%%%%%%%%%%%%%%%%%%%%%%%%
 number of electrons        =         24
 total electronic charge    =     24.0000000
 number of spin components  =  1

%%%% BOUNDARY %%%%%%%%%%%%%%%%%%%%%%%%%%%%%%%%%%%%%%%%%%%%%%%%%%%%%%%%%%%%%%%%%%
 boundary mode              = electronic           
 boundary is built as a function of a smooth density
 function type              =  1 
 using the optimal SCCS function with parameters 
 rhomax                     =      0.0050000 
 rhomin                     =      0.0001000 
 volume of the QM region    =   1611.6286959 
 surface of the QM region   =    641.7174089 

%%%% DIELECTRIC %%%%%%%%%%%%%%%%%%%%%%%%%%%%%%%%%%%%%%%%%%%%%%%%%%%%%%%%%%%%%%%%%
 dielectric build on homogeneous background
 environment bulk permitt.  =    100.0000000 
 dielectric flags
 need gradient              =  F 
 need factor depend. sqrt   =  T 
 total dielectric charge    =      0.0000000

%%%% ELECTRONS %%%%%%%%%%%%%%%%%%%%%%%%%%%%%%%%%%%%%%%%%%%%%%%%%%%%%%%%%%%%%%%%%
 number of electrons        =         24
 total electronic charge    =     24.0000000
 number of spin components  =  1

%%%% BOUNDARY %%%%%%%%%%%%%%%%%%%%%%%%%%%%%%%%%%%%%%%%%%%%%%%%%%%%%%%%%%%%%%%%%%
 boundary mode              = electronic           
 boundary is built as a function of a smooth density
 function type              =  1 
 using the optimal SCCS function with parameters 
 rhomax                     =      0.0050000 
 rhomin                     =      0.0001000 
 volume of the QM region    =    682.9174559 
 surface of the QM region   =    390.3246417 

%%%% DIELECTRIC %%%%%%%%%%%%%%%%%%%%%%%%%%%%%%%%%%%%%%%%%%%%%%%%%%%%%%%%%%%%%%%%%
 dielectric build on homogeneous background
 environment bulk permitt.  =    100.0000000 
 dielectric flags
 need gradient              =  F 
 need factor depend. sqrt   =  T 
 total dielectric charge    =      0.0000000

%%%% COMPUTE ELECTROSTATIC POTENTIAL %%%%%%%%%%%%%%%%%%%%%%%%%%%%%%%%%%%%%%%%%%%
 Iteration #          1
  pAp =    92.0128432578631       rzold =    89.1168179276184       alpha = 
  0.968525857611761     
 delta_qm =   0.144051E-01 delta_en =   0.358571E+03 tol =   0.100000E-04
 Iteration #          2
  pAp =    132.520664430227       rzold =    17.6132539663365       alpha = 
  0.132909490320356     
 delta_qm =   0.289070E-02 delta_en =   0.144394E+02 tol =   0.100000E-04
 Iteration #          3
  pAp =   0.875209649390441       rzold =   0.189580402112096       alpha = 
  0.216611416754984     
 delta_qm =   0.145902E-02 delta_en =   0.367844E+01 tol =   0.100000E-04
 Iteration #          4
  pAp =   0.108684902513522       rzold =   2.398389972924195E-002  alpha = 
  0.220673701448627     
 delta_qm =   0.104063E-02 delta_en =   0.187126E+01 tol =   0.100000E-04
 Iteration #          5
  pAp =   1.103447551511457E-002  rzold =   4.016259193808664E-003  alpha = 
  0.363973728366823     
 delta_qm =   0.560004E-03 delta_en =   0.541909E+00 tol =   0.100000E-04
 Iteration #          6
  pAp =   3.161773585645680E-003  rzold =   1.244401532003303E-003  alpha = 
  0.393577053604608     
 delta_qm =   0.250805E-03 delta_en =   0.108697E+00 tol =   0.100000E-04
 Iteration #          7
  pAp =   4.557026901181171E-004  rzold =   1.852513612802642E-004  alpha = 
  0.406518033133066     
 delta_qm =   0.150204E-03 delta_en =   0.389857E-01 tol =   0.100000E-04
 Iteration #          8
  pAp =   3.340931678695657E-004  rzold =   9.997320266503211E-005  alpha = 
  0.299237495045283     
 delta_qm =   0.862175E-04 delta_en =   0.128450E-01 tol =   0.100000E-04
 Iteration #          9
  pAp =   1.111758550022891E-004  rzold =   4.483632497721882E-005  alpha = 
  0.403291928596327     
 delta_qm =   0.370895E-04 delta_en =   0.237709E-02 tol =   0.100000E-04
 Iteration #         10
  pAp =   2.443675533102231E-005  rzold =   1.025899188208089E-005  alpha = 
  0.419818087266977     
 delta_qm =   0.181116E-04 delta_en =   0.566834E-03 tol =   0.100000E-04
 Iteration #         11
  pAp =   1.752098949590163E-006  rzold =   9.356868994300538E-007  alpha = 
  0.534037703549176     
 delta_qm =   0.992077E-05 delta_en =   0.170073E-03 tol =   0.100000E-04
 Iteration #         12
  pAp =   3.088983673696872E-007  rzold =   1.998189889899515E-007  alpha = 
  0.646876157654824     
 delta_qm =   0.472194E-05 delta_en =   0.385287E-04 tol =   0.100000E-04
 Iteration #         13
  pAp =   2.177338841523826E-007  rzold =   9.265335066053907E-008  alpha = 
  0.425534826704763     
 delta_qm =   0.253130E-05 delta_en =   0.110721E-04 tol =   0.100000E-04
 Iteration #         14
  pAp =   1.078851523366156E-007  rzold =   3.692857370217519E-008  alpha = 
  0.342295236205936     
 delta_qm =   0.156053E-05 delta_en =   0.420813E-05 tol =   0.100000E-04
 Charges are converged, EXIT

%%%% ELECTRONS %%%%%%%%%%%%%%%%%%%%%%%%%%%%%%%%%%%%%%%%%%%%%%%%%%%%%%%%%%%%%%%%%
 number of electrons        =         24
 total electronic charge    =     24.0000000
 number of spin components  =  1

%%%% BOUNDARY %%%%%%%%%%%%%%%%%%%%%%%%%%%%%%%%%%%%%%%%%%%%%%%%%%%%%%%%%%%%%%%%%%
 boundary mode              = electronic           
 boundary is built as a function of a smooth density
 function type              =  1 
 using the optimal SCCS function with parameters 
 rhomax                     =      0.0050000 
 rhomin                     =      0.0001000 
 volume of the QM region    =    643.1599775 
 surface of the QM region   =    381.7914432 

%%%% DIELECTRIC %%%%%%%%%%%%%%%%%%%%%%%%%%%%%%%%%%%%%%%%%%%%%%%%%%%%%%%%%%%%%%%%%
 dielectric build on homogeneous background
 environment bulk permitt.  =    100.0000000 
 dielectric flags
 need gradient              =  F 
 need factor depend. sqrt   =  T 
 total dielectric charge    =      0.9813172

%%%% COMPUTE ELECTROSTATIC POTENTIAL %%%%%%%%%%%%%%%%%%%%%%%%%%%%%%%%%%%%%%%%%%%
 Warning: bad guess with residual norm =   0.739953E+03, reset to no guess
 Iteration #          1
  pAp =    95.4532761526450       rzold =    92.7270221661378       alpha = 
  0.971438864160645     
 delta_qm =   0.202002E-01 delta_en =   0.705106E+03 tol =   0.100000E-04
 Iteration #          2
  pAp =    168.376902734847       rzold =    19.5454038408658       alpha = 
  0.116081264849283     
 delta_qm =   0.404438E-02 delta_en =   0.282649E+02 tol =   0.100000E-04
 Iteration #          3
  pAp =    1.14307445606704       rzold =   0.200859304122324       alpha = 
  0.175718478403776     
 delta_qm =   0.218211E-02 delta_en =   0.822805E+01 tol =   0.100000E-04
 Iteration #          4
  pAp =   0.120334724863499       rzold =   2.338432935120456E-002  alpha = 
  0.194327359602395     
 delta_qm =   0.161698E-02 delta_en =   0.451806E+01 tol =   0.100000E-04
 Iteration #          5
  pAp =   1.203994501426812E-002  rzold =   4.619580808977375E-003  alpha = 
  0.383687865974709     
 delta_qm =   0.908468E-03 delta_en =   0.142614E+01 tol =   0.100000E-04
 Iteration #          6
  pAp =   5.230821137994021E-003  rzold =   1.849802277132515E-003  alpha = 
  0.353635161350958     
 delta_qm =   0.473633E-03 delta_en =   0.387640E+00 tol =   0.100000E-04
 Iteration #          7
  pAp =   8.397843285403765E-004  rzold =   3.992906388247439E-004  alpha = 
  0.475468075855557     
 delta_qm =   0.288918E-03 delta_en =   0.144243E+00 tol =   0.100000E-04
 Iteration #          8
  pAp =   5.688120223787680E-004  rzold =   2.356311713023732E-004  alpha = 
  0.414251390673786     
 delta_qm =   0.139604E-03 delta_en =   0.336774E-01 tol =   0.100000E-04
 Iteration #          9
  pAp =   7.502649813544284E-004  rzold =   1.729041494891119E-004  alpha = 
  0.230457443418156     
 delta_qm =   0.789327E-04 delta_en =   0.107661E-01 tol =   0.100000E-04
 Iteration #         10
  pAp =   1.309134016723441E-004  rzold =   4.485686802487625E-005  alpha = 
  0.342645347625647     
 delta_qm =   0.362182E-04 delta_en =   0.226671E-02 tol =   0.100000E-04
 Iteration #         11
  pAp =   7.465103108268308E-006  rzold =   3.285965392342037E-006  alpha = 
  0.440176826051139     
 delta_qm =   0.207697E-04 delta_en =   0.745426E-03 tol =   0.100000E-04
 Iteration #         12
  pAp =   1.861416392433735E-006  rzold =   7.622031100977966E-007  alpha = 
  0.409474802734085     
 delta_qm =   0.135942E-04 delta_en =   0.319338E-03 tol =   0.100000E-04
 Iteration #         13
  pAp =   6.061890424940558E-007  rzold =   3.000991990312771E-007  alpha = 
  0.495058765490998     
 delta_qm =   0.796247E-05 delta_en =   0.109557E-03 tol =   0.100000E-04
 Iteration #         14
  pAp =   3.783492449605733E-007  rzold =   1.499832530321927E-007  alpha = 
  0.396414833728087     
 delta_qm =   0.542340E-05 delta_en =   0.508261E-04 tol =   0.100000E-04
 Iteration #         15
  pAp =   1.523815528516187E-007  rzold =   5.997266650343288E-008  alpha = 
  0.393569073034918     
 delta_qm =   0.342533E-05 delta_en =   0.202744E-04 tol =   0.100000E-04
 Iteration #         16
  pAp =   6.744245834699157E-008  rzold =   2.539847521320748E-008  alpha = 
  0.376594742180546     
 delta_qm =   0.186024E-05 delta_en =   0.597970E-05 tol =   0.100000E-04
 Charges are converged, EXIT

%%%% ELECTRONS %%%%%%%%%%%%%%%%%%%%%%%%%%%%%%%%%%%%%%%%%%%%%%%%%%%%%%%%%%%%%%%%%
 number of electrons        =         23
 total electronic charge    =     24.0000000
 number of spin components  =  1

%%%% BOUNDARY %%%%%%%%%%%%%%%%%%%%%%%%%%%%%%%%%%%%%%%%%%%%%%%%%%%%%%%%%%%%%%%%%%
 boundary mode              = electronic           
 boundary is built as a function of a smooth density
 function type              =  1 
 using the optimal SCCS function with parameters 
 rhomax                     =      0.0050000 
 rhomin                     =      0.0001000 
 volume of the QM region    =    608.8661444 
 surface of the QM region   =    371.8565405 

%%%% DIELECTRIC %%%%%%%%%%%%%%%%%%%%%%%%%%%%%%%%%%%%%%%%%%%%%%%%%%%%%%%%%%%%%%%%%
 dielectric build on homogeneous background
 environment bulk permitt.  =    100.0000000 
 dielectric flags
 need gradient              =  F 
 need factor depend. sqrt   =  T 
 total dielectric charge    =      0.9822638

%%%% COMPUTE ELECTROSTATIC POTENTIAL %%%%%%%%%%%%%%%%%%%%%%%%%%%%%%%%%%%%%%%%%%%
 Warning: bad guess with residual norm =   0.919185E+03, reset to no guess
 Iteration #          1
  pAp =    95.9547329491855       rzold =    93.3874481786489       alpha = 
  0.973244834396068     
 delta_qm =   0.225243E-01 delta_en =   0.876693E+03 tol =   0.100000E-04
 Iteration #          2
  pAp =    211.476414935819       rzold =    21.4225683693816       alpha = 
  0.101300035636991     
 delta_qm =   0.423465E-02 delta_en =   0.309870E+02 tol =   0.100000E-04
 Iteration #          3
  pAp =    1.22639163001380       rzold =   0.223409296590969       alpha = 
  0.182167988694163     
 delta_qm =   0.203974E-02 delta_en =   0.718943E+01 tol =   0.100000E-04
 Iteration #          4
  pAp =   0.105213096780014       rzold =   1.939351020290851E-002  alpha = 
  0.184326008799624     
 delta_qm =   0.159181E-02 delta_en =   0.437851E+01 tol =   0.100000E-04
 Iteration #          5
  pAp =   1.927503421710937E-002  rzold =   5.459536496224876E-003  alpha = 
  0.283243932785279     
 delta_qm =   0.103603E-02 delta_en =   0.185476E+01 tol =   0.100000E-04
 Iteration #          6
  pAp =   7.054800297552677E-003  rzold =   2.376780017353509E-003  alpha = 
  0.336902522694798     
 delta_qm =   0.569971E-03 delta_en =   0.561370E+00 tol =   0.100000E-04
 Iteration #          7
  pAp =   1.575539521326822E-003  rzold =   6.635485900409869E-004  alpha = 
  0.421156423599065     
 delta_qm =   0.371149E-03 delta_en =   0.238034E+00 tol =   0.100000E-04
 Iteration #          8
  pAp =   7.290653898762711E-004  rzold =   3.498499384865080E-004  alpha = 
  0.479860851090299     
 delta_qm =   0.191487E-03 delta_en =   0.633612E-01 tol =   0.100000E-04
 Iteration #          9
  pAp =   1.077003992238426E-003  rzold =   2.727208127879322E-004  alpha = 
  0.253221728752476     
 delta_qm =   0.136317E-03 delta_en =   0.321101E-01 tol =   0.100000E-04
 Iteration #         10
  pAp =   6.050836613952190E-004  rzold =   1.531852881357667E-004  alpha = 
  0.253163815037656     
 delta_qm =   0.583262E-04 delta_en =   0.587857E-02 tol =   0.100000E-04
 Iteration #         11
  pAp =   4.566946010931407E-005  rzold =   1.553154118948290E-005  alpha = 
  0.340085938224510     
 delta_qm =   0.349018E-04 delta_en =   0.210494E-02 tol =   0.100000E-04
 Iteration #         12
  pAp =   1.437005259122931E-005  rzold =   3.982081147688611E-006  alpha = 
  0.277109712884353     
 delta_qm =   0.232666E-04 delta_en =   0.935430E-03 tol =   0.100000E-04
 Iteration #         13
  pAp =   1.961640117321078E-006  rzold =   8.530809773981057E-007  alpha = 
  0.434881490170133     
 delta_qm =   0.136220E-04 delta_en =   0.320647E-03 tol =   0.100000E-04
 Iteration #         14
  pAp =   9.183025728612445E-007  rzold =   3.868026510905642E-007  alpha = 
  0.421214817993339     
 delta_qm =   0.924595E-05 delta_en =   0.147723E-03 tol =   0.100000E-04
 Iteration #         15
  pAp =   2.951697338318524E-007  rzold =   1.377698896969270E-007  alpha = 
  0.466748022937235     
 delta_qm =   0.529389E-05 delta_en =   0.484277E-04 tol =   0.100000E-04
 Iteration #         16
  pAp =   1.218298938216878E-007  rzold =   5.620260541004647E-008  alpha = 
  0.461320318413029     
 delta_qm =   0.298345E-05 delta_en =   0.153809E-04 tol =   0.100000E-04
 Iteration #         17
  pAp =   3.788651992957699E-008  rzold =   1.736586050990174E-008  alpha = 
  0.458365153151601     
 delta_qm =   0.160171E-05 delta_en =   0.443316E-05 tol =   0.100000E-04
 Charges are converged, EXIT

%%%% ELECTRONS %%%%%%%%%%%%%%%%%%%%%%%%%%%%%%%%%%%%%%%%%%%%%%%%%%%%%%%%%%%%%%%%%
 number of electrons        =         23
 total electronic charge    =     24.0000000
 number of spin components  =  1

%%%% BOUNDARY %%%%%%%%%%%%%%%%%%%%%%%%%%%%%%%%%%%%%%%%%%%%%%%%%%%%%%%%%%%%%%%%%%
 boundary mode              = electronic           
 boundary is built as a function of a smooth density
 function type              =  1 
 using the optimal SCCS function with parameters 
 rhomax                     =      0.0050000 
 rhomin                     =      0.0001000 
 volume of the QM region    =    589.8322471 
 surface of the QM region   =    366.6416718 

%%%% DIELECTRIC %%%%%%%%%%%%%%%%%%%%%%%%%%%%%%%%%%%%%%%%%%%%%%%%%%%%%%%%%%%%%%%%%
 dielectric build on homogeneous background
 environment bulk permitt.  =    100.0000000 
 dielectric flags
 need gradient              =  F 
 need factor depend. sqrt   =  T 
 total dielectric charge    =      0.9824215

%%%% COMPUTE ELECTROSTATIC POTENTIAL %%%%%%%%%%%%%%%%%%%%%%%%%%%%%%%%%%%%%%%%%%%
 Warning: bad guess with residual norm =   0.139383E+04, reset to no guess
 Iteration #          1
  pAp =    95.8691330532335       rzold =    93.2740165276510       alpha = 
  0.972930635305302     
 delta_qm =   0.276968E-01 delta_en =   0.132557E+04 tol =   0.100000E-04
 Iteration #          2
  pAp =    251.297131277728       rzold =    23.5291173495216       alpha = 
  9.363066434498114E-002
 delta_qm =   0.507391E-02 delta_en =   0.444866E+02 tol =   0.100000E-04
 Iteration #          3
  pAp =    1.73945622656749       rzold =   0.290084788368611       alpha = 
  0.166767512707716     
 delta_qm =   0.235968E-02 delta_en =   0.962162E+01 tol =   0.100000E-04
 Iteration #          4
  pAp =   0.139146866557317       rzold =   2.384135457918412E-002  alpha = 
  0.171339500263655     
 delta_qm =   0.188097E-02 delta_en =   0.611378E+01 tol =   0.100000E-04
 Iteration #          5
  pAp =   2.560764203378843E-002  rzold =   6.443455450791417E-003  alpha = 
  0.251622365006879     
 delta_qm =   0.128332E-02 delta_en =   0.284587E+01 tol =   0.100000E-04
 Iteration #          6
  pAp =   8.422310723369736E-003  rzold =   2.729246670134511E-003  alpha = 
  0.324049629582242     
 delta_qm =   0.748390E-03 delta_en =   0.967832E+00 tol =   0.100000E-04
 Iteration #          7
  pAp =   2.328842300060169E-003  rzold =   8.714824665744784E-004  alpha = 
  0.374212743624574     
 delta_qm =   0.527006E-03 delta_en =   0.479927E+00 tol =   0.100000E-04
 Iteration #          8
  pAp =   1.176146222212501E-003  rzold =   4.529225264241059E-004  alpha = 
  0.385090321143993     
 delta_qm =   0.307284E-03 delta_en =   0.163163E+00 tol =   0.100000E-04
 Iteration #          9
  pAp =   1.999110110349581E-003  rzold =   4.912011983654013E-004  alpha = 
  0.245709926543019     
 delta_qm =   0.235208E-03 delta_en =   0.955979E-01 tol =   0.100000E-04
 Iteration #         10
  pAp =   7.679355283041223E-004  rzold =   2.570263326242216E-004  alpha = 
  0.334697800988356     
 delta_qm =   0.982209E-04 delta_en =   0.166706E-01 tol =   0.100000E-04
 Iteration #         11
  pAp =   1.199187521160294E-004  rzold =   3.955598600021809E-005  alpha = 
  0.329856551225158     
 delta_qm =   0.616226E-04 delta_en =   0.656181E-02 tol =   0.100000E-04
 Iteration #         12
  pAp =   3.890740705059736E-005  rzold =   1.026964303510522E-005  alpha = 
  0.263950846730804     
 delta_qm =   0.435183E-04 delta_en =   0.327256E-02 tol =   0.100000E-04
 Iteration #         13
  pAp =   5.786512447269131E-006  rzold =   2.294775622604392E-006  alpha = 
  0.396573176592298     
 delta_qm =   0.275606E-04 delta_en =   0.131257E-02 tol =   0.100000E-04
 Iteration #         14
  pAp =   2.890739466806756E-006  rzold =   1.180308665319052E-006  alpha = 
  0.408306829056053     
 delta_qm =   0.192884E-04 delta_en =   0.642886E-03 tol =   0.100000E-04
 Iteration #         15
  pAp =   1.064088901610845E-006  rzold =   4.767990220462026E-007  alpha = 
  0.448081942518536     
 delta_qm =   0.109204E-04 delta_en =   0.206071E-03 tol =   0.100000E-04
 Iteration #         16
  pAp =   4.831844427000630E-007  rzold =   2.062699102812049E-007  alpha = 
  0.426896837010224     
 delta_qm =   0.656102E-05 delta_en =   0.743852E-04 tol =   0.100000E-04
 Iteration #         17
  pAp =   1.581866471082518E-007  rzold =   6.428272764142934E-008  alpha = 
  0.406372654181353     
 delta_qm =   0.373776E-05 delta_en =   0.241417E-04 tol =   0.100000E-04
 Iteration #         18
  pAp =   1.711451521884669E-007  rzold =   3.652397497667026E-008  alpha = 
  0.213409345865956     
 delta_qm =   0.250155E-05 delta_en =   0.108134E-04 tol =   0.100000E-04
 Iteration #         19
  pAp =   2.121487130006502E-008  rzold =   9.035961284503487E-009  alpha = 
  0.425925811978685     
 delta_qm =   0.163940E-05 delta_en =   0.464422E-05 tol =   0.100000E-04
 Charges are converged, EXIT

%%%% ELECTRONS %%%%%%%%%%%%%%%%%%%%%%%%%%%%%%%%%%%%%%%%%%%%%%%%%%%%%%%%%%%%%%%%%
 number of electrons        =         23
 total electronic charge    =     24.0000000
 number of spin components  =  1

%%%% BOUNDARY %%%%%%%%%%%%%%%%%%%%%%%%%%%%%%%%%%%%%%%%%%%%%%%%%%%%%%%%%%%%%%%%%%
 boundary mode              = electronic           
 boundary is built as a function of a smooth density
 function type              =  1 
 using the optimal SCCS function with parameters 
 rhomax                     =      0.0050000 
 rhomin                     =      0.0001000 
 volume of the QM region    =    589.8322471 
 surface of the QM region   =    366.6416718 

%%%% DIELECTRIC %%%%%%%%%%%%%%%%%%%%%%%%%%%%%%%%%%%%%%%%%%%%%%%%%%%%%%%%%%%%%%%%%
 dielectric build on homogeneous background
 environment bulk permitt.  =    100.0000000 
 dielectric flags
 need gradient              =  F 
 need factor depend. sqrt   =  T 
 total dielectric charge    =      0.9824044
