
     Program PWSCF v.6.7+ starts on 20Apr2021 at 12:38:54 

     This program is part of the open-source Quantum ESPRESSO suite
     for quantum simulation of materials; please cite
         "P. Giannozzi et al., J. Phys.:Condens. Matter 21 395502 (2009);
         "P. Giannozzi et al., J. Phys.:Condens. Matter 29 465901 (2017);
          URL http://www.quantum-espresso.org", 
     in publications or presentations arising from this work. More details at
     http://www.quantum-espresso.org/quote

     Parallel version (MPI), running on     1 processors

     MPI processes distributed on     1 nodes
     Reading input from charged.in

     Current dimensions of program PWSCF are:
     Max number of different atomic species (ntypx) = 10
     Max number of k-points (npk) =  40000
     Max angular momentum in pseudopotentials (lmaxx) =  3
     file C.pbe-rrkjus.UPF: wavefunction(s)  2S 2P renormalized
     file H.pbe-rrkjus.UPF: wavefunction(s)  1S renormalized
     file N.pbe-rrkjus.UPF: wavefunction(s)  2S renormalized
     file O.pbe-rrkjus.UPF: wavefunction(s)  2S renormalized

     gamma-point specific algorithms are used

     Subspace diagonalization in iterative solution of the eigenvalue problem:
     a serial algorithm will be used


     G-vector sticks info
     --------------------
     sticks:   dense  smooth     PW     G-vecs:    dense   smooth      PW
     Sum        9549    3809    949               701475   177509   22119



     bravais-lattice index     =            1
     lattice parameter (alat)  =      20.0000  a.u.
     unit-cell volume          =    8000.0000 (a.u.)^3
     number of atoms/cell      =           10
     number of atomic types    =            4
     number of electrons       =        24.00
     number of Kohn-Sham states=           12
     kinetic-energy cutoff     =      30.0000  Ry
     charge density cutoff     =     300.0000  Ry
     scf convergence threshold =      5.0E-06
     mixing beta               =       0.7000
     number of iterations used =            8  plain     mixing
     Exchange-correlation= SLA  PW   PBE  PBE
                           (   1   4   3   4   0   0   0)


     Environ Module
     ==============

     Plese cite
         O. Andreussi, I. Dabo and N. Marzari, J. Chem. Phys. 136, 064102 (2012)         
     in publications or presentations arising from this work.

     compensation onset threshold      =               0.1000E+03 
     static permittivity               =                   100.00 
     epsilon calculation mode          =                   system 

     Electrostatic Setup
     -------------------
     electrostatic problem to solve    = generalized              
     numerical solver adopted          = cg                       
     type of auxiliary density adopted = none                     
     type of core tool for poisson     = fft                      



     celldm(1)=  20.000000  celldm(2)=   0.000000  celldm(3)=   0.000000
     celldm(4)=   0.000000  celldm(5)=   0.000000  celldm(6)=   0.000000

     crystal axes: (cart. coord. in units of alat)
               a(1) = (   1.000000   0.000000   0.000000 )  
               a(2) = (   0.000000   1.000000   0.000000 )  
               a(3) = (   0.000000   0.000000   1.000000 )  

     reciprocal axes: (cart. coord. in units 2 pi/alat)
               b(1) = (  1.000000  0.000000  0.000000 )  
               b(2) = (  0.000000  1.000000  0.000000 )  
               b(3) = (  0.000000  0.000000  1.000000 )  


     PseudoPot. # 1 for C  read from file:
     /Users/gabrielmedrano/Desktop/q-e/Environ/tests/../..//pseudo/C.pbe-rrkjus.UPF
     MD5 check sum: c9ac5a99bc85b198593446162950cd17
     Pseudo is Ultrasoft, Zval =  4.0
     Generated by new atomic code, or converted to UPF format
     Using radial grid of  627 points,  4 beta functions with: 
                l(1) =   0
                l(2) =   0
                l(3) =   1
                l(4) =   1
     Q(r) pseudized with 0 coefficients 


     PseudoPot. # 2 for H  read from file:
     /Users/gabrielmedrano/Desktop/q-e/Environ/tests/../..//pseudo/H.pbe-rrkjus.UPF
     MD5 check sum: 2d52a7f45632fd764c17cc6affed14c8
     Pseudo is Ultrasoft, Zval =  1.0
     Generated by new atomic code, or converted to UPF format
     Using radial grid of 1061 points,  2 beta functions with: 
                l(1) =   0
                l(2) =   0
     Q(r) pseudized with 0 coefficients 


     PseudoPot. # 3 for N  read from file:
     /Users/gabrielmedrano/Desktop/q-e/Environ/tests/../..//pseudo/N.pbe-rrkjus.UPF
     MD5 check sum: 28c76d763763edb36c62a6ca2be9aebd
     Pseudo is Ultrasoft, Zval =  5.0
     Generated by new atomic code, or converted to UPF format
     Using radial grid of 1257 points,  4 beta functions with: 
                l(1) =   0
                l(2) =   0
                l(3) =   1
                l(4) =   1
     Q(r) pseudized with 0 coefficients 


     PseudoPot. # 4 for O  read from file:
     /Users/gabrielmedrano/Desktop/q-e/Environ/tests/../..//pseudo/O.pbe-rrkjus.UPF
     MD5 check sum: fadcf19ee70a498d3030e2e79cf929a4
     Pseudo is Ultrasoft, Zval =  6.0
     Generated by new atomic code, or converted to UPF format
     Using radial grid of 1269 points,  4 beta functions with: 
                l(1) =   0
                l(2) =   0
                l(3) =   1
                l(4) =   1
     Q(r) pseudized with 0 coefficients 


     atomic species   valence    mass     pseudopotential
        C              4.00    12.00000     C ( 1.00)
        H              1.00     1.00000     H ( 1.00)
        N              5.00    14.00000     N ( 1.00)
        O              6.00    16.00000     O ( 1.00)

     No symmetry found



   Cartesian axes

     site n.     atom                  positions (alat units)
         1           C   tau(   1) = (   0.0000000   0.0000000   0.0000000  )
         2           C   tau(   2) = (   0.0000000   0.0000000   0.1455089  )
         3           N   tau(   3) = (   0.1170969   0.0000000  -0.0545024  )
         4           H   tau(   4) = (   0.0476617  -0.0825466   0.1792090  )
         5           H   tau(   5) = (  -0.0953183  -0.0000030   0.1792090  )
         6           H   tau(   6) = (   0.0476566   0.0825496   0.1792090  )
         7           O   tau(   7) = (  -0.0984002  -0.0000019  -0.0641310  )
         8           H   tau(   8) = (   0.1263131  -0.0000015  -0.1475548  )
         9           H   tau(   9) = (   0.1944645   0.0000134  -0.0025716  )
        10           H   tau(  10) = (  -0.0770366  -0.0000045  -0.1522861  )

     number of k points=     1
                       cart. coord. in units 2pi/alat
        k(    1) = (   0.0000000   0.0000000   0.0000000), wk =   2.0000000

     Dense  grid:   350738 G-vectors     FFT dimensions: ( 120, 120, 120)

     Smooth grid:    88755 G-vectors     FFT dimensions: (  72,  72,  72)

     Estimated max dynamical RAM per process >     624.11 MB

     Initial potential from superposition of free atoms

     starting charge   24.42266, renormalised to   24.00000

     negative rho (up, down):  4.438E-04 0.000E+00
     Starting wfcs are   22 randomized atomic wfcs

     total cpu time spent up to now is        5.8 secs

     Self-consistent Calculation

     iteration #  1     ecut=    30.00 Ry     beta= 0.70
     Davidson diagonalization with overlap
     ethr =  1.00E-02,  avg # of iterations =  2.0

     negative rho (up, down):  1.234E-04 0.000E+00

     add environment contribution to local potential
     polarization accuracy = 5.5E-06, # of iterations =  13

     total cpu time spent up to now is       10.7 secs

     total energy              =     -80.29562589 Ry
     estimated scf accuracy    <       3.64924908 Ry
     electrostatic embedding   =       0.00000000 Ry
     correction to one-el term =      -0.00000000 Ry

     iteration #  2     ecut=    30.00 Ry     beta= 0.70
     Davidson diagonalization with overlap
     ethr =  1.00E-02,  avg # of iterations =  5.0

     negative rho (up, down):  6.338E-04 0.000E+00

     add environment contribution to local potential
     polarization accuracy = 8.6E-06, # of iterations =  13

     total cpu time spent up to now is       15.8 secs

     total energy              =     -81.11811632 Ry
     estimated scf accuracy    <       1.32122971 Ry
     electrostatic embedding   =      -0.27437776 Ry
     correction to one-el term =      -5.04308398 Ry

     iteration #  3     ecut=    30.00 Ry     beta= 0.70
     Davidson diagonalization with overlap
     ethr =  5.51E-03,  avg # of iterations =  4.0

     negative rho (up, down):  2.812E-04 0.000E+00

     add environment contribution to local potential
     polarization accuracy = 7.4E-06, # of iterations =  13

     total cpu time spent up to now is       20.9 secs

     total energy              =     -81.39299336 Ry
     estimated scf accuracy    <       0.16227394 Ry
     electrostatic embedding   =      -0.23913480 Ry
     correction to one-el term =      -4.57982577 Ry

     iteration #  4     ecut=    30.00 Ry     beta= 0.70
     Davidson diagonalization with overlap
     ethr =  6.76E-04,  avg # of iterations =  4.0

     negative rho (up, down):  7.463E-05 0.000E+00

     add environment contribution to local potential
     polarization accuracy = 7.6E-06, # of iterations =  13

     total cpu time spent up to now is       25.8 secs

     total energy              =     -81.43739954 Ry
     estimated scf accuracy    <       0.01566845 Ry
     electrostatic embedding   =      -0.19473973 Ry
     correction to one-el term =      -4.19826541 Ry

     iteration #  5     ecut=    30.00 Ry     beta= 0.70
     Davidson diagonalization with overlap
     ethr =  6.53E-05,  avg # of iterations =  4.0

     negative rho (up, down):  7.922E-05 0.000E+00

     add environment contribution to local potential
     polarization accuracy = 7.6E-06, # of iterations =  13

     total cpu time spent up to now is       30.9 secs

     total energy              =     -81.44107291 Ry
     estimated scf accuracy    <       0.00133724 Ry
     electrostatic embedding   =      -0.17499217 Ry
     correction to one-el term =      -3.87917272 Ry

     iteration #  6     ecut=    30.00 Ry     beta= 0.70
     Davidson diagonalization with overlap
     ethr =  5.57E-06,  avg # of iterations =  3.0

     negative rho (up, down):  1.125E-04 0.000E+00

     add environment contribution to local potential
     polarization accuracy = 7.7E-06, # of iterations =  13

     total cpu time spent up to now is       35.9 secs

     total energy              =     -81.44145810 Ry
     estimated scf accuracy    <       0.00017689 Ry
     electrostatic embedding   =      -0.17320681 Ry
     correction to one-el term =      -3.84226282 Ry

     iteration #  7     ecut=    30.00 Ry     beta= 0.70
     Davidson diagonalization with overlap
     ethr =  7.37E-07,  avg # of iterations =  2.0

     negative rho (up, down):  2.571E-04 0.000E+00

     add environment contribution to local potential
     polarization accuracy = 7.8E-06, # of iterations =  13

     total cpu time spent up to now is       40.8 secs

     total energy              =     -81.44149755 Ry
     estimated scf accuracy    <       0.00001051 Ry
     electrostatic embedding   =      -0.17263732 Ry
     correction to one-el term =      -3.82774081 Ry

     iteration #  8     ecut=    30.00 Ry     beta= 0.70
     Davidson diagonalization with overlap
     ethr =  4.38E-08,  avg # of iterations =  5.0

     negative rho (up, down):  2.797E-04 0.000E+00

     add environment contribution to local potential
     polarization accuracy = 7.8E-06, # of iterations =  13

     total cpu time spent up to now is       45.7 secs

     total energy              =     -81.44150734 Ry
     estimated scf accuracy    <       0.00000704 Ry
     electrostatic embedding   =      -0.17213081 Ry
     correction to one-el term =      -3.81854601 Ry

     iteration #  9     ecut=    30.00 Ry     beta= 0.70
     Davidson diagonalization with overlap
     ethr =  2.93E-08,  avg # of iterations =  3.0

     negative rho (up, down):  2.728E-04 0.000E+00

     the potential shift due to the Gaussian-smeared nuclei is    -0.0668 ev

     total cpu time spent up to now is       48.0 secs

     End of self-consistent calculation

          k = 0.0000 0.0000 0.0000 ( 11060 PWs)   bands (ev):

   -29.2801 -23.1866 -18.5397 -16.1110 -14.7023 -13.3913 -11.9001 -11.0185
    -9.4032  -9.3706  -9.0676  -7.5189

     highest occupied level (ev):    -7.5189

!    total energy              =     -81.44150531 Ry
     estimated scf accuracy    <       0.00000036 Ry

     The total energy is the sum of the following terms:
     one-electron contribution =    -241.93778934 Ry
     hartree contribution      =     123.07437629 Ry
     xc contribution           =     -22.89588291 Ry
     ewald contribution        =      64.30784069 Ry
     electrostatic embedding   =      -0.17212516 Ry
     correction to one-el term =      -3.81792488 Ry

     convergence has been achieved in   9 iterations
 forces lc
       1    0.0579    0.0000   -0.0337
       2    0.0235    0.0000    0.1090
       3    0.1361    0.0000   -0.1299
       4    0.0153   -0.0151    0.0670
       5   -0.0386   -0.0000    0.1026
       6    0.0153    0.0151    0.0670
       7    0.1110   -0.0000   -0.1949
       8    0.0619    0.0000   -0.0887
       9    0.0691    0.0000   -0.0181
      10   -0.0095   -0.0000   -0.0826

     Forces acting on atoms (cartesian axes, Ry/au):

     atom    1 type  1   force =     0.23396687    0.00000207    0.11273152
     atom    2 type  1   force =    -0.03838726    0.00000160   -0.09018382
     atom    3 type  3   force =    -0.15263070   -0.00000086    0.03675320
     atom    4 type  2   force =     0.02652472   -0.05043375    0.04498014
     atom    5 type  2   force =    -0.07789223   -0.00000196    0.07260065
     atom    6 type  2   force =     0.02652222    0.05043675    0.04498392
     atom    7 type  4   force =    -0.10964760   -0.00000861   -0.02570691
     atom    8 type  2   force =     0.04625709    0.00000137   -0.11628731
     atom    9 type  2   force =     0.08097697    0.00000443    0.02937033
     atom   10 type  2   force =    -0.03569008   -0.00000104   -0.10924172

     Total force =     0.415397     Total SCF correction =     0.000696

     Writing output data file /Users/gabrielmedrano/Desktop/q-e/Environ/tests/../..//tempdir/pwscf.save/

     init_run     :      5.26s CPU      5.74s WALL (       1 calls)
     electrons    :     43.40s CPU     42.25s WALL (       1 calls)
     forces       :      1.78s CPU      2.00s WALL (       1 calls)

     Called by init_run:
     wfcinit      :      0.13s CPU      0.13s WALL (       1 calls)
     potinit      :      1.07s CPU      1.15s WALL (       1 calls)
     hinit0       :      3.35s CPU      3.48s WALL (       1 calls)

     Called by electrons:
     c_bands      :      1.99s CPU      1.65s WALL (       9 calls)
     sum_band     :     11.30s CPU      6.99s WALL (       9 calls)
     v_of_rho     :      5.67s CPU      6.55s WALL (      10 calls)
     newd         :      3.85s CPU      5.42s WALL (      10 calls)
     mix_rho      :      0.72s CPU      0.81s WALL (       9 calls)

     Called by c_bands:
     init_us_2    :      0.07s CPU      0.07s WALL (      19 calls)
     regterg      :      1.90s CPU      1.56s WALL (       9 calls)

     Called by *egterg:
     rdiaghg      :      0.01s CPU      0.01s WALL (      41 calls)
     h_psi        :      1.67s CPU      1.53s WALL (      42 calls)
     s_psi        :      0.12s CPU      0.01s WALL (      42 calls)
     g_psi        :      0.01s CPU      0.01s WALL (      32 calls)

     Called by h_psi:
     h_psi:calbec :      0.05s CPU      0.04s WALL (      42 calls)
     vloc_psi     :      1.40s CPU      1.40s WALL (      42 calls)
     add_vuspsi   :      0.21s CPU      0.08s WALL (      42 calls)

     General routines
     calbec       :      0.07s CPU      0.06s WALL (      55 calls)
     fft          :     16.26s CPU     16.98s WALL (     393 calls)
     ffts         :      0.09s CPU      0.09s WALL (      19 calls)
     fftw         :      1.26s CPU      1.26s WALL (     406 calls)
     interpolate  :      0.46s CPU      0.52s WALL (      10 calls)

     Parallel routines
     fft_scatt_xy :      1.37s CPU      1.37s WALL (     279 calls)
     fft_scatt_yz :      1.76s CPU      1.77s WALL (     279 calls)

     Environ routines
     calc_eelect  :      0.04s CPU      0.04s WALL (      18 calls)
     calc_velect  :     16.20s CPU     17.14s WALL (      16 calls)
     dielectric   :      0.11s CPU      0.13s WALL (       2 calls)
     calc_felect  :      0.34s CPU      0.36s WALL (       1 calls)

     PWSCF        :     50.54s CPU     50.18s WALL


   This run was terminated on:  12:39:44  20Apr2021            

=------------------------------------------------------------------------------=
   JOB DONE.
=------------------------------------------------------------------------------=
 Calling electrostatic_initbase now
 electrolyte_distance:    0.0000000000000000     
 sc_distance:    0.0000000000000000     
 velectrostatic started
 vreference created

%%%% IONS %%%%%%%%%%%%%%%%%%%%%%%%%%%%%%%%%%%%%%%%%%%%%%%%%%%%%%%%%%%%%%%%%%%%%%
 number of ions             =         10
 ionic center of charge     =      0.0095530    -0.0000002     0.0063981
 total ionic charge         =    -25.0000000
 ionic dipole               =      0.0000000     0.0000000     0.0000000
 ionic quadrupole (pc)      =    -79.0828051    -5.4513517  -105.8059620
 ionic quadrupole (gauss)   =    -82.2078051    -8.5763517  -108.9309620
 ion   1 type =  1 coordinates =      0.0000000     0.0000000     0.0000000
 ion   2 type =  1 coordinates =      0.0000000     0.0000000     2.9101782
 ion   3 type =  3 coordinates =      2.3419379     0.0000000    -1.0900479
 ion   4 type =  2 coordinates =      0.9532347    -1.6509323     3.5841800
 ion   5 type =  2 coordinates =     -1.9063663    -0.0000596     3.5841809
 ion   6 type =  2 coordinates =      0.9531315     1.6509919     3.5841800
 ion   7 type =  4 coordinates =     -1.9680045    -0.0000375    -1.2826193
 ion   8 type =  2 coordinates =      2.5262613    -0.0000303    -2.9510950
 ion   9 type =  2 coordinates =      3.8892907     0.0002681    -0.0514326
 ion  10 type =  2 coordinates =     -1.5407317    -0.0000890    -3.0457220

%%%% SYSTEM %%%%%%%%%%%%%%%%%%%%%%%%%%%%%%%%%%%%%%%%%%%%%%%%%%%%%%%%%%%%%%%%%%%%
 system is built from all present ionic types
 system defined dimension   =  0 
 system defined axis        =  3 
 system center              =      0.0095530    -0.0000002     0.0063981 
 system width               =      0.2021425 

%%%% IONS %%%%%%%%%%%%%%%%%%%%%%%%%%%%%%%%%%%%%%%%%%%%%%%%%%%%%%%%%%%%%%%%%%%%%%
 number of ions             =         10
 ionic center of charge     =      0.0095530    -0.0000002     0.0063981
 total ionic charge         =    -25.0000000
 ionic dipole               =      0.0000000     0.0000000     0.0000000
 ionic quadrupole (pc)      =    -79.0828051    -5.4513517  -105.8059620
 ionic quadrupole (gauss)   =    -82.2078051    -8.5763517  -108.9309620
 ion   1 type =  1 coordinates =      0.0000000     0.0000000     0.0000000
 ion   2 type =  1 coordinates =      0.0000000     0.0000000     2.9101782
 ion   3 type =  3 coordinates =      2.3419379     0.0000000    -1.0900479
 ion   4 type =  2 coordinates =      0.9532347    -1.6509323     3.5841800
 ion   5 type =  2 coordinates =     -1.9063663    -0.0000596     3.5841809
 ion   6 type =  2 coordinates =      0.9531315     1.6509919     3.5841800
 ion   7 type =  4 coordinates =     -1.9680045    -0.0000375    -1.2826193
 ion   8 type =  2 coordinates =      2.5262613    -0.0000303    -2.9510950
 ion   9 type =  2 coordinates =      3.8892907     0.0002681    -0.0514326
 ion  10 type =  2 coordinates =     -1.5407317    -0.0000890    -3.0457220

%%%% SYSTEM %%%%%%%%%%%%%%%%%%%%%%%%%%%%%%%%%%%%%%%%%%%%%%%%%%%%%%%%%%%%%%%%%%%%
 system is built from all present ionic types
 system defined dimension   =  0 
 system defined axis        =  3 
 system center              =      0.0095530    -0.0000002     0.0063981 
 system width               =      0.2021425 

%%%% BOUNDARY %%%%%%%%%%%%%%%%%%%%%%%%%%%%%%%%%%%%%%%%%%%%%%%%%%%%%%%%%%%%%%%%%%
 boundary label             = solvent              
 boundary mode              = system               
 boundary is built as an analytic function centered on system position
 center of the boundary     =      0.0095530    -0.0000002     0.0063981 
 distance from the center   =      6.0000000 
 spread of the interface    =      0.5000000 
 dimensionality             =  0 
 axis                       =  3 
 volume of the QM region    =    914.2034622 
 surface of the QM region   =    453.9601384 

%%%% DIELECTRIC %%%%%%%%%%%%%%%%%%%%%%%%%%%%%%%%%%%%%%%%%%%%%%%%%%%%%%%%%%%%%%%%%
 dielectric build on homogeneous background
 environment bulk permitt.  =    100.0000000 
 dielectric flags
 need gradient              =  F 
 need factor depend. sqrt   =  T 
 total dielectric charge    =      0.0000000

%%%% ELECTRONS %%%%%%%%%%%%%%%%%%%%%%%%%%%%%%%%%%%%%%%%%%%%%%%%%%%%%%%%%%%%%%%%%
 number of electrons        =         24
 total electronic charge    =     24.0000000

%%%% ELECTRONS %%%%%%%%%%%%%%%%%%%%%%%%%%%%%%%%%%%%%%%%%%%%%%%%%%%%%%%%%%%%%%%%%
 number of electrons        =         24
 total electronic charge    =     24.0000000

%%%% DENSITY %%%%%%%%%%%%%%%%%%%%%%%%%%%%%%%%%%%%%%%%%%%%%%%%%%%%%%%%%%%%%%%%%%%
 density label              = dvtot                                                                           
 integral of density        =      0.000000000    

%%%% DENSITY %%%%%%%%%%%%%%%%%%%%%%%%%%%%%%%%%%%%%%%%%%%%%%%%%%%%%%%%%%%%%%%%%%%
 density label              = vreference                                                                      
 integral of density        =      0.000000000    

%%%% DENSITY %%%%%%%%%%%%%%%%%%%%%%%%%%%%%%%%%%%%%%%%%%%%%%%%%%%%%%%%%%%%%%%%%%%
 density label              = velectrostatic                                                                  
 integral of density        =      0.000000000    

%%%% CHARGES %%%%%%%%%%%%%%%%%%%%%%%%%%%%%%%%%%%%%%%%%%%%%%%%%%%%%%%%%%%%%%%%%%%
 total number of charges    =         34
 total charge               =     -1.0000000

%%%% ELECTRONS %%%%%%%%%%%%%%%%%%%%%%%%%%%%%%%%%%%%%%%%%%%%%%%%%%%%%%%%%%%%%%%%%
 number of electrons        =         24
 total electronic charge    =     24.0000000

%%%% ELECTRONS %%%%%%%%%%%%%%%%%%%%%%%%%%%%%%%%%%%%%%%%%%%%%%%%%%%%%%%%%%%%%%%%%
 number of electrons        =         24
 total electronic charge    =     24.0000000

%%%% DENSITY %%%%%%%%%%%%%%%%%%%%%%%%%%%%%%%%%%%%%%%%%%%%%%%%%%%%%%%%%%%%%%%%%%%
 density label              = vreference                                                                      
 integral of density        =    -0.2399915657E-11

%%%% COMPUTE ELECTROSTATIC POTENTIAL %%%%%%%%%%%%%%%%%%%%%%%%%%%%%%%%%%%%%%%%%%%
 Iteration #          1
  pAp =    93.638050387458904       rzold =    89.487131223920869       alpha =   0.95567059388397968     
 delta_qm =   0.216038E-01 delta_en =   0.806503E+03 tol =   0.100000E-04
 Iteration #          2
  pAp =    219.35593357891966       rzold =    26.154843567645788       alpha =   0.11923472112613641     
 delta_qm =   0.590500E-02 delta_en =   0.602537E+02 tol =   0.100000E-04
 Iteration #          3
  pAp =    4.4963633433140435       rzold =   0.88688416852548213       alpha =   0.19724477334427434     
 delta_qm =   0.247356E-02 delta_en =   0.105728E+02 tol =   0.100000E-04
 Iteration #          4
  pAp =   0.27853164211344139       rzold =    8.3478654360128329E-002  alpha =   0.29970976987285647     
 delta_qm =   0.130297E-02 delta_en =   0.293369E+01 tol =   0.100000E-04
 Iteration #          5
  pAp =    4.2497329495020948E-002  rzold =    1.0218264684892807E-002  alpha =   0.24044486574362264     
 delta_qm =   0.923462E-03 delta_en =   0.147361E+01 tol =   0.100000E-04
 Iteration #          6
  pAp =    1.7378281526658629E-002  rzold =    4.6426381358660373E-003  alpha =   0.26715173929851110     
 delta_qm =   0.571971E-03 delta_en =   0.565316E+00 tol =   0.100000E-04
 Iteration #          7
  pAp =    2.6251825972942091E-003  rzold =    1.1503056057469230E-003  alpha =   0.43818117906638177     
 delta_qm =   0.302991E-03 delta_en =   0.158637E+00 tol =   0.100000E-04
 Iteration #          8
  pAp =    4.5958104404230082E-004  rzold =    2.6168454891300341E-004  alpha =   0.56939804699368191     
 delta_qm =   0.173090E-03 delta_en =   0.517713E-01 tol =   0.100000E-04
 Iteration #          9
  pAp =    1.7064643435084321E-004  rzold =    1.0878312685805254E-004  alpha =   0.63747670598494999     
 delta_qm =   0.694753E-04 delta_en =   0.834074E-02 tol =   0.100000E-04
 Iteration #         10
  pAp =    1.0868607195883494E-004  rzold =    3.7616767088087705E-005  alpha =   0.34610476218457070     
 delta_qm =   0.326128E-04 delta_en =   0.183789E-02 tol =   0.100000E-04
 Iteration #         11
  pAp =    3.6524124142108829E-005  rzold =    1.0729398916991884E-005  alpha =   0.29376197702224738     
 delta_qm =   0.146072E-04 delta_en =   0.368706E-03 tol =   0.100000E-04
 Iteration #         12
  pAp =    1.5301752547327947E-006  rzold =    7.6182629967243675E-007  alpha =   0.49786865740778818     
 delta_qm =   0.570077E-05 delta_en =   0.561580E-04 tol =   0.100000E-04
 Iteration #         13
  pAp =    1.7573556470674961E-007  rzold =    1.0041243151161703E-007  alpha =   0.57138366772357951     
 delta_qm =   0.179166E-05 delta_en =   0.554698E-05 tol =   0.100000E-04
 Charges are converged, EXIT

%%%% DENSITY %%%%%%%%%%%%%%%%%%%%%%%%%%%%%%%%%%%%%%%%%%%%%%%%%%%%%%%%%%%%%%%%%%%
 density label              = velectrostatic                                                                  
 integral of density        =     0.1243559987E-10

%%%% CHARGES %%%%%%%%%%%%%%%%%%%%%%%%%%%%%%%%%%%%%%%%%%%%%%%%%%%%%%%%%%%%%%%%%%%
 total number of charges    =         34
 total charge               =     -1.0000000

%%%% DENSITY %%%%%%%%%%%%%%%%%%%%%%%%%%%%%%%%%%%%%%%%%%%%%%%%%%%%%%%%%%%%%%%%%%%
 density label              = dvtot                                                                           
 integral of density        =     0.6553360735E-11

%%%% ELECTRONS %%%%%%%%%%%%%%%%%%%%%%%%%%%%%%%%%%%%%%%%%%%%%%%%%%%%%%%%%%%%%%%%%
 number of electrons        =         24
 total electronic charge    =     24.0000000

%%%% ELECTRONS %%%%%%%%%%%%%%%%%%%%%%%%%%%%%%%%%%%%%%%%%%%%%%%%%%%%%%%%%%%%%%%%%
 number of electrons        =         24
 total electronic charge    =     24.0000000

%%%% DENSITY %%%%%%%%%%%%%%%%%%%%%%%%%%%%%%%%%%%%%%%%%%%%%%%%%%%%%%%%%%%%%%%%%%%
 density label              = vreference                                                                      
 integral of density        =    -0.8291145548E-12

%%%% COMPUTE ELECTROSTATIC POTENTIAL %%%%%%%%%%%%%%%%%%%%%%%%%%%%%%%%%%%%%%%%%%%
 Warning: bad guess with residual norm =   0.796491E+03, reset to no guess
 Iteration #          1
  pAp =    96.751713268160998       rzold =    92.964565190441405       alpha =   0.96085704376910641     
 delta_qm =   0.208161E-01 delta_en =   0.748762E+03 tol =   0.100000E-04
 Iteration #          2
  pAp =    198.02541199534036       rzold =    23.818502567463433       alpha =   0.12028003036309247     
 delta_qm =   0.565436E-02 delta_en =   0.552472E+02 tol =   0.100000E-04
 Iteration #          3
  pAp =    4.5082472088494150       rzold =   0.84978048568228703       alpha =   0.18849465131686205     
 delta_qm =   0.232926E-02 delta_en =   0.937517E+01 tol =   0.100000E-04
 Iteration #          4
  pAp =   0.27037697618221374       rzold =    7.3919127279042693E-002  alpha =   0.27339283219598831     
 delta_qm =   0.141806E-02 delta_en =   0.347483E+01 tol =   0.100000E-04
 Iteration #          5
  pAp =    9.0459154490324656E-002  rzold =    1.7237751421831871E-002  alpha =   0.19055839642714756     
 delta_qm =   0.977155E-03 delta_en =   0.164995E+01 tol =   0.100000E-04
 Iteration #          6
  pAp =    1.1715308768613927E-002  rzold =    4.1961592725282878E-003  alpha =   0.35817743735189217     
 delta_qm =   0.571813E-03 delta_en =   0.565005E+00 tol =   0.100000E-04
 Iteration #          7
  pAp =    2.3183913972884026E-003  rzold =    1.0788379626719840E-003  alpha =   0.46533901218482610     
 delta_qm =   0.302536E-03 delta_en =   0.158160E+00 tol =   0.100000E-04
 Iteration #          8
  pAp =    4.5540897406878139E-004  rzold =    2.5938744995851877E-004  alpha =   0.56957035264602174     
 delta_qm =   0.173334E-03 delta_en =   0.519172E-01 tol =   0.100000E-04
 Iteration #          9
  pAp =    2.2295322571474493E-004  rzold =    1.1921465239565146E-004  alpha =   0.53470700867176213     
 delta_qm =   0.812908E-04 delta_en =   0.114190E-01 tol =   0.100000E-04
 Iteration #         10
  pAp =    2.0211491112931385E-004  rzold =    6.1307998853525703E-005  alpha =   0.30333238904031490     
 delta_qm =   0.363375E-04 delta_en =   0.228167E-02 tol =   0.100000E-04
 Iteration #         11
  pAp =    2.5810785743533926E-005  rzold =    1.0196825363947567E-005  alpha =   0.39506063338277325     
 delta_qm =   0.141419E-04 delta_en =   0.345588E-03 tol =   0.100000E-04
 Iteration #         12
  pAp =    1.2652207136521125E-006  rzold =    6.6823081536432432E-007  alpha =   0.52815355309465972     
 delta_qm =   0.554727E-05 delta_en =   0.531743E-04 tol =   0.100000E-04
 Iteration #         13
  pAp =    1.6650003413332540E-007  rzold =    9.7033926702074220E-008  alpha =   0.58278622708493866     
 delta_qm =   0.223637E-05 delta_en =   0.864232E-05 tol =   0.100000E-04
 Charges are converged, EXIT

%%%% DENSITY %%%%%%%%%%%%%%%%%%%%%%%%%%%%%%%%%%%%%%%%%%%%%%%%%%%%%%%%%%%%%%%%%%%
 density label              = velectrostatic                                                                  
 integral of density        =    -0.5037970041E-11

%%%% CHARGES %%%%%%%%%%%%%%%%%%%%%%%%%%%%%%%%%%%%%%%%%%%%%%%%%%%%%%%%%%%%%%%%%%%
 total number of charges    =         34
 total charge               =     -1.0000000

%%%% DENSITY %%%%%%%%%%%%%%%%%%%%%%%%%%%%%%%%%%%%%%%%%%%%%%%%%%%%%%%%%%%%%%%%%%%
 density label              = dvtot                                                                           
 integral of density        =    -0.1321951807E-11

%%%% ELECTRONS %%%%%%%%%%%%%%%%%%%%%%%%%%%%%%%%%%%%%%%%%%%%%%%%%%%%%%%%%%%%%%%%%
 number of electrons        =         24
 total electronic charge    =     24.0000000

%%%% ELECTRONS %%%%%%%%%%%%%%%%%%%%%%%%%%%%%%%%%%%%%%%%%%%%%%%%%%%%%%%%%%%%%%%%%
 number of electrons        =         24
 total electronic charge    =     24.0000000

%%%% DENSITY %%%%%%%%%%%%%%%%%%%%%%%%%%%%%%%%%%%%%%%%%%%%%%%%%%%%%%%%%%%%%%%%%%%
 density label              = vreference                                                                      
 integral of density        =    -0.4262409356E-11

%%%% COMPUTE ELECTROSTATIC POTENTIAL %%%%%%%%%%%%%%%%%%%%%%%%%%%%%%%%%%%%%%%%%%%
 Warning: bad guess with residual norm =   0.640360E+03, reset to no guess
 Iteration #          1
  pAp =    96.796136175064433       rzold =    93.705379115153676       alpha =   0.96806941700316584     
 delta_qm =   0.187767E-01 delta_en =   0.609233E+03 tol =   0.100000E-04
 Iteration #          2
  pAp =    163.05088648053527       rzold =    19.533677178827521       alpha =   0.11980110995078470     
 delta_qm =   0.528923E-02 delta_en =   0.483425E+02 tol =   0.100000E-04
 Iteration #          3
  pAp =    3.8879962498297975       rzold =   0.73535703779686235       alpha =   0.18913522301598248     
 delta_qm =   0.221474E-02 delta_en =   0.847599E+01 tol =   0.100000E-04
 Iteration #          4
  pAp =   0.21967647401515694       rzold =    6.3027270807653857E-002  alpha =   0.28690951586971114     
 delta_qm =   0.131070E-02 delta_en =   0.296860E+01 tol =   0.100000E-04
 Iteration #          5
  pAp =    6.1768683683927399E-002  rzold =    1.2411108314906627E-002  alpha =   0.20092881335167703     
 delta_qm =   0.930514E-03 delta_en =   0.149620E+01 tol =   0.100000E-04
 Iteration #          6
  pAp =    1.1960052026046034E-002  rzold =    3.9514298537609571E-003  alpha =   0.33038567433951965     
 delta_qm =   0.556958E-03 delta_en =   0.536029E+00 tol =   0.100000E-04
 Iteration #          7
  pAp =    2.1545298709052156E-003  rzold =    1.0050829809369764E-003  alpha =   0.46649758469799979     
 delta_qm =   0.295774E-03 delta_en =   0.151169E+00 tol =   0.100000E-04
 Iteration #          8
  pAp =    4.3070339566751763E-004  rzold =    2.5139992135014393E-004  alpha =   0.58369616742983055     
 delta_qm =   0.164875E-03 delta_en =   0.469733E-01 tol =   0.100000E-04
 Iteration #          9
  pAp =    1.9117935475830445E-004  rzold =    1.0976587619580321E-004  alpha =   0.57415130590106356     
 delta_qm =   0.693528E-04 delta_en =   0.831135E-02 tol =   0.100000E-04
 Iteration #         10
  pAp =    1.5282664561401074E-004  rzold =    4.5217661505115365E-005  alpha =   0.29587550864212603     
 delta_qm =   0.331488E-04 delta_en =   0.189880E-02 tol =   0.100000E-04
 Iteration #         11
  pAp =    2.5943927442373600E-005  rzold =    9.3284005426692272E-006  alpha =   0.35956007676129143     
 delta_qm =   0.135048E-04 delta_en =   0.315151E-03 tol =   0.100000E-04
 Iteration #         12
  pAp =    1.1649702112181501E-006  rzold =    6.1028173818604913E-007  alpha =   0.52386038055677708     
 delta_qm =   0.529804E-05 delta_en =   0.485037E-04 tol =   0.100000E-04
 Iteration #         13
  pAp =    1.4795888211931939E-007  rzold =    8.5948554817886207E-008  alpha =   0.58089486475421048     
 delta_qm =   0.207520E-05 delta_en =   0.744159E-05 tol =   0.100000E-04
 Charges are converged, EXIT

%%%% DENSITY %%%%%%%%%%%%%%%%%%%%%%%%%%%%%%%%%%%%%%%%%%%%%%%%%%%%%%%%%%%%%%%%%%%
 density label              = velectrostatic                                                                  
 integral of density        =     0.4022354466E-11

%%%% CHARGES %%%%%%%%%%%%%%%%%%%%%%%%%%%%%%%%%%%%%%%%%%%%%%%%%%%%%%%%%%%%%%%%%%%
 total number of charges    =         34
 total charge               =     -1.0000000

%%%% DENSITY %%%%%%%%%%%%%%%%%%%%%%%%%%%%%%%%%%%%%%%%%%%%%%%%%%%%%%%%%%%%%%%%%%%
 density label              = dvtot                                                                           
 integral of density        =     0.5361112788E-12

%%%% ELECTRONS %%%%%%%%%%%%%%%%%%%%%%%%%%%%%%%%%%%%%%%%%%%%%%%%%%%%%%%%%%%%%%%%%
 number of electrons        =         24
 total electronic charge    =     24.0000000

%%%% ELECTRONS %%%%%%%%%%%%%%%%%%%%%%%%%%%%%%%%%%%%%%%%%%%%%%%%%%%%%%%%%%%%%%%%%
 number of electrons        =         24
 total electronic charge    =     24.0000000

%%%% DENSITY %%%%%%%%%%%%%%%%%%%%%%%%%%%%%%%%%%%%%%%%%%%%%%%%%%%%%%%%%%%%%%%%%%%
 density label              = vreference                                                                      
 integral of density        =    -0.1916713701E-11

%%%% COMPUTE ELECTROSTATIC POTENTIAL %%%%%%%%%%%%%%%%%%%%%%%%%%%%%%%%%%%%%%%%%%%
 Warning: bad guess with residual norm =   0.560685E+03, reset to no guess
 Iteration #          1
  pAp =    96.325707283837900       rzold =    93.612631742642634       alpha =   0.97183435639667004     
 delta_qm =   0.176234E-01 delta_en =   0.536687E+03 tol =   0.100000E-04
 Iteration #          2
  pAp =    141.63491179361023       rzold =    17.025547961719930       alpha =   0.12020728326169669     
 delta_qm =   0.508718E-02 delta_en =   0.447196E+02 tol =   0.100000E-04
 Iteration #          3
  pAp =    3.5855957108944203       rzold =   0.67821200787077962       alpha =   0.18914904594796073     
 delta_qm =   0.213655E-02 delta_en =   0.788803E+01 tol =   0.100000E-04
 Iteration #          4
  pAp =   0.21559745749398607       rzold =    6.0750054621655128E-002  alpha =   0.28177537586847334     
 delta_qm =   0.127842E-02 delta_en =   0.282416E+01 tol =   0.100000E-04
 Iteration #          5
  pAp =    6.2843968116484697E-002  rzold =    1.2370051126544081E-002  alpha =   0.19683752470269733     
 delta_qm =   0.901546E-03 delta_en =   0.140449E+01 tol =   0.100000E-04
 Iteration #          6
  pAp =    1.0783820075569916E-002  rzold =    3.6666582221271523E-003  alpha =   0.34001478107315070     
 delta_qm =   0.540259E-03 delta_en =   0.504368E+00 tol =   0.100000E-04
 Iteration #          7
  pAp =    2.0029905522682282E-003  rzold =    9.3936596173937765E-004  alpha =   0.46898172369091812     
 delta_qm =   0.288075E-03 delta_en =   0.143402E+00 tol =   0.100000E-04
 Iteration #          8
  pAp =    4.1387562920495779E-004  rzold =    2.3933964010617640E-004  alpha =   0.57828879793173715     
 delta_qm =   0.161024E-03 delta_en =   0.448050E-01 tol =   0.100000E-04
 Iteration #          9
  pAp =    1.8112970997864487E-004  rzold =    1.0348660616400186E-004  alpha =   0.57133976627138039     
 delta_qm =   0.684656E-04 delta_en =   0.810007E-02 tol =   0.100000E-04
 Iteration #         10
  pAp =    1.4701184726197429E-004  rzold =    4.3663274548299187E-005  alpha =   0.29700514184065369     
 delta_qm =   0.325510E-04 delta_en =   0.183093E-02 tol =   0.100000E-04
 Iteration #         11
  pAp =    2.4808968753267943E-005  rzold =    8.9895779516775489E-006  alpha =   0.36235193977957680     
 delta_qm =   0.131350E-04 delta_en =   0.298127E-03 tol =   0.100000E-04
 Iteration #         12
  pAp =    1.1258596070326362E-006  rzold =    5.8823448548973559E-007  alpha =   0.52247587693470199     
 delta_qm =   0.520691E-05 delta_en =   0.468494E-04 tol =   0.100000E-04
 Iteration #         13
  pAp =    1.4012815821854767E-007  rzold =    8.2133817431474663E-008  alpha =   0.58613356855355603     
 delta_qm =   0.209445E-05 delta_en =   0.758025E-05 tol =   0.100000E-04
 Charges are converged, EXIT

%%%% DENSITY %%%%%%%%%%%%%%%%%%%%%%%%%%%%%%%%%%%%%%%%%%%%%%%%%%%%%%%%%%%%%%%%%%%
 density label              = velectrostatic                                                                  
 integral of density        =    -0.6459055513E-11

%%%% CHARGES %%%%%%%%%%%%%%%%%%%%%%%%%%%%%%%%%%%%%%%%%%%%%%%%%%%%%%%%%%%%%%%%%%%
 total number of charges    =         34
 total charge               =     -1.0000000

%%%% DENSITY %%%%%%%%%%%%%%%%%%%%%%%%%%%%%%%%%%%%%%%%%%%%%%%%%%%%%%%%%%%%%%%%%%%
 density label              = dvtot                                                                           
 integral of density        =    -0.5220915264E-11

%%%% ELECTRONS %%%%%%%%%%%%%%%%%%%%%%%%%%%%%%%%%%%%%%%%%%%%%%%%%%%%%%%%%%%%%%%%%
 number of electrons        =         24
 total electronic charge    =     24.0000000

%%%% ELECTRONS %%%%%%%%%%%%%%%%%%%%%%%%%%%%%%%%%%%%%%%%%%%%%%%%%%%%%%%%%%%%%%%%%
 number of electrons        =         24
 total electronic charge    =     24.0000000

%%%% DENSITY %%%%%%%%%%%%%%%%%%%%%%%%%%%%%%%%%%%%%%%%%%%%%%%%%%%%%%%%%%%%%%%%%%%
 density label              = vreference                                                                      
 integral of density        =     0.5586074813E-11

%%%% COMPUTE ELECTROSTATIC POTENTIAL %%%%%%%%%%%%%%%%%%%%%%%%%%%%%%%%%%%%%%%%%%%
 Warning: bad guess with residual norm =   0.550991E+03, reset to no guess
 Iteration #          1
  pAp =    96.301586567330645       rzold =    93.632269079510451       alpha =   0.97228168732242115     
 delta_qm =   0.174768E-01 delta_en =   0.527795E+03 tol =   0.100000E-04
 Iteration #          2
  pAp =    138.87936873788550       rzold =    16.708523209044564       alpha =   0.12030961373808848     
 delta_qm =   0.507943E-02 delta_en =   0.445834E+02 tol =   0.100000E-04
 Iteration #          3
  pAp =    3.5717610631471204       rzold =   0.67614457431316988       alpha =   0.18930285715064349     
 delta_qm =   0.213297E-02 delta_en =   0.786163E+01 tol =   0.100000E-04
 Iteration #          4
  pAp =   0.21541142612653577       rzold =    6.0855561963429408E-002  alpha =   0.28250851432403579     
 delta_qm =   0.126971E-02 delta_en =   0.278581E+01 tol =   0.100000E-04
 Iteration #          5
  pAp =    6.1208092624647360E-002  rzold =    1.2109652709794293E-002  alpha =   0.19784398092676328     
 delta_qm =   0.895772E-03 delta_en =   0.138656E+01 tol =   0.100000E-04
 Iteration #          6
  pAp =    1.0903404789831646E-002  rzold =    3.6673343850393489E-003  alpha =   0.33634763229733988     
 delta_qm =   0.538636E-03 delta_en =   0.501342E+00 tol =   0.100000E-04
 Iteration #          7
  pAp =    1.9964583210458522E-003  rzold =    9.3530811919450446E-004  alpha =   0.46848366897263338     
 delta_qm =   0.287206E-03 delta_en =   0.142538E+00 tol =   0.100000E-04
 Iteration #          8
  pAp =    4.1090482242699946E-004  rzold =    2.3760361590633951E-004  alpha =   0.57824489501714649     
 delta_qm =   0.160611E-03 delta_en =   0.445755E-01 tol =   0.100000E-04
 Iteration #          9
  pAp =    1.7593472824018228E-004  rzold =    1.0187845010066558E-004  alpha =   0.57906958517924512     
 delta_qm =   0.675312E-04 delta_en =   0.788049E-02 tol =   0.100000E-04
 Iteration #         10
  pAp =    1.4018549487065186E-004  rzold =    4.1918855111387299E-005  alpha =   0.29902419754672566     
 delta_qm =   0.323138E-04 delta_en =   0.180435E-02 tol =   0.100000E-04
 Iteration #         11
  pAp =    2.5307127287899588E-005  rzold =    9.0122513702239247E-006  alpha =   0.35611514763009333     
 delta_qm =   0.131287E-04 delta_en =   0.297841E-03 tol =   0.100000E-04
 Iteration #         12
  pAp =    1.1331293515180791E-006  rzold =    5.9072863323778524E-007  alpha =   0.52132497710554637     
 delta_qm =   0.521839E-05 delta_en =   0.470562E-04 tol =   0.100000E-04
 Iteration #         13
  pAp =    1.4017770337634088E-007  rzold =    8.2284415250619745E-008  alpha =   0.58700073741190761     
 delta_qm =   0.210269E-05 delta_en =   0.764003E-05 tol =   0.100000E-04
 Charges are converged, EXIT

%%%% DENSITY %%%%%%%%%%%%%%%%%%%%%%%%%%%%%%%%%%%%%%%%%%%%%%%%%%%%%%%%%%%%%%%%%%%
 density label              = velectrostatic                                                                  
 integral of density        =     0.1133348559E-11

%%%% CHARGES %%%%%%%%%%%%%%%%%%%%%%%%%%%%%%%%%%%%%%%%%%%%%%%%%%%%%%%%%%%%%%%%%%%
 total number of charges    =         34
 total charge               =     -1.0000000

%%%% DENSITY %%%%%%%%%%%%%%%%%%%%%%%%%%%%%%%%%%%%%%%%%%%%%%%%%%%%%%%%%%%%%%%%%%%
 density label              = dvtot                                                                           
 integral of density        =     0.2026685404E-11

%%%% ELECTRONS %%%%%%%%%%%%%%%%%%%%%%%%%%%%%%%%%%%%%%%%%%%%%%%%%%%%%%%%%%%%%%%%%
 number of electrons        =         24
 total electronic charge    =     24.0000000

%%%% ELECTRONS %%%%%%%%%%%%%%%%%%%%%%%%%%%%%%%%%%%%%%%%%%%%%%%%%%%%%%%%%%%%%%%%%
 number of electrons        =         24
 total electronic charge    =     24.0000000

%%%% DENSITY %%%%%%%%%%%%%%%%%%%%%%%%%%%%%%%%%%%%%%%%%%%%%%%%%%%%%%%%%%%%%%%%%%%
 density label              = vreference                                                                      
 integral of density        =    -0.5246239657E-11

%%%% COMPUTE ELECTROSTATIC POTENTIAL %%%%%%%%%%%%%%%%%%%%%%%%%%%%%%%%%%%%%%%%%%%
 Warning: bad guess with residual norm =   0.548543E+03, reset to no guess
 Iteration #          1
  pAp =    96.278826552912193       rzold =    93.620051265289334       alpha =   0.97238463135857112     
 delta_qm =   0.174394E-01 delta_en =   0.525543E+03 tol =   0.100000E-04
 Iteration #          2
  pAp =    138.21568109385464       rzold =    16.631850415683118       alpha =   0.12033258660708221     
 delta_qm =   0.507789E-02 delta_en =   0.445564E+02 tol =   0.100000E-04
 Iteration #          3
  pAp =    3.5653948561763524       rzold =   0.67525522664310222       alpha =   0.18939142896707611     
 delta_qm =   0.213420E-02 delta_en =   0.787071E+01 tol =   0.100000E-04
 Iteration #          4
  pAp =   0.21589607174724401       rzold =    6.0982691775721423E-002  alpha =   0.28246318370774104     
 delta_qm =   0.126978E-02 delta_en =   0.278615E+01 tol =   0.100000E-04
 Iteration #          5
  pAp =    6.1138451548414692E-002  rzold =    1.2098473801595516E-002  alpha =   0.19788649360893451     
 delta_qm =   0.895955E-03 delta_en =   0.138713E+01 tol =   0.100000E-04
 Iteration #          6
  pAp =    1.0913952398301764E-002  rzold =    3.6699538528409139E-003  alpha =   0.33626258562498101     
 delta_qm =   0.538940E-03 delta_en =   0.501908E+00 tol =   0.100000E-04
 Iteration #          7
  pAp =    1.9984504884957080E-003  rzold =    9.3617419693476007E-004  alpha =   0.46845003282490411     
 delta_qm =   0.287379E-03 delta_en =   0.142710E+00 tol =   0.100000E-04
 Iteration #          8
  pAp =    4.1161275962472543E-004  rzold =    2.3798577270381694E-004  alpha =   0.57817880310802983     
 delta_qm =   0.160685E-03 delta_en =   0.446162E-01 tol =   0.100000E-04
 Iteration #          9
  pAp =    1.7554020718819782E-004  rzold =    1.0188724313561709E-004  alpha =   0.58042111700587828     
 delta_qm =   0.673783E-04 delta_en =   0.784484E-02 tol =   0.100000E-04
 Iteration #         10
  pAp =    1.3896821334842728E-004  rzold =    4.1623057243318556E-005  alpha =   0.29951494834980269     
 delta_qm =   0.322826E-04 delta_en =   0.180086E-02 tol =   0.100000E-04
 Iteration #         11
  pAp =    2.5463887537974433E-005  rzold =    9.0305652144818921E-006  alpha =   0.35464204752768252     
 delta_qm =   0.131437E-04 delta_en =   0.298523E-03 tol =   0.100000E-04
 Iteration #         12
  pAp =    1.1366245730803529E-006  rzold =    5.9232991552088505E-007  alpha =   0.52113066138946718     
 delta_qm =   0.523219E-05 delta_en =   0.473054E-04 tol =   0.100000E-04
 Iteration #         13
  pAp =    1.4048207671037237E-007  rzold =    8.2547274040046559E-008  alpha =   0.58760004103748953     
 delta_qm =   0.211305E-05 delta_en =   0.771545E-05 tol =   0.100000E-04
 Charges are converged, EXIT

%%%% DENSITY %%%%%%%%%%%%%%%%%%%%%%%%%%%%%%%%%%%%%%%%%%%%%%%%%%%%%%%%%%%%%%%%%%%
 density label              = velectrostatic                                                                  
 integral of density        =    -0.1461343803E-10

%%%% CHARGES %%%%%%%%%%%%%%%%%%%%%%%%%%%%%%%%%%%%%%%%%%%%%%%%%%%%%%%%%%%%%%%%%%%
 total number of charges    =         34
 total charge               =     -1.0000000

%%%% DENSITY %%%%%%%%%%%%%%%%%%%%%%%%%%%%%%%%%%%%%%%%%%%%%%%%%%%%%%%%%%%%%%%%%%%
 density label              = dvtot                                                                           
 integral of density        =    -0.1586365401E-10

%%%% ELECTRONS %%%%%%%%%%%%%%%%%%%%%%%%%%%%%%%%%%%%%%%%%%%%%%%%%%%%%%%%%%%%%%%%%
 number of electrons        =         24
 total electronic charge    =     24.0000000

%%%% ELECTRONS %%%%%%%%%%%%%%%%%%%%%%%%%%%%%%%%%%%%%%%%%%%%%%%%%%%%%%%%%%%%%%%%%
 number of electrons        =         24
 total electronic charge    =     24.0000000

%%%% DENSITY %%%%%%%%%%%%%%%%%%%%%%%%%%%%%%%%%%%%%%%%%%%%%%%%%%%%%%%%%%%%%%%%%%%
 density label              = vreference                                                                      
 integral of density        =     0.5073776790E-11

%%%% COMPUTE ELECTROSTATIC POTENTIAL %%%%%%%%%%%%%%%%%%%%%%%%%%%%%%%%%%%%%%%%%%%
 Warning: bad guess with residual norm =   0.546692E+03, reset to no guess
 Iteration #          1
  pAp =    96.283006456639086       rzold =    93.632458639127279       alpha =   0.97247128112160186     
 delta_qm =   0.174112E-01 delta_en =   0.523846E+03 tol =   0.100000E-04
 Iteration #          2
  pAp =    137.76768783128017       rzold =    16.578128002434763       alpha =   0.12033393507146235     
 delta_qm =   0.507364E-02 delta_en =   0.444818E+02 tol =   0.100000E-04
 Iteration #          3
  pAp =    3.5561554197081549       rzold =   0.67372492186360922       alpha =   0.18945317128993766     
 delta_qm =   0.213369E-02 delta_en =   0.786694E+01 tol =   0.100000E-04
 Iteration #          4
  pAp =   0.21592573510676119       rzold =    6.0965561643462375E-002  alpha =   0.28234504614894040     
 delta_qm =   0.126990E-02 delta_en =   0.278665E+01 tol =   0.100000E-04
 Iteration #          5
  pAp =    6.1117747477027091E-002  rzold =    1.2093776541564764E-002  alpha =   0.19787667315636209     
 delta_qm =   0.896004E-03 delta_en =   0.138728E+01 tol =   0.100000E-04
 Iteration #          6
  pAp =    1.0903354223897594E-002  rzold =    3.6679524016429385E-003  alpha =   0.33640587348832962     
 delta_qm =   0.539069E-03 delta_en =   0.502150E+00 tol =   0.100000E-04
 Iteration #          7
  pAp =    1.9981710760525544E-003  rzold =    9.3618480317339558E-004  alpha =   0.46852084608433836     
 delta_qm =   0.287453E-03 delta_en =   0.142783E+00 tol =   0.100000E-04
 Iteration #          8
  pAp =    4.1197245539743345E-004  rzold =    2.3820651631707333E-004  alpha =   0.57820981280720185     
 delta_qm =   0.160681E-03 delta_en =   0.446140E-01 tol =   0.100000E-04
 Iteration #          9
  pAp =    1.7554145262439985E-004  rzold =    1.0193084962432186E-004  alpha =   0.58066541036560682     
 delta_qm =   0.673085E-04 delta_en =   0.782859E-02 tol =   0.100000E-04
 Iteration #         10
  pAp =    1.3856318722076273E-004  rzold =    4.1518185736452211E-005  alpha =   0.29963359366369280     
 delta_qm =   0.322618E-04 delta_en =   0.179855E-02 tol =   0.100000E-04
 Iteration #         11
  pAp =    2.5496231116057523E-005  rzold =    9.0302680909112921E-006  alpha =   0.35418050808395873     
 delta_qm =   0.131453E-04 delta_en =   0.298596E-03 tol =   0.100000E-04
 Iteration #         12
  pAp =    1.1369743653391634E-006  rzold =    5.9248522096509802E-007  alpha =   0.52110692995998875     
 delta_qm =   0.523682E-05 delta_en =   0.473891E-04 tol =   0.100000E-04
 Iteration #         13
  pAp =    1.4049775812122525E-007  rzold =    8.2602357014260910E-008  alpha =   0.58792651298385390     
 delta_qm =   0.211831E-05 delta_en =   0.775392E-05 tol =   0.100000E-04
 Charges are converged, EXIT

%%%% DENSITY %%%%%%%%%%%%%%%%%%%%%%%%%%%%%%%%%%%%%%%%%%%%%%%%%%%%%%%%%%%%%%%%%%%
 density label              = velectrostatic                                                                  
 integral of density        =     0.2313162008E-11

%%%% CHARGES %%%%%%%%%%%%%%%%%%%%%%%%%%%%%%%%%%%%%%%%%%%%%%%%%%%%%%%%%%%%%%%%%%%
 total number of charges    =         34
 total charge               =     -1.0000000

%%%% DENSITY %%%%%%%%%%%%%%%%%%%%%%%%%%%%%%%%%%%%%%%%%%%%%%%%%%%%%%%%%%%%%%%%%%%
 density label              = dvtot                                                                           
 integral of density        =     0.3870668189E-11

%%%% ELECTRONS %%%%%%%%%%%%%%%%%%%%%%%%%%%%%%%%%%%%%%%%%%%%%%%%%%%%%%%%%%%%%%%%%
 number of electrons        =         24
 total electronic charge    =     24.0000000

%%%% ELECTRONS %%%%%%%%%%%%%%%%%%%%%%%%%%%%%%%%%%%%%%%%%%%%%%%%%%%%%%%%%%%%%%%%%
 number of electrons        =         24
 total electronic charge    =     24.0000000

%%%% DENSITY %%%%%%%%%%%%%%%%%%%%%%%%%%%%%%%%%%%%%%%%%%%%%%%%%%%%%%%%%%%%%%%%%%%
 density label              = vreference                                                                      
 integral of density        =    -0.6906656317E-12

%%%% COMPUTE ELECTROSTATIC POTENTIAL %%%%%%%%%%%%%%%%%%%%%%%%%%%%%%%%%%%%%%%%%%%
 Warning: bad guess with residual norm =   0.546654E+03, reset to no guess
 Iteration #          1
  pAp =    96.281385378614246       rzold =    93.631168539474629       alpha =   0.97247425523928666     
 delta_qm =   0.174107E-01 delta_en =   0.523811E+03 tol =   0.100000E-04
 Iteration #          2
  pAp =    137.74398726417155       rzold =    16.575695644559854       alpha =   0.12033698148123335     
 delta_qm =   0.507317E-02 delta_en =   0.444736E+02 tol =   0.100000E-04
 Iteration #          3
  pAp =    3.5560412863719737       rzold =   0.67366972881916498       alpha =   0.18944373098279516     
 delta_qm =   0.213330E-02 delta_en =   0.786408E+01 tol =   0.100000E-04
 Iteration #          4
  pAp =   0.21596923375181301       rzold =    6.0961298376385288E-002  alpha =   0.28226843850564681     
 delta_qm =   0.127001E-02 delta_en =   0.278712E+01 tol =   0.100000E-04
 Iteration #          5
  pAp =    6.1194921340037914E-002  rzold =    1.2105437542851318E-002  alpha =   0.19781768286923362     
 delta_qm =   0.895902E-03 delta_en =   0.138696E+01 tol =   0.100000E-04
 Iteration #          6
  pAp =    1.0895285418969936E-002  rzold =    3.6667300194795365E-003  alpha =   0.33654281448151335     
 delta_qm =   0.538977E-03 delta_en =   0.501978E+00 tol =   0.100000E-04
 Iteration #          7
  pAp =    1.9974938692561301E-003  rzold =    9.3589228973921289E-004  alpha =   0.46853324765784671     
 delta_qm =   0.287404E-03 delta_en =   0.142735E+00 tol =   0.100000E-04
 Iteration #          8
  pAp =    4.1179575314859092E-004  rzold =    2.3810101111866513E-004  alpha =   0.57820171601611836     
 delta_qm =   0.160665E-03 delta_en =   0.446051E-01 tol =   0.100000E-04
 Iteration #          9
  pAp =    1.7549888954576144E-004  rzold =    1.0189423282157048E-004  alpha =   0.58059759286967738     
 delta_qm =   0.673216E-04 delta_en =   0.783165E-02 tol =   0.100000E-04
 Iteration #         10
  pAp =    1.3864436384135136E-004  rzold =    4.1538172047837553E-005  alpha =   0.29960231268664517     
 delta_qm =   0.322654E-04 delta_en =   0.179894E-02 tol =   0.100000E-04
 Iteration #         11
  pAp =    2.5482015596680290E-005  rzold =    9.0287101191770524E-006  alpha =   0.35431695286903764     
 delta_qm =   0.131448E-04 delta_en =   0.298573E-03 tol =   0.100000E-04
 Iteration #         12
  pAp =    1.1367466452161208E-006  rzold =    5.9242418836729848E-007  alpha =   0.52115763073544452     
 delta_qm =   0.523747E-05 delta_en =   0.474008E-04 tol =   0.100000E-04
 Iteration #         13
  pAp =    1.4050744801224334E-007  rzold =    8.2621801581408143E-008  alpha =   0.58802435564987809     
 delta_qm =   0.212022E-05 delta_en =   0.776792E-05 tol =   0.100000E-04
 Charges are converged, EXIT

%%%% DENSITY %%%%%%%%%%%%%%%%%%%%%%%%%%%%%%%%%%%%%%%%%%%%%%%%%%%%%%%%%%%%%%%%%%%
 density label              = velectrostatic                                                                  
 integral of density        =    -0.4268782858E-11

%%%% CHARGES %%%%%%%%%%%%%%%%%%%%%%%%%%%%%%%%%%%%%%%%%%%%%%%%%%%%%%%%%%%%%%%%%%%
 total number of charges    =         34
 total charge               =     -1.0000000

%%%% DENSITY %%%%%%%%%%%%%%%%%%%%%%%%%%%%%%%%%%%%%%%%%%%%%%%%%%%%%%%%%%%%%%%%%%%
 density label              = dvtot                                                                           
 integral of density        =    -0.6028264307E-12

%%%% ELECTRONS %%%%%%%%%%%%%%%%%%%%%%%%%%%%%%%%%%%%%%%%%%%%%%%%%%%%%%%%%%%%%%%%%
 number of electrons        =         24
 total electronic charge    =     24.0000000

%%%% ELECTRONS %%%%%%%%%%%%%%%%%%%%%%%%%%%%%%%%%%%%%%%%%%%%%%%%%%%%%%%%%%%%%%%%%
 number of electrons        =         24
 total electronic charge    =     24.0000000

%%%% DENSITY %%%%%%%%%%%%%%%%%%%%%%%%%%%%%%%%%%%%%%%%%%%%%%%%%%%%%%%%%%%%%%%%%%%
 density label              = dvtot                                                                           
 integral of density        =    -0.6028264307E-12

%%%% DENSITY %%%%%%%%%%%%%%%%%%%%%%%%%%%%%%%%%%%%%%%%%%%%%%%%%%%%%%%%%%%%%%%%%%%
 density label              = vreference                                                                      
 integral of density        =    -0.6906656317E-12

%%%% DENSITY %%%%%%%%%%%%%%%%%%%%%%%%%%%%%%%%%%%%%%%%%%%%%%%%%%%%%%%%%%%%%%%%%%%
 density label              = velectrostatic                                                                  
 integral of density        =    -0.4268782858E-11

%%%% CHARGES %%%%%%%%%%%%%%%%%%%%%%%%%%%%%%%%%%%%%%%%%%%%%%%%%%%%%%%%%%%%%%%%%%%
 total number of charges    =         34
 total charge               =     -1.0000000
