
     Program PWSCF v.6.1 (svn rev. 13369) starts on  4Oct2017 at 12:30:13 

     This program is part of the open-source Quantum ESPRESSO suite
     for quantum simulation of materials; please cite
         "P. Giannozzi et al., J. Phys.:Condens. Matter 21 395502 (2009);
          URL http://www.quantum-espresso.org", 
     in publications or presentations arising from this work. More details at
     http://www.quantum-espresso.org/quote

     Serial version
     Reading input from charged.in

     Current dimensions of program PWSCF are:
     Max number of different atomic species (ntypx) = 10
     Max number of k-points (npk) =  40000
     Max angular momentum in pseudopotentials (lmaxx) =  3
               file C.pbe-rrkjus.UPF: wavefunction(s)  2S 2P renormalized
               file H.pbe-rrkjus.UPF: wavefunction(s)  1S renormalized
               file N.pbe-rrkjus.UPF: wavefunction(s)  2S renormalized
               file O.pbe-rrkjus.UPF: wavefunction(s)  2S renormalized

     gamma-point specific algorithms are used

     G-vector sticks info
     --------------------
     sticks:   dense  smooth     PW     G-vecs:    dense   smooth      PW
     Sum        9549    3809    949               701475   177509   22119



     bravais-lattice index     =            1
     lattice parameter (alat)  =      20.0000  a.u.
     unit-cell volume          =    8000.0000 (a.u.)^3
     number of atoms/cell      =           10
     number of atomic types    =            4
     number of electrons       =        24.00
     number of Kohn-Sham states=           12
     kinetic-energy cutoff     =      30.0000  Ry
     charge density cutoff     =     300.0000  Ry
     convergence threshold     =      5.0E-03
     mixing beta               =       0.7000
     number of iterations used =            8  plain     mixing
     Exchange-correlation      =  SLA  PW   PBE  PBE ( 1  4  3  4 0 0)


     Environ Module
     ==============

     Plese cite
         O. Andreussi, I. Dabo and N. Marzari, J. Chem. Phys. 136, 064102 (2012)         
     in publications or presentations arising from this work.

     compensation onset threshold      =               0.1000E+03 
     static permittivity               =                   100.00 
     epsilon calculation mode          =                    ionic 

     Electrostatic Setup
     -------------------
     electrostatic problem to solve    = generalized              
     numerical solver adopted          = cg                       
     type of auxiliary density adopted = none                     
     type of core tool for poisson     = fft                      
     type of core tool for s(r) deriv  = analytic                 



     celldm(1)=  20.000000  celldm(2)=   0.000000  celldm(3)=   0.000000
     celldm(4)=   0.000000  celldm(5)=   0.000000  celldm(6)=   0.000000

     crystal axes: (cart. coord. in units of alat)
               a(1) = (   1.000000   0.000000   0.000000 )  
               a(2) = (   0.000000   1.000000   0.000000 )  
               a(3) = (   0.000000   0.000000   1.000000 )  

     reciprocal axes: (cart. coord. in units 2 pi/alat)
               b(1) = (  1.000000  0.000000  0.000000 )  
               b(2) = (  0.000000  1.000000  0.000000 )  
               b(3) = (  0.000000  0.000000  1.000000 )  


     PseudoPot. # 1 for C  read from file:
     /Users/oliviero/PWSCF/espresso-6.1-Environ-1.0/Environ/tests/../..//pseudo/C.pbe-rrkjus.UPF
     MD5 check sum: 00fb224312de0c5b6853bd333518df6f
     Pseudo is Ultrasoft, Zval =  4.0
     Generated by new atomic code, or converted to UPF format
     Using radial grid of  627 points,  4 beta functions with: 
                l(1) =   0
                l(2) =   0
                l(3) =   1
                l(4) =   1
     Q(r) pseudized with 0 coefficients 


     PseudoPot. # 2 for H  read from file:
     /Users/oliviero/PWSCF/espresso-6.1-Environ-1.0/Environ/tests/../..//pseudo/H.pbe-rrkjus.UPF
     MD5 check sum: 7cc9d459525c9a0585f487a71c3c9563
     Pseudo is Ultrasoft, Zval =  1.0
     Generated by new atomic code, or converted to UPF format
     Using radial grid of 1061 points,  2 beta functions with: 
                l(1) =   0
                l(2) =   0
     Q(r) pseudized with 0 coefficients 


     PseudoPot. # 3 for N  read from file:
     /Users/oliviero/PWSCF/espresso-6.1-Environ-1.0/Environ/tests/../..//pseudo/N.pbe-rrkjus.UPF
     MD5 check sum: 0c3fbe5807a93f9ba59d5a7019aa238b
     Pseudo is Ultrasoft, Zval =  5.0
     Generated by new atomic code, or converted to UPF format
     Using radial grid of 1257 points,  4 beta functions with: 
                l(1) =   0
                l(2) =   0
                l(3) =   1
                l(4) =   1
     Q(r) pseudized with 0 coefficients 


     PseudoPot. # 4 for O  read from file:
     /Users/oliviero/PWSCF/espresso-6.1-Environ-1.0/Environ/tests/../..//pseudo/O.pbe-rrkjus.UPF
     MD5 check sum: 390ba29e75625707450f3bd3f0eb6be9
     Pseudo is Ultrasoft, Zval =  6.0
     Generated by new atomic code, or converted to UPF format
     Using radial grid of 1269 points,  4 beta functions with: 
                l(1) =   0
                l(2) =   0
                l(3) =   1
                l(4) =   1
     Q(r) pseudized with 0 coefficients 


     atomic species   valence    mass     pseudopotential
        C              4.00    12.00000     C ( 1.00)
        H              1.00     1.00000     H ( 1.00)
        N              5.00    14.00000     N ( 1.00)
        O              6.00    16.00000     O ( 1.00)

     No symmetry found



   Cartesian axes

     site n.     atom                  positions (alat units)
         1           C   tau(   1) = (   0.0000000   0.0000000   0.0000000  )
         2           C   tau(   2) = (   0.0000000   0.0000000   0.1455089  )
         3           N   tau(   3) = (   0.1170969   0.0000000  -0.0545024  )
         4           H   tau(   4) = (   0.0476617  -0.0825466   0.1792090  )
         5           H   tau(   5) = (  -0.0953183  -0.0000030   0.1792090  )
         6           H   tau(   6) = (   0.0476566   0.0825496   0.1792090  )
         7           O   tau(   7) = (  -0.0984002  -0.0000019  -0.0641310  )
         8           H   tau(   8) = (   0.1263131  -0.0000015  -0.1475548  )
         9           H   tau(   9) = (   0.1944645   0.0000134  -0.0025716  )
        10           H   tau(  10) = (  -0.0770366  -0.0000045  -0.1522861  )

     number of k points=     1
                       cart. coord. in units 2pi/alat
        k(    1) = (   0.0000000   0.0000000   0.0000000), wk =   2.0000000

     Dense  grid:   350738 G-vectors     FFT dimensions: ( 120, 120, 120)

     Smooth grid:    88755 G-vectors     FFT dimensions: (  72,  72,  72)

     Estimated max dynamical RAM per process >     298.98MB

     Initial potential from superposition of free atoms
     Check: negative starting charge=   -0.000452

     starting charge   24.42266, renormalised to   24.00000

     negative rho (up, down):  4.438E-04 0.000E+00
     Starting wfc are   22 randomized atomic wfcs

     total cpu time spent up to now is      105.2 secs

     Self-consistent Calculation

     iteration #  1     ecut=    30.00 Ry     beta=0.70
     Davidson diagonalization with overlap
     ethr =  1.00E-02,  avg # of iterations =  2.0

     negative rho (up, down):  1.277E-04 0.000E+00

     add environment contribution to local potential
 Warning: Polarization charge not converged
     polarization accuracy =     NaN, # of iterations = 201

     total cpu time spent up to now is      158.1 secs

     total energy              =     -80.23903180 Ry
     Harris-Foulkes estimate   =     -83.01879009 Ry
     estimated scf accuracy    <       3.73442311 Ry
     electrostatic embedding   =       0.00000000 Ry
     correction to one-el term =       0.00000000 Ry

     iteration #  2     ecut=    30.00 Ry     beta=0.70
     Davidson diagonalization with overlap

 %%%%%%%%%%%%%%%%%%%%%%%%%%%%%%%%%%%%%%%%%%%%%%%%%%%%%%%%%%%%%%%%%%%%%%%%%%%%%%
     Error in routine rdiaghg (11):
     eigenvectors failed to converge
 %%%%%%%%%%%%%%%%%%%%%%%%%%%%%%%%%%%%%%%%%%%%%%%%%%%%%%%%%%%%%%%%%%%%%%%%%%%%%%

     stopping ...

%%%% IONS %%%%%%%%%%%%%%%%%%%%%%%%%%%%%%%%%%%%%%%%%%%%%%%%%%%%%%%%%%%%%%%%%%%%%%
 number of ions             =         10
 ionic center of charge     =      0.0095530    -0.0000002     0.0063981
 total ionic charge         =    -25.0000000
 ionic dipole               =      0.0000000     0.0000000     0.0000000
 ionic quadrupole (pc)      =    -79.0828058    -5.4513517  -105.8059629
 ionic quadrupole (gauss)   =    -82.2078058    -8.5763517  -108.9309629
 ion   1 type =  1 coordinates =      0.0000000     0.0000000     0.0000000
 ion   2 type =  1 coordinates =      0.0000000     0.0000000     2.9101782
 ion   3 type =  3 coordinates =      2.3419379     0.0000000    -1.0900479
 ion   4 type =  2 coordinates =      0.9532347    -1.6509323     3.5841800
 ion   5 type =  2 coordinates =     -1.9063663    -0.0000596     3.5841809
 ion   6 type =  2 coordinates =      0.9531315     1.6509919     3.5841800
 ion   7 type =  4 coordinates =     -1.9680045    -0.0000375    -1.2826193
 ion   8 type =  2 coordinates =      2.5262613    -0.0000303    -2.9510950
 ion   9 type =  2 coordinates =      3.8892907     0.0002681    -0.0514326
 ion  10 type =  2 coordinates =     -1.5407317    -0.0000890    -3.0457220

%%%% SYSTEM %%%%%%%%%%%%%%%%%%%%%%%%%%%%%%%%%%%%%%%%%%%%%%%%%%%%%%%%%%%%%%%%%%%%
 system is built from all present ionic types
 system defined dimension   =  0 
 system defined axis        =  3 
 system center              =      0.0095530    -0.0000002     0.0063981 
 system width               =      0.5223840 

%%%% BOUNDARY %%%%%%%%%%%%%%%%%%%%%%%%%%%%%%%%%%%%%%%%%%%%%%%%%%%%%%%%%%%%%%%%%%
 boundary mode              = ionic                
 boundary is built from soft-spheres centered on ionic positions
 solvent-dependent scaling  =      1.0000000 
 softness parameter         =      0.5000000 

%%%% DIELECTRIC %%%%%%%%%%%%%%%%%%%%%%%%%%%%%%%%%%%%%%%%%%%%%%%%%%%%%%%%%%%%%%%%%
 dielectric build on homogeneous background
 environment bulk permitt.  =    100.0000000 
 dielectric flags
 need gradient              =  F 
 need factor depend. sqrt   =  T 
 need gradient of logarithm =  T 

%%%% ELECTRONS %%%%%%%%%%%%%%%%%%%%%%%%%%%%%%%%%%%%%%%%%%%%%%%%%%%%%%%%%%%%%%%%%
 number of electrons        =         24
 total electronic charge    =     24.0000000
 number of spin components  =  1

%%%% COMPUTE ELECTROSTATIC POTENTIAL %%%%%%%%%%%%%%%%%%%%%%%%%%%%%%%%%%%%%%%%%%%
 Iteration #          1
  pAp =  NaN  rzold =  89.20106676918627  alpha =  NaN
 delta_qm =            NaN delta_en =            NaN tol =   0.100000E-03
 Iteration #          2
  pAp =  NaN  rzold =  NaN  alpha =  NaN
 delta_qm =            NaN delta_en =            NaN tol =   0.100000E-03
 Iteration #          3
  pAp =  NaN  rzold =  NaN  alpha =  NaN
 delta_qm =            NaN delta_en =            NaN tol =   0.100000E-03
 Iteration #          4
  pAp =  NaN  rzold =  NaN  alpha =  NaN
 delta_qm =            NaN delta_en =            NaN tol =   0.100000E-03
 Iteration #          5
  pAp =  NaN  rzold =  NaN  alpha =  NaN
 delta_qm =            NaN delta_en =            NaN tol =   0.100000E-03
 Iteration #          6
  pAp =  NaN  rzold =  NaN  alpha =  NaN
 delta_qm =            NaN delta_en =            NaN tol =   0.100000E-03
 Iteration #          7
  pAp =  NaN  rzold =  NaN  alpha =  NaN
 delta_qm =            NaN delta_en =            NaN tol =   0.100000E-03
 Iteration #          8
  pAp =  NaN  rzold =  NaN  alpha =  NaN
 delta_qm =            NaN delta_en =            NaN tol =   0.100000E-03
 Iteration #          9
  pAp =  NaN  rzold =  NaN  alpha =  NaN
 delta_qm =            NaN delta_en =            NaN tol =   0.100000E-03
 Iteration #         10
  pAp =  NaN  rzold =  NaN  alpha =  NaN
 delta_qm =            NaN delta_en =            NaN tol =   0.100000E-03
 Iteration #         11
  pAp =  NaN  rzold =  NaN  alpha =  NaN
 delta_qm =            NaN delta_en =            NaN tol =   0.100000E-03
 Iteration #         12
  pAp =  NaN  rzold =  NaN  alpha =  NaN
 delta_qm =            NaN delta_en =            NaN tol =   0.100000E-03
 Iteration #         13
  pAp =  NaN  rzold =  NaN  alpha =  NaN
 delta_qm =            NaN delta_en =            NaN tol =   0.100000E-03
 Iteration #         14
  pAp =  NaN  rzold =  NaN  alpha =  NaN
 delta_qm =            NaN delta_en =            NaN tol =   0.100000E-03
 Iteration #         15
  pAp =  NaN  rzold =  NaN  alpha =  NaN
 delta_qm =            NaN delta_en =            NaN tol =   0.100000E-03
 Iteration #         16
  pAp =  NaN  rzold =  NaN  alpha =  NaN
 delta_qm =            NaN delta_en =            NaN tol =   0.100000E-03
 Iteration #         17
  pAp =  NaN  rzold =  NaN  alpha =  NaN
 delta_qm =            NaN delta_en =            NaN tol =   0.100000E-03
 Iteration #         18
  pAp =  NaN  rzold =  NaN  alpha =  NaN
 delta_qm =            NaN delta_en =            NaN tol =   0.100000E-03
 Iteration #         19
  pAp =  NaN  rzold =  NaN  alpha =  NaN
 delta_qm =            NaN delta_en =            NaN tol =   0.100000E-03
 Iteration #         20
  pAp =  NaN  rzold =  NaN  alpha =  NaN
 delta_qm =            NaN delta_en =            NaN tol =   0.100000E-03
 Iteration #         21
  pAp =  NaN  rzold =  NaN  alpha =  NaN
 delta_qm =            NaN delta_en =            NaN tol =   0.100000E-03
 Iteration #         22
  pAp =  NaN  rzold =  NaN  alpha =  NaN
 delta_qm =            NaN delta_en =            NaN tol =   0.100000E-03
 Iteration #         23
  pAp =  NaN  rzold =  NaN  alpha =  NaN
 delta_qm =            NaN delta_en =            NaN tol =   0.100000E-03
 Iteration #         24
  pAp =  NaN  rzold =  NaN  alpha =  NaN
 delta_qm =            NaN delta_en =            NaN tol =   0.100000E-03
 Iteration #         25
  pAp =  NaN  rzold =  NaN  alpha =  NaN
 delta_qm =            NaN delta_en =            NaN tol =   0.100000E-03
 Iteration #         26
  pAp =  NaN  rzold =  NaN  alpha =  NaN
 delta_qm =            NaN delta_en =            NaN tol =   0.100000E-03
 Iteration #         27
  pAp =  NaN  rzold =  NaN  alpha =  NaN
 delta_qm =            NaN delta_en =            NaN tol =   0.100000E-03
 Iteration #         28
  pAp =  NaN  rzold =  NaN  alpha =  NaN
 delta_qm =            NaN delta_en =            NaN tol =   0.100000E-03
 Iteration #         29
  pAp =  NaN  rzold =  NaN  alpha =  NaN
 delta_qm =            NaN delta_en =            NaN tol =   0.100000E-03
 Iteration #         30
  pAp =  NaN  rzold =  NaN  alpha =  NaN
 delta_qm =            NaN delta_en =            NaN tol =   0.100000E-03
 Iteration #         31
  pAp =  NaN  rzold =  NaN  alpha =  NaN
 delta_qm =            NaN delta_en =            NaN tol =   0.100000E-03
 Iteration #         32
  pAp =  NaN  rzold =  NaN  alpha =  NaN
 delta_qm =            NaN delta_en =            NaN tol =   0.100000E-03
 Iteration #         33
  pAp =  NaN  rzold =  NaN  alpha =  NaN
 delta_qm =            NaN delta_en =            NaN tol =   0.100000E-03
 Iteration #         34
  pAp =  NaN  rzold =  NaN  alpha =  NaN
 delta_qm =            NaN delta_en =            NaN tol =   0.100000E-03
 Iteration #         35
  pAp =  NaN  rzold =  NaN  alpha =  NaN
 delta_qm =            NaN delta_en =            NaN tol =   0.100000E-03
 Iteration #         36
  pAp =  NaN  rzold =  NaN  alpha =  NaN
 delta_qm =            NaN delta_en =            NaN tol =   0.100000E-03
 Iteration #         37
  pAp =  NaN  rzold =  NaN  alpha =  NaN
 delta_qm =            NaN delta_en =            NaN tol =   0.100000E-03
 Iteration #         38
  pAp =  NaN  rzold =  NaN  alpha =  NaN
 delta_qm =            NaN delta_en =            NaN tol =   0.100000E-03
 Iteration #         39
  pAp =  NaN  rzold =  NaN  alpha =  NaN
 delta_qm =            NaN delta_en =            NaN tol =   0.100000E-03
 Iteration #         40
  pAp =  NaN  rzold =  NaN  alpha =  NaN
 delta_qm =            NaN delta_en =            NaN tol =   0.100000E-03
 Iteration #         41
  pAp =  NaN  rzold =  NaN  alpha =  NaN
 delta_qm =            NaN delta_en =            NaN tol =   0.100000E-03
 Iteration #         42
  pAp =  NaN  rzold =  NaN  alpha =  NaN
 delta_qm =            NaN delta_en =            NaN tol =   0.100000E-03
 Iteration #         43
  pAp =  NaN  rzold =  NaN  alpha =  NaN
 delta_qm =            NaN delta_en =            NaN tol =   0.100000E-03
 Iteration #         44
  pAp =  NaN  rzold =  NaN  alpha =  NaN
 delta_qm =            NaN delta_en =            NaN tol =   0.100000E-03
 Iteration #         45
  pAp =  NaN  rzold =  NaN  alpha =  NaN
 delta_qm =            NaN delta_en =            NaN tol =   0.100000E-03
 Iteration #         46
  pAp =  NaN  rzold =  NaN  alpha =  NaN
 delta_qm =            NaN delta_en =            NaN tol =   0.100000E-03
 Iteration #         47
  pAp =  NaN  rzold =  NaN  alpha =  NaN
 delta_qm =            NaN delta_en =            NaN tol =   0.100000E-03
 Iteration #         48
  pAp =  NaN  rzold =  NaN  alpha =  NaN
 delta_qm =            NaN delta_en =            NaN tol =   0.100000E-03
 Iteration #         49
  pAp =  NaN  rzold =  NaN  alpha =  NaN
 delta_qm =            NaN delta_en =            NaN tol =   0.100000E-03
 Iteration #         50
  pAp =  NaN  rzold =  NaN  alpha =  NaN
 delta_qm =            NaN delta_en =            NaN tol =   0.100000E-03
 Iteration #         51
  pAp =  NaN  rzold =  NaN  alpha =  NaN
 delta_qm =            NaN delta_en =            NaN tol =   0.100000E-03
 Iteration #         52
  pAp =  NaN  rzold =  NaN  alpha =  NaN
 delta_qm =            NaN delta_en =            NaN tol =   0.100000E-03
 Iteration #         53
  pAp =  NaN  rzold =  NaN  alpha =  NaN
 delta_qm =            NaN delta_en =            NaN tol =   0.100000E-03
 Iteration #         54
  pAp =  NaN  rzold =  NaN  alpha =  NaN
 delta_qm =            NaN delta_en =            NaN tol =   0.100000E-03
 Iteration #         55
  pAp =  NaN  rzold =  NaN  alpha =  NaN
 delta_qm =            NaN delta_en =            NaN tol =   0.100000E-03
 Iteration #         56
  pAp =  NaN  rzold =  NaN  alpha =  NaN
 delta_qm =            NaN delta_en =            NaN tol =   0.100000E-03
 Iteration #         57
  pAp =  NaN  rzold =  NaN  alpha =  NaN
 delta_qm =            NaN delta_en =            NaN tol =   0.100000E-03
 Iteration #         58
  pAp =  NaN  rzold =  NaN  alpha =  NaN
 delta_qm =            NaN delta_en =            NaN tol =   0.100000E-03
 Iteration #         59
  pAp =  NaN  rzold =  NaN  alpha =  NaN
 delta_qm =            NaN delta_en =            NaN tol =   0.100000E-03
 Iteration #         60
  pAp =  NaN  rzold =  NaN  alpha =  NaN
 delta_qm =            NaN delta_en =            NaN tol =   0.100000E-03
 Iteration #         61
  pAp =  NaN  rzold =  NaN  alpha =  NaN
 delta_qm =            NaN delta_en =            NaN tol =   0.100000E-03
 Iteration #         62
  pAp =  NaN  rzold =  NaN  alpha =  NaN
 delta_qm =            NaN delta_en =            NaN tol =   0.100000E-03
 Iteration #         63
  pAp =  NaN  rzold =  NaN  alpha =  NaN
 delta_qm =            NaN delta_en =            NaN tol =   0.100000E-03
 Iteration #         64
  pAp =  NaN  rzold =  NaN  alpha =  NaN
 delta_qm =            NaN delta_en =            NaN tol =   0.100000E-03
 Iteration #         65
  pAp =  NaN  rzold =  NaN  alpha =  NaN
 delta_qm =            NaN delta_en =            NaN tol =   0.100000E-03
 Iteration #         66
  pAp =  NaN  rzold =  NaN  alpha =  NaN
 delta_qm =            NaN delta_en =            NaN tol =   0.100000E-03
 Iteration #         67
  pAp =  NaN  rzold =  NaN  alpha =  NaN
 delta_qm =            NaN delta_en =            NaN tol =   0.100000E-03
 Iteration #         68
  pAp =  NaN  rzold =  NaN  alpha =  NaN
 delta_qm =            NaN delta_en =            NaN tol =   0.100000E-03
 Iteration #         69
  pAp =  NaN  rzold =  NaN  alpha =  NaN
 delta_qm =            NaN delta_en =            NaN tol =   0.100000E-03
 Iteration #         70
  pAp =  NaN  rzold =  NaN  alpha =  NaN
 delta_qm =            NaN delta_en =            NaN tol =   0.100000E-03
 Iteration #         71
  pAp =  NaN  rzold =  NaN  alpha =  NaN
 delta_qm =            NaN delta_en =            NaN tol =   0.100000E-03
 Iteration #         72
  pAp =  NaN  rzold =  NaN  alpha =  NaN
 delta_qm =            NaN delta_en =            NaN tol =   0.100000E-03
 Iteration #         73
  pAp =  NaN  rzold =  NaN  alpha =  NaN
 delta_qm =            NaN delta_en =            NaN tol =   0.100000E-03
 Iteration #         74
  pAp =  NaN  rzold =  NaN  alpha =  NaN
 delta_qm =            NaN delta_en =            NaN tol =   0.100000E-03
 Iteration #         75
  pAp =  NaN  rzold =  NaN  alpha =  NaN
 delta_qm =            NaN delta_en =            NaN tol =   0.100000E-03
 Iteration #         76
  pAp =  NaN  rzold =  NaN  alpha =  NaN
 delta_qm =            NaN delta_en =            NaN tol =   0.100000E-03
 Iteration #         77
  pAp =  NaN  rzold =  NaN  alpha =  NaN
 delta_qm =            NaN delta_en =            NaN tol =   0.100000E-03
 Iteration #         78
  pAp =  NaN  rzold =  NaN  alpha =  NaN
 delta_qm =            NaN delta_en =            NaN tol =   0.100000E-03
 Iteration #         79
  pAp =  NaN  rzold =  NaN  alpha =  NaN
 delta_qm =            NaN delta_en =            NaN tol =   0.100000E-03
 Iteration #         80
  pAp =  NaN  rzold =  NaN  alpha =  NaN
 delta_qm =            NaN delta_en =            NaN tol =   0.100000E-03
 Iteration #         81
  pAp =  NaN  rzold =  NaN  alpha =  NaN
 delta_qm =            NaN delta_en =            NaN tol =   0.100000E-03
 Iteration #         82
  pAp =  NaN  rzold =  NaN  alpha =  NaN
 delta_qm =            NaN delta_en =            NaN tol =   0.100000E-03
 Iteration #         83
  pAp =  NaN  rzold =  NaN  alpha =  NaN
 delta_qm =            NaN delta_en =            NaN tol =   0.100000E-03
 Iteration #         84
  pAp =  NaN  rzold =  NaN  alpha =  NaN
 delta_qm =            NaN delta_en =            NaN tol =   0.100000E-03
 Iteration #         85
  pAp =  NaN  rzold =  NaN  alpha =  NaN
 delta_qm =            NaN delta_en =            NaN tol =   0.100000E-03
 Iteration #         86
  pAp =  NaN  rzold =  NaN  alpha =  NaN
 delta_qm =            NaN delta_en =            NaN tol =   0.100000E-03
 Iteration #         87
  pAp =  NaN  rzold =  NaN  alpha =  NaN
 delta_qm =            NaN delta_en =            NaN tol =   0.100000E-03
 Iteration #         88
  pAp =  NaN  rzold =  NaN  alpha =  NaN
 delta_qm =            NaN delta_en =            NaN tol =   0.100000E-03
 Iteration #         89
  pAp =  NaN  rzold =  NaN  alpha =  NaN
 delta_qm =            NaN delta_en =            NaN tol =   0.100000E-03
 Iteration #         90
  pAp =  NaN  rzold =  NaN  alpha =  NaN
 delta_qm =            NaN delta_en =            NaN tol =   0.100000E-03
 Iteration #         91
  pAp =  NaN  rzold =  NaN  alpha =  NaN
 delta_qm =            NaN delta_en =            NaN tol =   0.100000E-03
 Iteration #         92
  pAp =  NaN  rzold =  NaN  alpha =  NaN
 delta_qm =            NaN delta_en =            NaN tol =   0.100000E-03
 Iteration #         93
  pAp =  NaN  rzold =  NaN  alpha =  NaN
 delta_qm =            NaN delta_en =            NaN tol =   0.100000E-03
 Iteration #         94
  pAp =  NaN  rzold =  NaN  alpha =  NaN
 delta_qm =            NaN delta_en =            NaN tol =   0.100000E-03
 Iteration #         95
  pAp =  NaN  rzold =  NaN  alpha =  NaN
 delta_qm =            NaN delta_en =            NaN tol =   0.100000E-03
 Iteration #         96
  pAp =  NaN  rzold =  NaN  alpha =  NaN
 delta_qm =            NaN delta_en =            NaN tol =   0.100000E-03
 Iteration #         97
  pAp =  NaN  rzold =  NaN  alpha =  NaN
 delta_qm =            NaN delta_en =            NaN tol =   0.100000E-03
 Iteration #         98
  pAp =  NaN  rzold =  NaN  alpha =  NaN
 delta_qm =            NaN delta_en =            NaN tol =   0.100000E-03
 Iteration #         99
  pAp =  NaN  rzold =  NaN  alpha =  NaN
 delta_qm =            NaN delta_en =            NaN tol =   0.100000E-03
 Iteration #        100
  pAp =  NaN  rzold =  NaN  alpha =  NaN
 delta_qm =            NaN delta_en =            NaN tol =   0.100000E-03
 Iteration #        101
  pAp =  NaN  rzold =  NaN  alpha =  NaN
 delta_qm =            NaN delta_en =            NaN tol =   0.100000E-03
 Iteration #        102
  pAp =  NaN  rzold =  NaN  alpha =  NaN
 delta_qm =            NaN delta_en =            NaN tol =   0.100000E-03
 Iteration #        103
  pAp =  NaN  rzold =  NaN  alpha =  NaN
 delta_qm =            NaN delta_en =            NaN tol =   0.100000E-03
 Iteration #        104
  pAp =  NaN  rzold =  NaN  alpha =  NaN
 delta_qm =            NaN delta_en =            NaN tol =   0.100000E-03
 Iteration #        105
  pAp =  NaN  rzold =  NaN  alpha =  NaN
 delta_qm =            NaN delta_en =            NaN tol =   0.100000E-03
 Iteration #        106
  pAp =  NaN  rzold =  NaN  alpha =  NaN
 delta_qm =            NaN delta_en =            NaN tol =   0.100000E-03
 Iteration #        107
  pAp =  NaN  rzold =  NaN  alpha =  NaN
 delta_qm =            NaN delta_en =            NaN tol =   0.100000E-03
 Iteration #        108
  pAp =  NaN  rzold =  NaN  alpha =  NaN
 delta_qm =            NaN delta_en =            NaN tol =   0.100000E-03
 Iteration #        109
  pAp =  NaN  rzold =  NaN  alpha =  NaN
 delta_qm =            NaN delta_en =            NaN tol =   0.100000E-03
 Iteration #        110
  pAp =  NaN  rzold =  NaN  alpha =  NaN
 delta_qm =            NaN delta_en =            NaN tol =   0.100000E-03
 Iteration #        111
  pAp =  NaN  rzold =  NaN  alpha =  NaN
 delta_qm =            NaN delta_en =            NaN tol =   0.100000E-03
 Iteration #        112
  pAp =  NaN  rzold =  NaN  alpha =  NaN
 delta_qm =            NaN delta_en =            NaN tol =   0.100000E-03
 Iteration #        113
  pAp =  NaN  rzold =  NaN  alpha =  NaN
 delta_qm =            NaN delta_en =            NaN tol =   0.100000E-03
 Iteration #        114
  pAp =  NaN  rzold =  NaN  alpha =  NaN
 delta_qm =            NaN delta_en =            NaN tol =   0.100000E-03
 Iteration #        115
  pAp =  NaN  rzold =  NaN  alpha =  NaN
 delta_qm =            NaN delta_en =            NaN tol =   0.100000E-03
 Iteration #        116
  pAp =  NaN  rzold =  NaN  alpha =  NaN
 delta_qm =            NaN delta_en =            NaN tol =   0.100000E-03
 Iteration #        117
  pAp =  NaN  rzold =  NaN  alpha =  NaN
 delta_qm =            NaN delta_en =            NaN tol =   0.100000E-03
 Iteration #        118
  pAp =  NaN  rzold =  NaN  alpha =  NaN
 delta_qm =            NaN delta_en =            NaN tol =   0.100000E-03
 Iteration #        119
  pAp =  NaN  rzold =  NaN  alpha =  NaN
 delta_qm =            NaN delta_en =            NaN tol =   0.100000E-03
 Iteration #        120
  pAp =  NaN  rzold =  NaN  alpha =  NaN
 delta_qm =            NaN delta_en =            NaN tol =   0.100000E-03
 Iteration #        121
  pAp =  NaN  rzold =  NaN  alpha =  NaN
 delta_qm =            NaN delta_en =            NaN tol =   0.100000E-03
 Iteration #        122
  pAp =  NaN  rzold =  NaN  alpha =  NaN
 delta_qm =            NaN delta_en =            NaN tol =   0.100000E-03
 Iteration #        123
  pAp =  NaN  rzold =  NaN  alpha =  NaN
 delta_qm =            NaN delta_en =            NaN tol =   0.100000E-03
 Iteration #        124
  pAp =  NaN  rzold =  NaN  alpha =  NaN
 delta_qm =            NaN delta_en =            NaN tol =   0.100000E-03
 Iteration #        125
  pAp =  NaN  rzold =  NaN  alpha =  NaN
 delta_qm =            NaN delta_en =            NaN tol =   0.100000E-03
 Iteration #        126
  pAp =  NaN  rzold =  NaN  alpha =  NaN
 delta_qm =            NaN delta_en =            NaN tol =   0.100000E-03
 Iteration #        127
  pAp =  NaN  rzold =  NaN  alpha =  NaN
 delta_qm =            NaN delta_en =            NaN tol =   0.100000E-03
 Iteration #        128
  pAp =  NaN  rzold =  NaN  alpha =  NaN
 delta_qm =            NaN delta_en =            NaN tol =   0.100000E-03
 Iteration #        129
  pAp =  NaN  rzold =  NaN  alpha =  NaN
 delta_qm =            NaN delta_en =            NaN tol =   0.100000E-03
 Iteration #        130
  pAp =  NaN  rzold =  NaN  alpha =  NaN
 delta_qm =            NaN delta_en =            NaN tol =   0.100000E-03
 Iteration #        131
  pAp =  NaN  rzold =  NaN  alpha =  NaN
 delta_qm =            NaN delta_en =            NaN tol =   0.100000E-03
 Iteration #        132
  pAp =  NaN  rzold =  NaN  alpha =  NaN
 delta_qm =            NaN delta_en =            NaN tol =   0.100000E-03
 Iteration #        133
  pAp =  NaN  rzold =  NaN  alpha =  NaN
 delta_qm =            NaN delta_en =            NaN tol =   0.100000E-03
 Iteration #        134
  pAp =  NaN  rzold =  NaN  alpha =  NaN
 delta_qm =            NaN delta_en =            NaN tol =   0.100000E-03
 Iteration #        135
  pAp =  NaN  rzold =  NaN  alpha =  NaN
 delta_qm =            NaN delta_en =            NaN tol =   0.100000E-03
 Iteration #        136
  pAp =  NaN  rzold =  NaN  alpha =  NaN
 delta_qm =            NaN delta_en =            NaN tol =   0.100000E-03
 Iteration #        137
  pAp =  NaN  rzold =  NaN  alpha =  NaN
 delta_qm =            NaN delta_en =            NaN tol =   0.100000E-03
 Iteration #        138
  pAp =  NaN  rzold =  NaN  alpha =  NaN
 delta_qm =            NaN delta_en =            NaN tol =   0.100000E-03
 Iteration #        139
  pAp =  NaN  rzold =  NaN  alpha =  NaN
 delta_qm =            NaN delta_en =            NaN tol =   0.100000E-03
 Iteration #        140
  pAp =  NaN  rzold =  NaN  alpha =  NaN
 delta_qm =            NaN delta_en =            NaN tol =   0.100000E-03
 Iteration #        141
  pAp =  NaN  rzold =  NaN  alpha =  NaN
 delta_qm =            NaN delta_en =            NaN tol =   0.100000E-03
 Iteration #        142
  pAp =  NaN  rzold =  NaN  alpha =  NaN
 delta_qm =            NaN delta_en =            NaN tol =   0.100000E-03
 Iteration #        143
  pAp =  NaN  rzold =  NaN  alpha =  NaN
 delta_qm =            NaN delta_en =            NaN tol =   0.100000E-03
 Iteration #        144
  pAp =  NaN  rzold =  NaN  alpha =  NaN
 delta_qm =            NaN delta_en =            NaN tol =   0.100000E-03
 Iteration #        145
  pAp =  NaN  rzold =  NaN  alpha =  NaN
 delta_qm =            NaN delta_en =            NaN tol =   0.100000E-03
 Iteration #        146
  pAp =  NaN  rzold =  NaN  alpha =  NaN
 delta_qm =            NaN delta_en =            NaN tol =   0.100000E-03
 Iteration #        147
  pAp =  NaN  rzold =  NaN  alpha =  NaN
 delta_qm =            NaN delta_en =            NaN tol =   0.100000E-03
 Iteration #        148
  pAp =  NaN  rzold =  NaN  alpha =  NaN
 delta_qm =            NaN delta_en =            NaN tol =   0.100000E-03
 Iteration #        149
  pAp =  NaN  rzold =  NaN  alpha =  NaN
 delta_qm =            NaN delta_en =            NaN tol =   0.100000E-03
 Iteration #        150
  pAp =  NaN  rzold =  NaN  alpha =  NaN
 delta_qm =            NaN delta_en =            NaN tol =   0.100000E-03
 Iteration #        151
  pAp =  NaN  rzold =  NaN  alpha =  NaN
 delta_qm =            NaN delta_en =            NaN tol =   0.100000E-03
 Iteration #        152
  pAp =  NaN  rzold =  NaN  alpha =  NaN
 delta_qm =            NaN delta_en =            NaN tol =   0.100000E-03
 Iteration #        153
  pAp =  NaN  rzold =  NaN  alpha =  NaN
 delta_qm =            NaN delta_en =            NaN tol =   0.100000E-03
 Iteration #        154
  pAp =  NaN  rzold =  NaN  alpha =  NaN
 delta_qm =            NaN delta_en =            NaN tol =   0.100000E-03
 Iteration #        155
  pAp =  NaN  rzold =  NaN  alpha =  NaN
 delta_qm =            NaN delta_en =            NaN tol =   0.100000E-03
 Iteration #        156
  pAp =  NaN  rzold =  NaN  alpha =  NaN
 delta_qm =            NaN delta_en =            NaN tol =   0.100000E-03
 Iteration #        157
  pAp =  NaN  rzold =  NaN  alpha =  NaN
 delta_qm =            NaN delta_en =            NaN tol =   0.100000E-03
 Iteration #        158
  pAp =  NaN  rzold =  NaN  alpha =  NaN
 delta_qm =            NaN delta_en =            NaN tol =   0.100000E-03
 Iteration #        159
  pAp =  NaN  rzold =  NaN  alpha =  NaN
 delta_qm =            NaN delta_en =            NaN tol =   0.100000E-03
 Iteration #        160
  pAp =  NaN  rzold =  NaN  alpha =  NaN
 delta_qm =            NaN delta_en =            NaN tol =   0.100000E-03
 Iteration #        161
  pAp =  NaN  rzold =  NaN  alpha =  NaN
 delta_qm =            NaN delta_en =            NaN tol =   0.100000E-03
 Iteration #        162
  pAp =  NaN  rzold =  NaN  alpha =  NaN
 delta_qm =            NaN delta_en =            NaN tol =   0.100000E-03
 Iteration #        163
  pAp =  NaN  rzold =  NaN  alpha =  NaN
 delta_qm =            NaN delta_en =            NaN tol =   0.100000E-03
 Iteration #        164
  pAp =  NaN  rzold =  NaN  alpha =  NaN
 delta_qm =            NaN delta_en =            NaN tol =   0.100000E-03
 Iteration #        165
  pAp =  NaN  rzold =  NaN  alpha =  NaN
 delta_qm =            NaN delta_en =            NaN tol =   0.100000E-03
 Iteration #        166
  pAp =  NaN  rzold =  NaN  alpha =  NaN
 delta_qm =            NaN delta_en =            NaN tol =   0.100000E-03
 Iteration #        167
  pAp =  NaN  rzold =  NaN  alpha =  NaN
 delta_qm =            NaN delta_en =            NaN tol =   0.100000E-03
 Iteration #        168
  pAp =  NaN  rzold =  NaN  alpha =  NaN
 delta_qm =            NaN delta_en =            NaN tol =   0.100000E-03
 Iteration #        169
  pAp =  NaN  rzold =  NaN  alpha =  NaN
 delta_qm =            NaN delta_en =            NaN tol =   0.100000E-03
 Iteration #        170
  pAp =  NaN  rzold =  NaN  alpha =  NaN
 delta_qm =            NaN delta_en =            NaN tol =   0.100000E-03
 Iteration #        171
  pAp =  NaN  rzold =  NaN  alpha =  NaN
 delta_qm =            NaN delta_en =            NaN tol =   0.100000E-03
 Iteration #        172
  pAp =  NaN  rzold =  NaN  alpha =  NaN
 delta_qm =            NaN delta_en =            NaN tol =   0.100000E-03
 Iteration #        173
  pAp =  NaN  rzold =  NaN  alpha =  NaN
 delta_qm =            NaN delta_en =            NaN tol =   0.100000E-03
 Iteration #        174
  pAp =  NaN  rzold =  NaN  alpha =  NaN
 delta_qm =            NaN delta_en =            NaN tol =   0.100000E-03
 Iteration #        175
  pAp =  NaN  rzold =  NaN  alpha =  NaN
 delta_qm =            NaN delta_en =            NaN tol =   0.100000E-03
 Iteration #        176
  pAp =  NaN  rzold =  NaN  alpha =  NaN
 delta_qm =            NaN delta_en =            NaN tol =   0.100000E-03
 Iteration #        177
  pAp =  NaN  rzold =  NaN  alpha =  NaN
 delta_qm =            NaN delta_en =            NaN tol =   0.100000E-03
 Iteration #        178
  pAp =  NaN  rzold =  NaN  alpha =  NaN
 delta_qm =            NaN delta_en =            NaN tol =   0.100000E-03
 Iteration #        179
  pAp =  NaN  rzold =  NaN  alpha =  NaN
 delta_qm =            NaN delta_en =            NaN tol =   0.100000E-03
 Iteration #        180
  pAp =  NaN  rzold =  NaN  alpha =  NaN
 delta_qm =            NaN delta_en =            NaN tol =   0.100000E-03
 Iteration #        181
  pAp =  NaN  rzold =  NaN  alpha =  NaN
 delta_qm =            NaN delta_en =            NaN tol =   0.100000E-03
 Iteration #        182
  pAp =  NaN  rzold =  NaN  alpha =  NaN
 delta_qm =            NaN delta_en =            NaN tol =   0.100000E-03
 Iteration #        183
  pAp =  NaN  rzold =  NaN  alpha =  NaN
 delta_qm =            NaN delta_en =            NaN tol =   0.100000E-03
 Iteration #        184
  pAp =  NaN  rzold =  NaN  alpha =  NaN
 delta_qm =            NaN delta_en =            NaN tol =   0.100000E-03
 Iteration #        185
  pAp =  NaN  rzold =  NaN  alpha =  NaN
 delta_qm =            NaN delta_en =            NaN tol =   0.100000E-03
 Iteration #        186
  pAp =  NaN  rzold =  NaN  alpha =  NaN
 delta_qm =            NaN delta_en =            NaN tol =   0.100000E-03
 Iteration #        187
  pAp =  NaN  rzold =  NaN  alpha =  NaN
 delta_qm =            NaN delta_en =            NaN tol =   0.100000E-03
 Iteration #        188
  pAp =  NaN  rzold =  NaN  alpha =  NaN
 delta_qm =            NaN delta_en =            NaN tol =   0.100000E-03
 Iteration #        189
  pAp =  NaN  rzold =  NaN  alpha =  NaN
 delta_qm =            NaN delta_en =            NaN tol =   0.100000E-03
 Iteration #        190
  pAp =  NaN  rzold =  NaN  alpha =  NaN
 delta_qm =            NaN delta_en =            NaN tol =   0.100000E-03
 Iteration #        191
  pAp =  NaN  rzold =  NaN  alpha =  NaN
 delta_qm =            NaN delta_en =            NaN tol =   0.100000E-03
 Iteration #        192
  pAp =  NaN  rzold =  NaN  alpha =  NaN
 delta_qm =            NaN delta_en =            NaN tol =   0.100000E-03
 Iteration #        193
  pAp =  NaN  rzold =  NaN  alpha =  NaN
 delta_qm =            NaN delta_en =            NaN tol =   0.100000E-03
 Iteration #        194
  pAp =  NaN  rzold =  NaN  alpha =  NaN
 delta_qm =            NaN delta_en =            NaN tol =   0.100000E-03
 Iteration #        195
  pAp =  NaN  rzold =  NaN  alpha =  NaN
 delta_qm =            NaN delta_en =            NaN tol =   0.100000E-03
 Iteration #        196
  pAp =  NaN  rzold =  NaN  alpha =  NaN
 delta_qm =            NaN delta_en =            NaN tol =   0.100000E-03
 Iteration #        197
  pAp =  NaN  rzold =  NaN  alpha =  NaN
 delta_qm =            NaN delta_en =            NaN tol =   0.100000E-03
 Iteration #        198
  pAp =  NaN  rzold =  NaN  alpha =  NaN
 delta_qm =            NaN delta_en =            NaN tol =   0.100000E-03
 Iteration #        199
  pAp =  NaN  rzold =  NaN  alpha =  NaN
 delta_qm =            NaN delta_en =            NaN tol =   0.100000E-03
 Iteration #        200
  pAp =  NaN  rzold =  NaN  alpha =  NaN
 delta_qm =            NaN delta_en =            NaN tol =   0.100000E-03
