
     Program PWSCF v.6.1 (svn rev. 13369) starts on  4Oct2017 at 12:28:52 

     This program is part of the open-source Quantum ESPRESSO suite
     for quantum simulation of materials; please cite
         "P. Giannozzi et al., J. Phys.:Condens. Matter 21 395502 (2009);
          URL http://www.quantum-espresso.org", 
     in publications or presentations arising from this work. More details at
     http://www.quantum-espresso.org/quote

     Serial version
     Reading input from charged.in

     Current dimensions of program PWSCF are:
     Max number of different atomic species (ntypx) = 10
     Max number of k-points (npk) =  40000
     Max angular momentum in pseudopotentials (lmaxx) =  3
               file C.pbe-rrkjus.UPF: wavefunction(s)  2S 2P renormalized
               file H.pbe-rrkjus.UPF: wavefunction(s)  1S renormalized
               file N.pbe-rrkjus.UPF: wavefunction(s)  2S renormalized
               file O.pbe-rrkjus.UPF: wavefunction(s)  2S renormalized

     gamma-point specific algorithms are used

     G-vector sticks info
     --------------------
     sticks:   dense  smooth     PW     G-vecs:    dense   smooth      PW
     Sum        9549    3809    949               701475   177509   22119



     bravais-lattice index     =            1
     lattice parameter (alat)  =      20.0000  a.u.
     unit-cell volume          =    8000.0000 (a.u.)^3
     number of atoms/cell      =           10
     number of atomic types    =            4
     number of electrons       =        24.00
     number of Kohn-Sham states=           12
     kinetic-energy cutoff     =      30.0000  Ry
     charge density cutoff     =     300.0000  Ry
     convergence threshold     =      5.0E-03
     mixing beta               =       0.7000
     number of iterations used =            8  plain     mixing
     Exchange-correlation      =  SLA  PW   PBE  PBE ( 1  4  3  4 0 0)


     Environ Module
     ==============

     Plese cite
         O. Andreussi, I. Dabo and N. Marzari, J. Chem. Phys. 136, 064102 (2012)         
     in publications or presentations arising from this work.

     compensation onset threshold      =               0.1000E+03 
     switching function adopted        =                     SCCS 
     density limit for vacuum region   =               0.5000E-02 
     density limit for bulk solvent    =               0.1000E-03 
     static permittivity               =                   100.00 
     epsilon calculation mode          =               electronic 

     Electrostatic Setup
     -------------------
     electrostatic problem to solve    = generalized              
     numerical solver adopted          = cg                       
     type of auxiliary density adopted = none                     
     type of core tool for poisson     = fft                      
     type of core tool for s(r) deriv  = analytic                 



     celldm(1)=  20.000000  celldm(2)=   0.000000  celldm(3)=   0.000000
     celldm(4)=   0.000000  celldm(5)=   0.000000  celldm(6)=   0.000000

     crystal axes: (cart. coord. in units of alat)
               a(1) = (   1.000000   0.000000   0.000000 )  
               a(2) = (   0.000000   1.000000   0.000000 )  
               a(3) = (   0.000000   0.000000   1.000000 )  

     reciprocal axes: (cart. coord. in units 2 pi/alat)
               b(1) = (  1.000000  0.000000  0.000000 )  
               b(2) = (  0.000000  1.000000  0.000000 )  
               b(3) = (  0.000000  0.000000  1.000000 )  


     PseudoPot. # 1 for C  read from file:
     /Users/oliviero/PWSCF/espresso-6.1-Environ-1.0/Environ/tests/../..//pseudo/C.pbe-rrkjus.UPF
     MD5 check sum: 00fb224312de0c5b6853bd333518df6f
     Pseudo is Ultrasoft, Zval =  4.0
     Generated by new atomic code, or converted to UPF format
     Using radial grid of  627 points,  4 beta functions with: 
                l(1) =   0
                l(2) =   0
                l(3) =   1
                l(4) =   1
     Q(r) pseudized with 0 coefficients 


     PseudoPot. # 2 for H  read from file:
     /Users/oliviero/PWSCF/espresso-6.1-Environ-1.0/Environ/tests/../..//pseudo/H.pbe-rrkjus.UPF
     MD5 check sum: 7cc9d459525c9a0585f487a71c3c9563
     Pseudo is Ultrasoft, Zval =  1.0
     Generated by new atomic code, or converted to UPF format
     Using radial grid of 1061 points,  2 beta functions with: 
                l(1) =   0
                l(2) =   0
     Q(r) pseudized with 0 coefficients 


     PseudoPot. # 3 for N  read from file:
     /Users/oliviero/PWSCF/espresso-6.1-Environ-1.0/Environ/tests/../..//pseudo/N.pbe-rrkjus.UPF
     MD5 check sum: 0c3fbe5807a93f9ba59d5a7019aa238b
     Pseudo is Ultrasoft, Zval =  5.0
     Generated by new atomic code, or converted to UPF format
     Using radial grid of 1257 points,  4 beta functions with: 
                l(1) =   0
                l(2) =   0
                l(3) =   1
                l(4) =   1
     Q(r) pseudized with 0 coefficients 


     PseudoPot. # 4 for O  read from file:
     /Users/oliviero/PWSCF/espresso-6.1-Environ-1.0/Environ/tests/../..//pseudo/O.pbe-rrkjus.UPF
     MD5 check sum: 390ba29e75625707450f3bd3f0eb6be9
     Pseudo is Ultrasoft, Zval =  6.0
     Generated by new atomic code, or converted to UPF format
     Using radial grid of 1269 points,  4 beta functions with: 
                l(1) =   0
                l(2) =   0
                l(3) =   1
                l(4) =   1
     Q(r) pseudized with 0 coefficients 


     atomic species   valence    mass     pseudopotential
        C              4.00    12.00000     C ( 1.00)
        H              1.00     1.00000     H ( 1.00)
        N              5.00    14.00000     N ( 1.00)
        O              6.00    16.00000     O ( 1.00)

     No symmetry found



   Cartesian axes

     site n.     atom                  positions (alat units)
         1           C   tau(   1) = (   0.0000000   0.0000000   0.0000000  )
         2           C   tau(   2) = (   0.0000000   0.0000000   0.1455089  )
         3           N   tau(   3) = (   0.1170969   0.0000000  -0.0545024  )
         4           H   tau(   4) = (   0.0476617  -0.0825466   0.1792090  )
         5           H   tau(   5) = (  -0.0953183  -0.0000030   0.1792090  )
         6           H   tau(   6) = (   0.0476566   0.0825496   0.1792090  )
         7           O   tau(   7) = (  -0.0984002  -0.0000019  -0.0641310  )
         8           H   tau(   8) = (   0.1263131  -0.0000015  -0.1475548  )
         9           H   tau(   9) = (   0.1944645   0.0000134  -0.0025716  )
        10           H   tau(  10) = (  -0.0770366  -0.0000045  -0.1522861  )

     number of k points=     1
                       cart. coord. in units 2pi/alat
        k(    1) = (   0.0000000   0.0000000   0.0000000), wk =   2.0000000

     Dense  grid:   350738 G-vectors     FFT dimensions: ( 120, 120, 120)

     Smooth grid:    88755 G-vectors     FFT dimensions: (  72,  72,  72)

     Estimated max dynamical RAM per process >     298.98MB

     Initial potential from superposition of free atoms
     Check: negative starting charge=   -0.000452

     starting charge   24.42266, renormalised to   24.00000

     negative rho (up, down):  4.438E-04 0.000E+00
     Starting wfc are   22 randomized atomic wfcs

     total cpu time spent up to now is       32.1 secs

     Self-consistent Calculation

     iteration #  1     ecut=    30.00 Ry     beta=0.70
     Davidson diagonalization with overlap
     ethr =  1.00E-02,  avg # of iterations =  2.0

     negative rho (up, down):  1.277E-04 0.000E+00

     add environment contribution to local potential
     polarization accuracy = 3.9E-05, # of iterations =  12

     total cpu time spent up to now is       41.3 secs

     total energy              =     -80.23903180 Ry
     Harris-Foulkes estimate   =     -83.01879009 Ry
     estimated scf accuracy    <       3.73442311 Ry
     electrostatic embedding   =       0.00000000 Ry
     correction to one-el term =       0.00000000 Ry

     iteration #  2     ecut=    30.00 Ry     beta=0.70
     Davidson diagonalization with overlap
     ethr =  1.00E-02,  avg # of iterations =  4.0

     negative rho (up, down):  6.920E-04 0.000E+00

     add environment contribution to local potential
     polarization accuracy = 5.1E-05, # of iterations =  14

     total cpu time spent up to now is       51.0 secs

     total energy              =     -80.99107329 Ry
     Harris-Foulkes estimate   =     -76.58388143 Ry
     estimated scf accuracy    <       1.54142754 Ry
     electrostatic embedding   =      -0.16548494 Ry
     correction to one-el term =      -5.06712971 Ry

     iteration #  3     ecut=    30.00 Ry     beta=0.70
     Davidson diagonalization with overlap
     ethr =  6.42E-03,  avg # of iterations =  3.0

     negative rho (up, down):  3.243E-04 0.000E+00

     add environment contribution to local potential
     polarization accuracy = 4.8E-05, # of iterations =  15

     total cpu time spent up to now is       61.2 secs

     total energy              =     -81.33265505 Ry
     Harris-Foulkes estimate   =     -77.00552210 Ry
     estimated scf accuracy    <       0.24275132 Ry
     electrostatic embedding   =      -0.13843119 Ry
     correction to one-el term =      -4.31810868 Ry

     iteration #  4     ecut=    30.00 Ry     beta=0.70
     Davidson diagonalization with overlap
     ethr =  1.01E-03,  avg # of iterations =  4.0

     negative rho (up, down):  8.666E-05 0.000E+00

     add environment contribution to local potential
     polarization accuracy = 7.4E-05, # of iterations =  16

     total cpu time spent up to now is       71.2 secs

     total energy              =     -81.38262603 Ry
     Harris-Foulkes estimate   =     -77.20741181 Ry
     estimated scf accuracy    <       0.02093552 Ry
     electrostatic embedding   =      -0.12544474 Ry
     correction to one-el term =      -4.06040297 Ry

     iteration #  5     ecut=    30.00 Ry     beta=0.70
     Davidson diagonalization with overlap
     ethr =  8.72E-05,  avg # of iterations =  4.0

     negative rho (up, down):  2.756E-04 0.000E+00

     total cpu time spent up to now is       76.5 secs

     End of self-consistent calculation

          k = 0.0000 0.0000 0.0000 ( 11060 PWs)   bands (ev):

   -28.9375 -23.1993 -18.6810 -16.0122 -14.7185 -13.4443 -11.7059 -10.9636
    -9.6059  -9.5911  -9.3543  -7.4402

     highest occupied level (ev):    -7.4402

!    total energy              =     -81.38709697 Ry
     Harris-Foulkes estimate   =     -77.44096567 Ry
     estimated scf accuracy    <       0.00247564 Ry

     The total energy is the sum of the following terms:

     one-electron contribution =    -241.93648300 Ry
     hartree contribution      =     123.13421163 Ry
     xc contribution           =     -22.94468795 Ry
     ewald contribution        =      64.30784006 Ry
     electrostatic embedding   =      -0.12504063 Ry
     correction to one-el term =      -3.82293708 Ry

     convergence has been achieved in   5 iterations

     Forces acting on atoms (cartesian axes, Ry/au):

     atom    1 type  1   force =     0.21835276    0.00002444    0.09997250
     atom    2 type  1   force =    -0.03322198    0.00000977   -0.08062897
     atom    3 type  3   force =    -0.13916212    0.00001842    0.04522264
     atom    4 type  2   force =     0.01776551   -0.02857140    0.00858555
     atom    5 type  2   force =    -0.03292079   -0.00001423    0.01192023
     atom    6 type  2   force =     0.01776803    0.02855181    0.00858543
     atom    7 type  4   force =    -0.08356642   -0.00000220   -0.01002182
     atom    8 type  2   force =     0.00523497   -0.00000664   -0.04816902
     atom    9 type  2   force =     0.03844263   -0.00000199    0.03891792
     atom   10 type  2   force =    -0.00869259   -0.00000798   -0.07438444

     Total force =     0.329176     Total SCF correction =     0.120915
     SCF correction compared to forces is large: reduce conv_thr to get better values

     Writing output data file pwscf.save

     init_run     :     30.69s CPU     31.90s WALL (       1 calls)
     electrons    :     39.39s CPU     44.46s WALL (       1 calls)
     forces       :      3.60s CPU      4.10s WALL (       1 calls)

     Called by init_run:
     wfcinit      :      0.26s CPU      0.26s WALL (       1 calls)
     potinit      :      1.94s CPU      2.12s WALL (       1 calls)

     Called by electrons:
     c_bands      :      2.35s CPU      2.25s WALL (       5 calls)
     sum_band     :      7.17s CPU      7.40s WALL (       5 calls)
     v_of_rho     :      8.04s CPU      8.97s WALL (       6 calls)
     newd         :      3.78s CPU      5.54s WALL (       6 calls)
     mix_rho      :      0.69s CPU      0.79s WALL (       5 calls)

     Called by c_bands:
     init_us_2    :      0.09s CPU      0.12s WALL (      11 calls)
     regterg      :      2.21s CPU      2.09s WALL (       5 calls)

     Called by sum_band:
     sum_band:bec :      0.00s CPU      0.00s WALL (       5 calls)
     addusdens    :      5.66s CPU      5.83s WALL (       5 calls)

     Called by *egterg:
     h_psi        :      2.04s CPU      2.01s WALL (      23 calls)
     s_psi        :      0.11s CPU      0.04s WALL (      23 calls)
     g_psi        :      0.02s CPU      0.02s WALL (      17 calls)
     rdiaghg      :      0.01s CPU      0.01s WALL (      22 calls)

     Called by h_psi:
     h_psi:pot    :      2.02s CPU      1.99s WALL (      23 calls)
     h_psi:calbec :      0.05s CPU      0.06s WALL (      23 calls)
     vloc_psi     :      1.84s CPU      1.89s WALL (      23 calls)
     add_vuspsi   :      0.12s CPU      0.04s WALL (      23 calls)

     General routines
     calbec       :      0.08s CPU      0.08s WALL (      32 calls)
     fft          :     16.40s CPU     16.90s WALL (     273 calls)
     ffts         :      0.11s CPU      0.11s WALL (      11 calls)
     fftw         :      1.50s CPU      1.54s WALL (     244 calls)
     interpolate  :      0.90s CPU      1.00s WALL (      11 calls)
     davcio       :      0.01s CPU      0.01s WALL (       1 calls)


     Environ routines
     calc_eelect  :      0.03s CPU      0.03s WALL (      10 calls)
     calc_velect  :     12.76s CPU     14.58s WALL (       8 calls)
     dielectric   :      1.03s CPU      1.19s WALL (       6 calls)
     calc_felect  :      1.08s CPU      1.19s WALL (       1 calls)

     PWSCF        :  1m13.98s CPU     1m21.07s WALL


   This run was terminated on:  12:30:13   4Oct2017            

=------------------------------------------------------------------------------=
   JOB DONE.
=------------------------------------------------------------------------------=

%%%% IONS %%%%%%%%%%%%%%%%%%%%%%%%%%%%%%%%%%%%%%%%%%%%%%%%%%%%%%%%%%%%%%%%%%%%%%
 number of ions             =         10
 ionic center of charge     =      0.0095530    -0.0000002     0.0063981
 total ionic charge         =    -25.0000000
 ionic dipole               =      0.0000000     0.0000000     0.0000000
 ionic quadrupole (pc)      =    -79.0828058    -5.4513517  -105.8059629
 ionic quadrupole (gauss)   =    -82.2078058    -8.5763517  -108.9309629
 ion   1 type =  1 coordinates =      0.0000000     0.0000000     0.0000000
 ion   2 type =  1 coordinates =      0.0000000     0.0000000     2.9101782
 ion   3 type =  3 coordinates =      2.3419379     0.0000000    -1.0900479
 ion   4 type =  2 coordinates =      0.9532347    -1.6509323     3.5841800
 ion   5 type =  2 coordinates =     -1.9063663    -0.0000596     3.5841809
 ion   6 type =  2 coordinates =      0.9531315     1.6509919     3.5841800
 ion   7 type =  4 coordinates =     -1.9680045    -0.0000375    -1.2826193
 ion   8 type =  2 coordinates =      2.5262613    -0.0000303    -2.9510950
 ion   9 type =  2 coordinates =      3.8892907     0.0002681    -0.0514326
 ion  10 type =  2 coordinates =     -1.5407317    -0.0000890    -3.0457220

%%%% SYSTEM %%%%%%%%%%%%%%%%%%%%%%%%%%%%%%%%%%%%%%%%%%%%%%%%%%%%%%%%%%%%%%%%%%%%
 system is built from all present ionic types
 system defined dimension   =  0 
 system defined axis        =  3 
 system center              =      0.0095530    -0.0000002     0.0063981 
 system width               =      0.5223840 

%%%% ELECTRONS %%%%%%%%%%%%%%%%%%%%%%%%%%%%%%%%%%%%%%%%%%%%%%%%%%%%%%%%%%%%%%%%%
 number of electrons        =         24
 total electronic charge    =     24.0000000
 number of spin components  =  1

%%%% BOUNDARY %%%%%%%%%%%%%%%%%%%%%%%%%%%%%%%%%%%%%%%%%%%%%%%%%%%%%%%%%%%%%%%%%%
 boundary mode              = electronic           
 boundary is built as a function of a smooth density
 function type              =  1 
 using the optimal SCCS function with parameters 
 rhomax                     =      0.0050000 
 rhomin                     =      0.0001000 

%%%% DIELECTRIC %%%%%%%%%%%%%%%%%%%%%%%%%%%%%%%%%%%%%%%%%%%%%%%%%%%%%%%%%%%%%%%%%
 dielectric build on homogeneous background
 environment bulk permitt.  =    100.0000000 
 dielectric flags
 need gradient              =  F 
 need factor depend. sqrt   =  T 
 need gradient of logarithm =  T 

%%%% COMPUTE ELECTROSTATIC POTENTIAL %%%%%%%%%%%%%%%%%%%%%%%%%%%%%%%%%%%%%%%%%%%
 Iteration #          1
  pAp =  92.01284325786163  rzold =  89.11681792761655  alpha =  0.9685258576117564
 delta_qm =   0.144051E-01 delta_en =   0.358571E+03 tol =   0.100000E-03
 Iteration #          2
  pAp =  132.52066443026854  rzold =  17.61325396634246  alpha =  0.13290949032036006
 delta_qm =   0.289070E-02 delta_en =   0.144394E+02 tol =   0.100000E-03
 Iteration #          3
  pAp =  0.8752096493908739  rzold =  0.1895804021121814  alpha =  0.21661141675497417
 delta_qm =   0.145902E-02 delta_en =   0.367844E+01 tol =   0.100000E-03
 Iteration #          4
  pAp =  0.10868490251357997  rzold =  0.023983899729255034  alpha =  0.22067370144862844
 delta_qm =   0.104063E-02 delta_en =   0.187126E+01 tol =   0.100000E-03
 Iteration #          5
  pAp =  0.011034475515118547  rzold =  0.004016259193810153  alpha =  0.36397372836682623
 delta_qm =   0.560004E-03 delta_en =   0.541909E+00 tol =   0.100000E-03
 Iteration #          6
  pAp =  0.0031617735856466116  rzold =  0.0012444015320037612  alpha =  0.3935770536046368
 delta_qm =   0.250805E-03 delta_en =   0.108697E+00 tol =   0.100000E-03
 Iteration #          7
  pAp =  0.00045570269011847197  rzold =  0.00018525136128037228  alpha =  0.40651803313298696
 delta_qm =   0.150204E-03 delta_en =   0.389857E-01 tol =   0.100000E-03
 Iteration #          8
  pAp =  0.0003340931678698429  rzold =  0.00009997320266511226  alpha =  0.29923749504527475
 delta_qm =   0.862175E-04 delta_en =   0.128450E-01 tol =   0.100000E-03
 Iteration #          9
  pAp =  0.00011117585500230412  rzold =  0.00004483632497723828  alpha =  0.40329192859644786
 delta_qm =   0.370895E-04 delta_en =   0.237709E-02 tol =   0.100000E-03
 Iteration #         10
  pAp =  0.00002443675533103872  rzold =  0.000010258991882088176  alpha =  0.41981808726699327
 delta_qm =   0.181116E-04 delta_en =   0.566834E-03 tol =   0.100000E-03
 Iteration #         11
  pAp =  0.000001752098949591324  rzold =  9.356868994306993E-7  alpha =  0.5340377035491903
 delta_qm =   0.992077E-05 delta_en =   0.170073E-03 tol =   0.100000E-03
 Iteration #         12
  pAp =  3.0889836736910956E-7  rzold =  1.9981898898987786E-7  alpha =  0.6468761576557952
 delta_qm =   0.472194E-05 delta_en =   0.385287E-04 tol =   0.100000E-03
 Charges are converged, exit!

%%%% ELECTRONS %%%%%%%%%%%%%%%%%%%%%%%%%%%%%%%%%%%%%%%%%%%%%%%%%%%%%%%%%%%%%%%%%
 number of electrons        =         24
 total electronic charge    =     24.0000000
 number of spin components  =  1

%%%% BOUNDARY %%%%%%%%%%%%%%%%%%%%%%%%%%%%%%%%%%%%%%%%%%%%%%%%%%%%%%%%%%%%%%%%%%
 boundary mode              = electronic           
 boundary is built as a function of a smooth density
 function type              =  1 
 using the optimal SCCS function with parameters 
 rhomax                     =      0.0050000 
 rhomin                     =      0.0001000 

%%%% DIELECTRIC %%%%%%%%%%%%%%%%%%%%%%%%%%%%%%%%%%%%%%%%%%%%%%%%%%%%%%%%%%%%%%%%%
 dielectric build on homogeneous background
 environment bulk permitt.  =    100.0000000 
 dielectric flags
 need gradient              =  F 
 need factor depend. sqrt   =  T 
 need gradient of logarithm =  T 

%%%% COMPUTE ELECTROSTATIC POTENTIAL %%%%%%%%%%%%%%%%%%%%%%%%%%%%%%%%%%%%%%%%%%%
 Warning: bad guess with residual norm =   0.142555E+04, reset to no guess
 Iteration #          1
  pAp =  95.45322278713775  rzold =  92.7269674906458  alpha =  0.9714388344689887
 delta_qm =   0.202001E-01 delta_en =   0.705098E+03 tol =   0.100000E-03
 Iteration #          2
  pAp =  168.37635205321004  rzold =  19.54536624775056  alpha =  0.1160814212293533
 delta_qm =   0.404440E-02 delta_en =   0.282652E+02 tol =   0.100000E-03
 Iteration #          3
  pAp =  1.1430877669403285  rzold =  0.20086427705757037  alpha =  0.17572078266152583
 delta_qm =   0.218209E-02 delta_en =   0.822789E+01 tol =   0.100000E-03
 Iteration #          4
  pAp =  0.12033681781623966  rzold =  0.023384522746175966  alpha =  0.19432558688634516
 delta_qm =   0.161696E-02 delta_en =   0.451799E+01 tol =   0.100000E-03
 Iteration #          5
  pAp =  0.01203975909836669  rzold =  0.004619492864467198  alpha =  0.3836864863096701
 delta_qm =   0.908471E-03 delta_en =   0.142615E+01 tol =   0.100000E-03
 Iteration #          6
  pAp =  0.005230770614241367  rzold =  0.001849805242051741  alpha =  0.35363914391799867
 delta_qm =   0.473628E-03 delta_en =   0.387630E+00 tol =   0.100000E-03
 Iteration #          7
  pAp =  0.0008398201528775583  rzold =  0.0003992888693781753  alpha =  0.47544568680574356
 delta_qm =   0.288924E-03 delta_en =   0.144249E+00 tol =   0.100000E-03
 Iteration #          8
  pAp =  0.0005689592739527041  rzold =  0.00023564844713310293  alpha =  0.4141745427506498
 delta_qm =   0.139627E-03 delta_en =   0.336885E-01 tol =   0.100000E-03
 Iteration #          9
  pAp =  0.0007503607172235072  rzold =  0.0001729451864273995  alpha =  0.2304827297827279
 delta_qm =   0.789320E-04 delta_en =   0.107659E-01 tol =   0.100000E-03
 Iteration #         10
  pAp =  0.00013088923222684263  rzold =  0.00004485338599221425  alpha =  0.3426820161530122
 delta_qm =   0.362170E-04 delta_en =   0.226657E-02 tol =   0.100000E-03
 Iteration #         11
  pAp =  0.000007463878035441773  rzold =  0.0000032856500961711786  alpha =  0.44020683089534257
 delta_qm =   0.207684E-04 delta_en =   0.745335E-03 tol =   0.100000E-03
 Iteration #         12
  pAp =  0.0000018599359624834292  rzold =  7.6193743926284E-7  alpha =  0.4096578885681008
 delta_qm =   0.135911E-04 delta_en =   0.319191E-03 tol =   0.100000E-03
 Iteration #         13
  pAp =  6.046973811155063E-7  rzold =  2.998050189091375E-7  alpha =  0.4957934799652626
 delta_qm =   0.795523E-05 delta_en =   0.109358E-03 tol =   0.100000E-03
 Iteration #         14
  pAp =  3.757154333019417E-7  rzold =  1.4942942325375477E-7  alpha =  0.39771968359273285
 delta_qm =   0.541491E-05 delta_en =   0.506671E-04 tol =   0.100000E-03
 Charges are converged, exit!

%%%% ELECTRONS %%%%%%%%%%%%%%%%%%%%%%%%%%%%%%%%%%%%%%%%%%%%%%%%%%%%%%%%%%%%%%%%%
 number of electrons        =         24
 total electronic charge    =     24.0000000
 number of spin components  =  1

%%%% BOUNDARY %%%%%%%%%%%%%%%%%%%%%%%%%%%%%%%%%%%%%%%%%%%%%%%%%%%%%%%%%%%%%%%%%%
 boundary mode              = electronic           
 boundary is built as a function of a smooth density
 function type              =  1 
 using the optimal SCCS function with parameters 
 rhomax                     =      0.0050000 
 rhomin                     =      0.0001000 

%%%% DIELECTRIC %%%%%%%%%%%%%%%%%%%%%%%%%%%%%%%%%%%%%%%%%%%%%%%%%%%%%%%%%%%%%%%%%
 dielectric build on homogeneous background
 environment bulk permitt.  =    100.0000000 
 dielectric flags
 need gradient              =  F 
 need factor depend. sqrt   =  T 
 need gradient of logarithm =  T 

%%%% COMPUTE ELECTROSTATIC POTENTIAL %%%%%%%%%%%%%%%%%%%%%%%%%%%%%%%%%%%%%%%%%%%
 Warning: bad guess with residual norm =   0.162356E+04, reset to no guess
 Iteration #          1
  pAp =  95.95471529235947  rzold =  93.38744222588404  alpha =  0.9732449514476351
 delta_qm =   0.225239E-01 delta_en =   0.876659E+03 tol =   0.100000E-03
 Iteration #          2
  pAp =  211.4731692099961  rzold =  21.422339207066525  alpha =  0.10130050675976683
 delta_qm =   0.423466E-02 delta_en =   0.309870E+02 tol =   0.100000E-03
 Iteration #          3
  pAp =  1.2263805169888207  rzold =  0.2234123840592984  alpha =  0.18217215698097636
 delta_qm =   0.203971E-02 delta_en =   0.718922E+01 tol =   0.100000E-03
 Iteration #          4
  pAp =  0.10520357341458754  rzold =  0.01939225422188897  alpha =  0.18433075600452978
 delta_qm =   0.159178E-02 delta_en =   0.437836E+01 tol =   0.100000E-03
 Iteration #          5
  pAp =  0.019274901211851932  rzold =  0.005459419143443695  alpha =  0.28323979891978673
 delta_qm =   0.103602E-02 delta_en =   0.185472E+01 tol =   0.100000E-03
 Iteration #          6
  pAp =  0.007054823912724715  rzold =  0.0023767686201005478  alpha =  0.33689977942802996
 delta_qm =   0.569966E-03 delta_en =   0.561361E+00 tol =   0.100000E-03
 Iteration #          7
  pAp =  0.0015755083058763566  rzold =  0.0006635412696050793  alpha =  0.4211601215494658
 delta_qm =   0.371143E-03 delta_en =   0.238027E+00 tol =   0.100000E-03
 Iteration #          8
  pAp =  0.0007290411685566735  rzold =  0.0003498414159991201  alpha =  0.4798651037659809
 delta_qm =   0.191484E-03 delta_en =   0.633590E-01 tol =   0.100000E-03
 Iteration #          9
  pAp =  0.0010769386262146495  rzold =  0.000272710145438845  alpha =  0.2532271930828581
 delta_qm =   0.136312E-03 delta_en =   0.321080E-01 tol =   0.100000E-03
 Iteration #         10
  pAp =  0.0006051017274094204  rzold =  0.0001531834192245676  alpha =  0.25315316794810855
 delta_qm =   0.583242E-04 delta_en =   0.587815E-02 tol =   0.100000E-03
 Iteration #         11
  pAp =  0.00004566753854617109  rzold =  0.000015530703876468835  alpha =  0.3400819131245027
 delta_qm =   0.349006E-04 delta_en =   0.210479E-02 tol =   0.100000E-03
 Iteration #         12
  pAp =  0.000014370281107048557  rzold =  0.000003982053740344409  alpha =  0.27710339906929377
 delta_qm =   0.232656E-04 delta_en =   0.935350E-03 tol =   0.100000E-03
 Iteration #         13
  pAp =  0.0000019614758612650055  rzold =  8.530200419575771E-7  alpha =  0.4348868414865136
 delta_qm =   0.136214E-04 delta_en =   0.320619E-03 tol =   0.100000E-03
 Iteration #         14
  pAp =  9.183534103755182E-7  rzold =  3.867844969438857E-7  alpha =  0.42117173255307894
 delta_qm =   0.924573E-05 delta_en =   0.147716E-03 tol =   0.100000E-03
 Iteration #         15
  pAp =  2.95486748794746E-7  rzold =  1.3780782950689443E-7  alpha =  0.46637566682430115
 delta_qm =   0.529674E-05 delta_en =   0.484798E-04 tol =   0.100000E-03
 Charges are converged, exit!

%%%% ELECTRONS %%%%%%%%%%%%%%%%%%%%%%%%%%%%%%%%%%%%%%%%%%%%%%%%%%%%%%%%%%%%%%%%%
 number of electrons        =         24
 total electronic charge    =     24.0000000
 number of spin components  =  1

%%%% BOUNDARY %%%%%%%%%%%%%%%%%%%%%%%%%%%%%%%%%%%%%%%%%%%%%%%%%%%%%%%%%%%%%%%%%%
 boundary mode              = electronic           
 boundary is built as a function of a smooth density
 function type              =  1 
 using the optimal SCCS function with parameters 
 rhomax                     =      0.0050000 
 rhomin                     =      0.0001000 

%%%% DIELECTRIC %%%%%%%%%%%%%%%%%%%%%%%%%%%%%%%%%%%%%%%%%%%%%%%%%%%%%%%%%%%%%%%%%
 dielectric build on homogeneous background
 environment bulk permitt.  =    100.0000000 
 dielectric flags
 need gradient              =  F 
 need factor depend. sqrt   =  T 
 need gradient of logarithm =  T 

%%%% COMPUTE ELECTROSTATIC POTENTIAL %%%%%%%%%%%%%%%%%%%%%%%%%%%%%%%%%%%%%%%%%%%
 Warning: bad guess with residual norm =   0.254216E+04, reset to no guess
 Iteration #          1
  pAp =  95.8690962205218  rzold =  93.27401714720688  alpha =  0.9729310155657918
 delta_qm =   0.276959E-01 delta_en =   0.132549E+04 tol =   0.100000E-03
 Iteration #          2
  pAp =  251.29116860733365  rzold =  23.528648030386844  alpha =  0.0936310183950499
 delta_qm =   0.507395E-02 delta_en =   0.444873E+02 tol =   0.100000E-03
 Iteration #          3
  pAp =  1.7394478979864731  rzold =  0.290090315460786  alpha =  0.16677148869856054
 delta_qm =   0.235965E-02 delta_en =   0.962140E+01 tol =   0.100000E-03
 Iteration #          4
  pAp =  0.13913211021020677  rzold =  0.02383953505333928  alpha =  0.1713445948409859
 delta_qm =   0.188095E-02 delta_en =   0.611362E+01 tol =   0.100000E-03
 Iteration #          5
  pAp =  0.025607801001361417  rzold =  0.0064433270444628245  alpha =  0.25161578864660306
 delta_qm =   0.128331E-02 delta_en =   0.284584E+01 tol =   0.100000E-03
 Iteration #          6
  pAp =  0.008422423407547324  rzold =  0.0027292562152109443  alpha =  0.32404642739348166
 delta_qm =   0.748393E-03 delta_en =   0.967839E+00 tol =   0.100000E-03
 Iteration #          7
  pAp =  0.002328714946881071  rzold =  0.0008714626837102155  alpha =  0.37422471345296937
 delta_qm =   0.526994E-03 delta_en =   0.479905E+00 tol =   0.100000E-03
 Iteration #          8
  pAp =  0.001175886094645808  rzold =  0.00045289610229317  alpha =  0.3851530385088771
 delta_qm =   0.307265E-03 delta_en =   0.163144E+00 tol =   0.100000E-03
 Iteration #          9
  pAp =  0.0019990703061352117  rzold =  0.0004911580442583458  alpha =  0.24569323187431968
 delta_qm =   0.235207E-03 delta_en =   0.955968E-01 tol =   0.100000E-03
 Iteration #         10
  pAp =  0.0007680946685928926  rzold =  0.0002570472665043197  alpha =  0.3346557097905864
 delta_qm =   0.982198E-04 delta_en =   0.166702E-01 tol =   0.100000E-03
 Iteration #         11
  pAp =  0.00011992419943690286  rzold =  0.00003955677059371413  alpha =  0.32984811055192076
 delta_qm =   0.616213E-04 delta_en =   0.656154E-02 tol =   0.100000E-03
 Iteration #         12
  pAp =  0.00003890943163103431  rzold =  0.000010270037053349716  alpha =  0.26394723908427115
 delta_qm =   0.435167E-04 delta_en =   0.327232E-02 tol =   0.100000E-03
 Iteration #         13
  pAp =  0.000005785923477259119  rzold =  0.0000022946309109788903  alpha =  0.39658853422408075
 delta_qm =   0.275596E-04 delta_en =   0.131247E-02 tol =   0.100000E-03
 Iteration #         14
  pAp =  0.0000028905968147015707  rzold =  0.0000011802461445133425  alpha =  0.4083053501306763
 delta_qm =   0.192880E-04 delta_en =   0.642862E-03 tol =   0.100000E-03
 Iteration #         15
  pAp =  0.0000010636019488840652  rzold =  4.767118438207672E-7  alpha =  0.44820512440855803
 delta_qm =   0.109178E-04 delta_en =   0.205975E-03 tol =   0.100000E-03
 Iteration #         16
  pAp =  4.815408923854702E-7  rzold =  2.060300137437975E-7  alpha =  0.42785569616561636
 delta_qm =   0.655431E-05 delta_en =   0.742332E-04 tol =   0.100000E-03
 Charges are converged, exit!

%%%% ELECTRONS %%%%%%%%%%%%%%%%%%%%%%%%%%%%%%%%%%%%%%%%%%%%%%%%%%%%%%%%%%%%%%%%%
 number of electrons        =         24
 total electronic charge    =     24.0000000
 number of spin components  =  1

%%%% BOUNDARY %%%%%%%%%%%%%%%%%%%%%%%%%%%%%%%%%%%%%%%%%%%%%%%%%%%%%%%%%%%%%%%%%%
 boundary mode              = electronic           
 boundary is built as a function of a smooth density
 function type              =  1 
 using the optimal SCCS function with parameters 
 rhomax                     =      0.0050000 
 rhomin                     =      0.0001000 

%%%% DIELECTRIC %%%%%%%%%%%%%%%%%%%%%%%%%%%%%%%%%%%%%%%%%%%%%%%%%%%%%%%%%%%%%%%%%
 dielectric build on homogeneous background
 environment bulk permitt.  =    100.0000000 
 dielectric flags
 need gradient              =  F 
 need factor depend. sqrt   =  T 
 need gradient of logarithm =  T 
