
     Program PWSCF v.6.7+ starts on 20Apr2021 at 12:26:58 

     This program is part of the open-source Quantum ESPRESSO suite
     for quantum simulation of materials; please cite
         "P. Giannozzi et al., J. Phys.:Condens. Matter 21 395502 (2009);
         "P. Giannozzi et al., J. Phys.:Condens. Matter 29 465901 (2017);
          URL http://www.quantum-espresso.org", 
     in publications or presentations arising from this work. More details at
     http://www.quantum-espresso.org/quote

     Parallel version (MPI), running on     1 processors

     MPI processes distributed on     1 nodes
     Reading input from neutral.in

     Current dimensions of program PWSCF are:
     Max number of different atomic species (ntypx) = 10
     Max number of k-points (npk) =  40000
     Max angular momentum in pseudopotentials (lmaxx) =  3
     file H.pbe-rrkjus.UPF: wavefunction(s)  1S renormalized
     file O.pbe-rrkjus.UPF: wavefunction(s)  2S renormalized

     gamma-point specific algorithms are used

     Subspace diagonalization in iterative solution of the eigenvalue problem:
     a serial algorithm will be used


     G-vector sticks info
     --------------------
     sticks:   dense  smooth     PW     G-vecs:    dense   smooth      PW
     Sum        9549    3809    949               701475   177509   22119



     bravais-lattice index     =            1
     lattice parameter (alat)  =      20.0000  a.u.
     unit-cell volume          =    8000.0000 (a.u.)^3
     number of atoms/cell      =            3
     number of atomic types    =            2
     number of electrons       =         8.00
     number of Kohn-Sham states=            4
     kinetic-energy cutoff     =      30.0000  Ry
     charge density cutoff     =     300.0000  Ry
     scf convergence threshold =      5.0E-03
     mixing beta               =       0.7000
     number of iterations used =            8  plain     mixing
     Exchange-correlation= SLA  PW   PBE  PBE
                           (   1   4   3   4   0   0   0)


     Environ Module
     ==============

     Plese cite
         O. Andreussi, I. Dabo and N. Marzari, J. Chem. Phys. 136, 064102 (2012)         
     in publications or presentations arising from this work.

     compensation onset threshold      =               0.1000E+03 
     static permittivity               =                   100.00 
     epsilon calculation mode          =               electronic 

     Electrostatic Setup
     -------------------
     electrostatic problem to solve    = generalized              
     numerical solver adopted          = cg                       
     type of auxiliary density adopted = none                     
     type of core tool for poisson     = fft                      



     celldm(1)=  20.000000  celldm(2)=   0.000000  celldm(3)=   0.000000
     celldm(4)=   0.000000  celldm(5)=   0.000000  celldm(6)=   0.000000

     crystal axes: (cart. coord. in units of alat)
               a(1) = (   1.000000   0.000000   0.000000 )  
               a(2) = (   0.000000   1.000000   0.000000 )  
               a(3) = (   0.000000   0.000000   1.000000 )  

     reciprocal axes: (cart. coord. in units 2 pi/alat)
               b(1) = (  1.000000  0.000000  0.000000 )  
               b(2) = (  0.000000  1.000000  0.000000 )  
               b(3) = (  0.000000  0.000000  1.000000 )  


     PseudoPot. # 1 for H  read from file:
     /Users/gabrielmedrano/Desktop/q-e/Environ/tests/../..//pseudo/H.pbe-rrkjus.UPF
     MD5 check sum: 2d52a7f45632fd764c17cc6affed14c8
     Pseudo is Ultrasoft, Zval =  1.0
     Generated by new atomic code, or converted to UPF format
     Using radial grid of 1061 points,  2 beta functions with: 
                l(1) =   0
                l(2) =   0
     Q(r) pseudized with 0 coefficients 


     PseudoPot. # 2 for O  read from file:
     /Users/gabrielmedrano/Desktop/q-e/Environ/tests/../..//pseudo/O.pbe-rrkjus.UPF
     MD5 check sum: fadcf19ee70a498d3030e2e79cf929a4
     Pseudo is Ultrasoft, Zval =  6.0
     Generated by new atomic code, or converted to UPF format
     Using radial grid of 1269 points,  4 beta functions with: 
                l(1) =   0
                l(2) =   0
                l(3) =   1
                l(4) =   1
     Q(r) pseudized with 0 coefficients 


     atomic species   valence    mass     pseudopotential
        H              1.00     1.00000     H ( 1.00)
        O              6.00    16.00000     O ( 1.00)

     No symmetry found



   Cartesian axes

     site n.     atom                  positions (alat units)
         1           O   tau(   1) = (   0.5895000   0.6025000   0.5750000  )
         2           H   tau(   2) = (   0.6725000   0.5610000   0.5750000  )
         3           H   tau(   3) = (   0.5280000   0.5330000   0.5750000  )

     number of k points=     1
                       cart. coord. in units 2pi/alat
        k(    1) = (   0.0000000   0.0000000   0.0000000), wk =   2.0000000

     Dense  grid:   350738 G-vectors     FFT dimensions: ( 120, 120, 120)

     Smooth grid:    88755 G-vectors     FFT dimensions: (  72,  72,  72)

     Estimated max dynamical RAM per process >     530.91 MB

     Initial potential from superposition of free atoms

     starting charge    7.80759, renormalised to    8.00000

     negative rho (up, down):  7.936E-04 0.000E+00
     Starting wfcs are    6 randomized atomic wfcs

     total cpu time spent up to now is        3.8 secs

     Self-consistent Calculation

     iteration #  1     ecut=    30.00 Ry     beta= 0.70
     Davidson diagonalization with overlap
     ethr =  1.00E-02,  avg # of iterations =  2.0

     negative rho (up, down):  2.568E-04 0.000E+00

     add environment contribution to local potential
     polarization accuracy = 2.2E-06, # of iterations =  11

     total cpu time spent up to now is        8.3 secs

     total energy              =     -34.06919233 Ry
     estimated scf accuracy    <       0.67469661 Ry
     electrostatic embedding   =       0.00000000 Ry
     correction to one-el term =      -0.00000000 Ry

     iteration #  2     ecut=    30.00 Ry     beta= 0.70
     Davidson diagonalization with overlap
     ethr =  8.43E-03,  avg # of iterations =  2.0

     negative rho (up, down):  2.177E-03 0.000E+00

     add environment contribution to local potential
     polarization accuracy = 5.0E-06, # of iterations =  12

     total cpu time spent up to now is       13.2 secs

     total energy              =     -34.24021015 Ry
     estimated scf accuracy    <       0.27751704 Ry
     electrostatic embedding   =      -0.03817552 Ry
     correction to one-el term =      -0.41235599 Ry

     iteration #  3     ecut=    30.00 Ry     beta= 0.70
     Davidson diagonalization with overlap
     ethr =  3.47E-03,  avg # of iterations =  2.0

     negative rho (up, down):  3.027E-04 0.000E+00

     add environment contribution to local potential
     polarization accuracy = 5.4E-06, # of iterations =  13

     total cpu time spent up to now is       18.7 secs

     total energy              =     -34.29261720 Ry
     estimated scf accuracy    <       0.00751441 Ry
     electrostatic embedding   =      -0.02939560 Ry
     correction to one-el term =      -0.27961972 Ry

     iteration #  4     ecut=    30.00 Ry     beta= 0.70
     Davidson diagonalization with overlap
     ethr =  9.39E-05,  avg # of iterations =  2.0

     negative rho (up, down):  2.090E-04 0.000E+00

     the potential shift due to the Gaussian-smeared nuclei is    -0.0214 ev

     total cpu time spent up to now is       20.9 secs

     End of self-consistent calculation

          k = 0.0000 0.0000 0.0000 ( 11060 PWs)   bands (ev):

   -24.6592 -12.3980  -8.8784  -6.9168

     highest occupied level (ev):    -6.9168

!    total energy              =     -34.29534513 Ry
     estimated scf accuracy    <       0.00070799 Ry

     The total energy is the sum of the following terms:
     one-electron contribution =     -63.92086434 Ry
     hartree contribution      =      33.61079597 Ry
     xc contribution           =      -8.42567521 Ry
     ewald contribution        =       4.55735774 Ry
     electrostatic embedding   =      -0.03281125 Ry
     correction to one-el term =      -0.08414805 Ry

     convergence has been achieved in   4 iterations
 forces lc
       1    0.0484   -0.2501    0.0000
       2    0.0383   -0.0385    0.0000
       3   -0.0212   -0.0499    0.0000

     Forces acting on atoms (cartesian axes, Ry/au):

     atom    1 type  2   force =     0.00212260   -0.01101684   -0.00000439
     atom    2 type  1   force =    -0.01363119    0.00304707    0.00000245
     atom    3 type  1   force =     0.01150859    0.00796977    0.00000195

     Total force =     0.022736     Total SCF correction =     0.033372
     SCF correction compared to forces is large: reduce conv_thr to get better values

     Writing output data file /Users/gabrielmedrano/Desktop/q-e/Environ/tests/../..//tempdir/pwscf.save/

     init_run     :      3.34s CPU      3.71s WALL (       1 calls)
     electrons    :     16.42s CPU     17.12s WALL (       1 calls)
     forces       :      0.66s CPU      0.72s WALL (       1 calls)

     Called by init_run:
     wfcinit      :      0.03s CPU      0.04s WALL (       1 calls)
     potinit      :      1.60s CPU      1.75s WALL (       1 calls)
     hinit0       :      1.19s CPU      1.25s WALL (       1 calls)

     Called by electrons:
     c_bands      :      0.26s CPU      0.26s WALL (       4 calls)
     sum_band     :      2.00s CPU      1.37s WALL (       4 calls)
     v_of_rho     :      2.87s CPU      3.35s WALL (       5 calls)
     newd         :      0.98s CPU      1.25s WALL (       5 calls)
     mix_rho      :      0.25s CPU      0.28s WALL (       4 calls)

     Called by c_bands:
     init_us_2    :      0.01s CPU      0.01s WALL (       9 calls)
     regterg      :      0.25s CPU      0.25s WALL (       4 calls)

     Called by *egterg:
     rdiaghg      :      0.00s CPU      0.00s WALL (      12 calls)
     h_psi        :      0.24s CPU      0.26s WALL (      13 calls)
     s_psi        :      0.01s CPU      0.00s WALL (      13 calls)
     g_psi        :      0.00s CPU      0.00s WALL (       8 calls)

     Called by h_psi:
     h_psi:calbec :      0.00s CPU      0.00s WALL (      13 calls)
     vloc_psi     :      0.22s CPU      0.22s WALL (      13 calls)
     add_vuspsi   :      0.02s CPU      0.04s WALL (      13 calls)

     General routines
     calbec       :      0.00s CPU      0.01s WALL (      21 calls)
     fft          :      8.35s CPU      8.75s WALL (     196 calls)
     ffts         :      0.05s CPU      0.05s WALL (       9 calls)
     fftw         :      0.20s CPU      0.20s WALL (      62 calls)
     interpolate  :      0.22s CPU      0.26s WALL (       5 calls)

     Parallel routines
     fft_scatt_xy :      0.71s CPU      0.72s WALL (     139 calls)
     fft_scatt_yz :      0.94s CPU      0.95s WALL (     139 calls)

     Environ routines
     calc_eelect  :      0.02s CPU      0.02s WALL (       8 calls)
     calc_velect  :      6.03s CPU      6.40s WALL (       6 calls)
     dielectric   :      0.30s CPU      0.34s WALL (       6 calls)
     calc_felect  :      0.18s CPU      0.19s WALL (       1 calls)

     PWSCF        :     20.47s CPU     21.70s WALL


   This run was terminated on:  12:27:20  20Apr2021            

=------------------------------------------------------------------------------=
   JOB DONE.
=------------------------------------------------------------------------------=
 Calling electrostatic_initbase now
 electrolyte_distance:    0.0000000000000000     
 sc_distance:    0.0000000000000000     
 velectrostatic started
 vreference created

%%%% IONS %%%%%%%%%%%%%%%%%%%%%%%%%%%%%%%%%%%%%%%%%%%%%%%%%%%%%%%%%%%%%%%%%%%%%%
 number of ions             =          3
 ionic center of charge     =      0.5921875     0.5886250     0.5750000
 total ionic charge         =     -8.0000000
 ionic dipole               =      0.0000000     0.0000000     0.0000000
 ionic quadrupole (pc)      =     -4.2453875    -2.0049500     0.0000000
 ionic quadrupole (gauss)   =     -5.2453875    -3.0049500    -1.0000000
 ion   1 type =  2 coordinates =     11.7900000    12.0500000    11.5000000
 ion   2 type =  1 coordinates =     13.4500000    11.2200000    11.5000000
 ion   3 type =  1 coordinates =     10.5600000    10.6600000    11.5000000

%%%% SYSTEM %%%%%%%%%%%%%%%%%%%%%%%%%%%%%%%%%%%%%%%%%%%%%%%%%%%%%%%%%%%%%%%%%%%%
 system is built from all present ionic types
 system defined dimension   =  0 
 system defined axis        =  3 
 system center              =      0.5921875     0.5886250     0.5750000 
 system width               =      0.0849363 

%%%% IONS %%%%%%%%%%%%%%%%%%%%%%%%%%%%%%%%%%%%%%%%%%%%%%%%%%%%%%%%%%%%%%%%%%%%%%
 number of ions             =          3
 ionic center of charge     =      0.5921875     0.5886250     0.5750000
 total ionic charge         =     -8.0000000
 ionic dipole               =      0.0000000     0.0000000     0.0000000
 ionic quadrupole (pc)      =     -4.2453875    -2.0049500     0.0000000
 ionic quadrupole (gauss)   =     -5.2453875    -3.0049500    -1.0000000
 ion   1 type =  2 coordinates =     11.7900000    12.0500000    11.5000000
 ion   2 type =  1 coordinates =     13.4500000    11.2200000    11.5000000
 ion   3 type =  1 coordinates =     10.5600000    10.6600000    11.5000000

%%%% SYSTEM %%%%%%%%%%%%%%%%%%%%%%%%%%%%%%%%%%%%%%%%%%%%%%%%%%%%%%%%%%%%%%%%%%%%
 system is built from all present ionic types
 system defined dimension   =  0 
 system defined axis        =  3 
 system center              =      0.5921875     0.5886250     0.5750000 
 system width               =      0.0849363 

%%%% ELECTRONS %%%%%%%%%%%%%%%%%%%%%%%%%%%%%%%%%%%%%%%%%%%%%%%%%%%%%%%%%%%%%%%%%
 number of electrons        =          8
 total electronic charge    =      8.0000000

%%%% ELECTRONS %%%%%%%%%%%%%%%%%%%%%%%%%%%%%%%%%%%%%%%%%%%%%%%%%%%%%%%%%%%%%%%%%
 number of electrons        =          8
 total electronic charge    =      8.0000000

%%%% BOUNDARY %%%%%%%%%%%%%%%%%%%%%%%%%%%%%%%%%%%%%%%%%%%%%%%%%%%%%%%%%%%%%%%%%%
 boundary label             = solvent              
 boundary mode              = electronic           
 boundary is built as a function of a smooth density
 function type              =  2 
 using the modified SCCS function with parameters 
 rhomax                     =      0.0050000 
 rhomin                     =      0.0001000 
 volume of the QM region    =    925.9497833 
 surface of the QM region   =    444.2662167 

%%%% DIELECTRIC %%%%%%%%%%%%%%%%%%%%%%%%%%%%%%%%%%%%%%%%%%%%%%%%%%%%%%%%%%%%%%%%%
 dielectric build on homogeneous background
 environment bulk permitt.  =    100.0000000 
 dielectric flags
 need gradient              =  F 
 need factor depend. sqrt   =  T 
 total dielectric charge    =      0.0000000

%%%% DENSITY %%%%%%%%%%%%%%%%%%%%%%%%%%%%%%%%%%%%%%%%%%%%%%%%%%%%%%%%%%%%%%%%%%%
 density label              = dvtot                                                                           
 integral of density        =      0.000000000    

%%%% DENSITY %%%%%%%%%%%%%%%%%%%%%%%%%%%%%%%%%%%%%%%%%%%%%%%%%%%%%%%%%%%%%%%%%%%
 density label              = vreference                                                                      
 integral of density        =      0.000000000    

%%%% DENSITY %%%%%%%%%%%%%%%%%%%%%%%%%%%%%%%%%%%%%%%%%%%%%%%%%%%%%%%%%%%%%%%%%%%
 density label              = velectrostatic                                                                  
 integral of density        =      0.000000000    

%%%% CHARGES %%%%%%%%%%%%%%%%%%%%%%%%%%%%%%%%%%%%%%%%%%%%%%%%%%%%%%%%%%%%%%%%%%%
 total number of charges    =         11
 total charge               =     -0.0000000

%%%% DENSITY %%%%%%%%%%%%%%%%%%%%%%%%%%%%%%%%%%%%%%%%%%%%%%%%%%%%%%%%%%%%%%%%%%%
 density label              = vsoftcavity                                                                     
 integral of density        =      0.000000000    

%%%% ELECTRONS %%%%%%%%%%%%%%%%%%%%%%%%%%%%%%%%%%%%%%%%%%%%%%%%%%%%%%%%%%%%%%%%%
 number of electrons        =          8
 total electronic charge    =      8.0000000

%%%% ELECTRONS %%%%%%%%%%%%%%%%%%%%%%%%%%%%%%%%%%%%%%%%%%%%%%%%%%%%%%%%%%%%%%%%%
 number of electrons        =          8
 total electronic charge    =      8.0000000

%%%% BOUNDARY %%%%%%%%%%%%%%%%%%%%%%%%%%%%%%%%%%%%%%%%%%%%%%%%%%%%%%%%%%%%%%%%%%
 boundary label             = solvent              
 boundary mode              = electronic           
 boundary is built as a function of a smooth density
 function type              =  2 
 using the modified SCCS function with parameters 
 rhomax                     =      0.0050000 
 rhomin                     =      0.0001000 
 volume of the QM region    =    308.5565240 
 surface of the QM region   =    219.9269543 

%%%% DIELECTRIC %%%%%%%%%%%%%%%%%%%%%%%%%%%%%%%%%%%%%%%%%%%%%%%%%%%%%%%%%%%%%%%%%
 dielectric build on homogeneous background
 environment bulk permitt.  =    100.0000000 
 dielectric flags
 need gradient              =  F 
 need factor depend. sqrt   =  T 
 total dielectric charge    =      0.0000000

%%%% DENSITY %%%%%%%%%%%%%%%%%%%%%%%%%%%%%%%%%%%%%%%%%%%%%%%%%%%%%%%%%%%%%%%%%%%
 density label              = vreference                                                                      
 integral of density        =     0.2182786006E-12

%%%% COMPUTE ELECTROSTATIC POTENTIAL %%%%%%%%%%%%%%%%%%%%%%%%%%%%%%%%%%%%%%%%%%%
 Iteration #          1
  pAp =    26.765413049213901       rzold =    26.200351354050724       alpha =   0.97888836259974055     
 delta_qm =   0.833711E-02 delta_en =   0.120109E+03 tol =   0.100000E-04
 Iteration #          2
  pAp =    26.665406911386285       rzold =    3.3767869030394784       alpha =   0.12663549122880891     
 delta_qm =   0.275127E-02 delta_en =   0.130800E+02 tol =   0.100000E-04
 Iteration #          3
  pAp =    1.6637648607897990       rzold =   0.23564124323750527       alpha =   0.14163133793175856     
 delta_qm =   0.786863E-03 delta_en =   0.106990E+01 tol =   0.100000E-04
 Iteration #          4
  pAp =    3.2602062212279508E-002  rzold =    8.4897677135955928E-003  alpha =   0.26040584973787140     
 delta_qm =   0.437314E-03 delta_en =   0.330469E+00 tol =   0.100000E-04
 Iteration #          5
  pAp =    1.2142448061212069E-003  rzold =    7.2074781939276717E-004  alpha =   0.59357702479710794     
 delta_qm =   0.125491E-03 delta_en =   0.272126E-01 tol =   0.100000E-04
 Iteration #          6
  pAp =    2.1461719967012612E-004  rzold =    8.4118892140163228E-005  alpha =   0.39194851237205969     
 delta_qm =   0.715963E-04 delta_en =   0.885777E-02 tol =   0.100000E-04
 Iteration #          7
  pAp =    6.8295926645421979E-006  rzold =    7.2910735210417879E-006  alpha =    1.0675707731290478     
 delta_qm =   0.328222E-04 delta_en =   0.186157E-02 tol =   0.100000E-04
 Iteration #          8
  pAp =    8.2895465689105532E-006  rzold =    4.0529846561878154E-006  alpha =   0.48892718347084158     
 delta_qm =   0.162434E-04 delta_en =   0.455929E-03 tol =   0.100000E-04
 Iteration #          9
  pAp =    4.7405406137231218E-006  rzold =    1.4569635144303406E-006  alpha =   0.30734121551720484     
 delta_qm =   0.882221E-05 delta_en =   0.134493E-03 tol =   0.100000E-04
 Iteration #         10
  pAp =    1.2510653637870219E-006  rzold =    3.5257293578412523E-007  alpha =   0.28181815753964579     
 delta_qm =   0.495383E-05 delta_en =   0.424058E-04 tol =   0.100000E-04
 Iteration #         11
  pAp =    1.2695966287219651E-007  rzold =    7.5309337040505031E-008  alpha =   0.59317530731248791     
 delta_qm =   0.113669E-05 delta_en =   0.223270E-05 tol =   0.100000E-04
 Charges are converged, EXIT

%%%% DENSITY %%%%%%%%%%%%%%%%%%%%%%%%%%%%%%%%%%%%%%%%%%%%%%%%%%%%%%%%%%%%%%%%%%%
 density label              = velectrostatic                                                                  
 integral of density        =     0.2961103034E-11

%%%% CHARGES %%%%%%%%%%%%%%%%%%%%%%%%%%%%%%%%%%%%%%%%%%%%%%%%%%%%%%%%%%%%%%%%%%%
 total number of charges    =         11
 total charge               =      0.0000000

%%%% DENSITY %%%%%%%%%%%%%%%%%%%%%%%%%%%%%%%%%%%%%%%%%%%%%%%%%%%%%%%%%%%%%%%%%%%
 density label              = vsoftcavity                                                                     
 integral of density        =      15.50685311    

%%%% DENSITY %%%%%%%%%%%%%%%%%%%%%%%%%%%%%%%%%%%%%%%%%%%%%%%%%%%%%%%%%%%%%%%%%%%
 density label              = dvtot                                                                           
 integral of density        =      15.50685311    

%%%% ELECTRONS %%%%%%%%%%%%%%%%%%%%%%%%%%%%%%%%%%%%%%%%%%%%%%%%%%%%%%%%%%%%%%%%%
 number of electrons        =          8
 total electronic charge    =      8.0000000

%%%% ELECTRONS %%%%%%%%%%%%%%%%%%%%%%%%%%%%%%%%%%%%%%%%%%%%%%%%%%%%%%%%%%%%%%%%%
 number of electrons        =          8
 total electronic charge    =      8.0000000

%%%% BOUNDARY %%%%%%%%%%%%%%%%%%%%%%%%%%%%%%%%%%%%%%%%%%%%%%%%%%%%%%%%%%%%%%%%%%
 boundary label             = solvent              
 boundary mode              = electronic           
 boundary is built as a function of a smooth density
 function type              =  2 
 using the modified SCCS function with parameters 
 rhomax                     =      0.0050000 
 rhomin                     =      0.0001000 
 volume of the QM region    =    326.9117558 
 surface of the QM region   =    229.0356350 

%%%% DIELECTRIC %%%%%%%%%%%%%%%%%%%%%%%%%%%%%%%%%%%%%%%%%%%%%%%%%%%%%%%%%%%%%%%%%
 dielectric build on homogeneous background
 environment bulk permitt.  =    100.0000000 
 dielectric flags
 need gradient              =  F 
 need factor depend. sqrt   =  T 
 total dielectric charge    =      0.0000228

%%%% DENSITY %%%%%%%%%%%%%%%%%%%%%%%%%%%%%%%%%%%%%%%%%%%%%%%%%%%%%%%%%%%%%%%%%%%
 density label              = vreference                                                                      
 integral of density        =     0.1144574115E-11

%%%% COMPUTE ELECTROSTATIC POTENTIAL %%%%%%%%%%%%%%%%%%%%%%%%%%%%%%%%%%%%%%%%%%%
 Warning: bad guess with residual norm =   0.167083E+03, reset to no guess
 Iteration #          1
  pAp =    28.816229027138352       rzold =    28.398283302934971       alpha =   0.98549616871070223     
 delta_qm =   0.970825E-02 delta_en =   0.162864E+03 tol =   0.100000E-04
 Iteration #          2
  pAp =    19.959038602995495       rzold =    2.5252345078970460       alpha =   0.12652084893097273     
 delta_qm =   0.297004E-02 delta_en =   0.152429E+02 tol =   0.100000E-04
 Iteration #          3
  pAp =    1.2216376310237367       rzold =   0.17095624316627112       alpha =   0.13994022353667115     
 delta_qm =   0.931019E-03 delta_en =   0.149783E+01 tol =   0.100000E-04
 Iteration #          4
  pAp =    3.1067019695104565E-002  rzold =    7.4947500293471312E-003  alpha =   0.24124457714005082     
 delta_qm =   0.550860E-03 delta_en =   0.524357E+00 tol =   0.100000E-04
 Iteration #          5
  pAp =    9.8830894264620786E-004  rzold =    5.9923757656044410E-004  alpha =   0.60632617059598692     
 delta_qm =   0.188799E-03 delta_en =   0.615944E-01 tol =   0.100000E-04
 Iteration #          6
  pAp =    1.9312026404691437E-004  rzold =    7.2532483859302535E-005  alpha =   0.37558194225377789     
 delta_qm =   0.131001E-03 delta_en =   0.296544E-01 tol =   0.100000E-04
 Iteration #          7
  pAp =    1.1733426502962009E-005  rzold =    1.0195259986168316E-005  alpha =   0.86890730372705738     
 delta_qm =   0.696820E-04 delta_en =   0.839044E-02 tol =   0.100000E-04
 Iteration #          8
  pAp =    1.8427077505273621E-005  rzold =    8.8366068048560233E-006  alpha =   0.47954467019130337     
 delta_qm =   0.266220E-04 delta_en =   0.122469E-02 tol =   0.100000E-04
 Iteration #          9
  pAp =    2.9843975884220434E-006  rzold =    1.4649027716599085E-006  alpha =   0.49085375800563302     
 delta_qm =   0.124169E-04 delta_en =   0.266422E-03 tol =   0.100000E-04
 Iteration #         10
  pAp =    1.2787972447927973E-006  rzold =    3.1107927899921293E-007  alpha =   0.24325926589685209     
 delta_qm =   0.838582E-05 delta_en =   0.121516E-03 tol =   0.100000E-04
 Iteration #         11
  pAp =    2.1609462792289576E-007  rzold =    1.0897909713710227E-007  alpha =   0.50431192197886032     
 delta_qm =   0.243268E-05 delta_en =   0.102262E-04 tol =   0.100000E-04
 Iteration #         12
  pAp =    1.8258806681423940E-008  rzold =    7.2243362187776760E-009  alpha =   0.39566310903151947     
 delta_qm =   0.169399E-05 delta_en =   0.495866E-05 tol =   0.100000E-04
 Charges are converged, EXIT

%%%% DENSITY %%%%%%%%%%%%%%%%%%%%%%%%%%%%%%%%%%%%%%%%%%%%%%%%%%%%%%%%%%%%%%%%%%%
 density label              = velectrostatic                                                                  
 integral of density        =     0.9747141245E-12

%%%% CHARGES %%%%%%%%%%%%%%%%%%%%%%%%%%%%%%%%%%%%%%%%%%%%%%%%%%%%%%%%%%%%%%%%%%%
 total number of charges    =         11
 total charge               =     -0.0000000

%%%% DENSITY %%%%%%%%%%%%%%%%%%%%%%%%%%%%%%%%%%%%%%%%%%%%%%%%%%%%%%%%%%%%%%%%%%%
 density label              = vsoftcavity                                                                     
 integral of density        =      11.45958027    

%%%% DENSITY %%%%%%%%%%%%%%%%%%%%%%%%%%%%%%%%%%%%%%%%%%%%%%%%%%%%%%%%%%%%%%%%%%%
 density label              = dvtot                                                                           
 integral of density        =      11.45958027    

%%%% ELECTRONS %%%%%%%%%%%%%%%%%%%%%%%%%%%%%%%%%%%%%%%%%%%%%%%%%%%%%%%%%%%%%%%%%
 number of electrons        =          8
 total electronic charge    =      8.0000000

%%%% ELECTRONS %%%%%%%%%%%%%%%%%%%%%%%%%%%%%%%%%%%%%%%%%%%%%%%%%%%%%%%%%%%%%%%%%
 number of electrons        =          8
 total electronic charge    =      8.0000000

%%%% BOUNDARY %%%%%%%%%%%%%%%%%%%%%%%%%%%%%%%%%%%%%%%%%%%%%%%%%%%%%%%%%%%%%%%%%%
 boundary label             = solvent              
 boundary mode              = electronic           
 boundary is built as a function of a smooth density
 function type              =  2 
 using the modified SCCS function with parameters 
 rhomax                     =      0.0050000 
 rhomin                     =      0.0001000 
 volume of the QM region    =    294.9456538 
 surface of the QM region   =    214.0804346 

%%%% DIELECTRIC %%%%%%%%%%%%%%%%%%%%%%%%%%%%%%%%%%%%%%%%%%%%%%%%%%%%%%%%%%%%%%%%%
 dielectric build on homogeneous background
 environment bulk permitt.  =    100.0000000 
 dielectric flags
 need gradient              =  F 
 need factor depend. sqrt   =  T 
 total dielectric charge    =      0.0000967

%%%% DENSITY %%%%%%%%%%%%%%%%%%%%%%%%%%%%%%%%%%%%%%%%%%%%%%%%%%%%%%%%%%%%%%%%%%%
 density label              = vreference                                                                      
 integral of density        =     0.1257543131E-11

%%%% COMPUTE ELECTROSTATIC POTENTIAL %%%%%%%%%%%%%%%%%%%%%%%%%%%%%%%%%%%%%%%%%%%
 Warning: bad guess with residual norm =   0.199254E+03, reset to no guess
 Iteration #          1
  pAp =    28.968275912273690       rzold =    28.543179632202655       alpha =   0.98532545459873488     
 delta_qm =   0.105970E-01 delta_en =   0.194048E+03 tol =   0.100000E-04
 Iteration #          2
  pAp =    19.106818675211741       rzold =    2.5076394144813112       alpha =   0.13124316805992411     
 delta_qm =   0.255703E-02 delta_en =   0.112984E+02 tol =   0.100000E-04
 Iteration #          3
  pAp =    1.4996437275583536       rzold =   0.17284999897242201       alpha =   0.11526070879104593     
 delta_qm =   0.917984E-03 delta_en =   0.145617E+01 tol =   0.100000E-04
 Iteration #          4
  pAp =    5.3118981302543673E-002  rzold =    1.0868945629472904E-002  alpha =   0.20461509921600154     
 delta_qm =   0.538077E-03 delta_en =   0.500303E+00 tol =   0.100000E-04
 Iteration #          5
  pAp =    1.1718653438964265E-003  rzold =    6.8973398092005817E-004  alpha =   0.58857784685969794     
 delta_qm =   0.191266E-03 delta_en =   0.632147E-01 tol =   0.100000E-04
 Iteration #          6
  pAp =    4.2171776554209055E-004  rzold =    1.3901341301487079E-004  alpha =   0.32963613196654912     
 delta_qm =   0.133303E-03 delta_en =   0.307062E-01 tol =   0.100000E-04
 Iteration #          7
  pAp =    2.1552070985853666E-005  rzold =    1.3938684509549853E-005  alpha =   0.64674455270210074     
 delta_qm =   0.905977E-04 delta_en =   0.141833E-01 tol =   0.100000E-04
 Iteration #          8
  pAp =    2.0295411831960913E-005  rzold =    1.2668542337591385E-005  alpha =   0.62420720715019706     
 delta_qm =   0.354525E-04 delta_en =   0.217189E-02 tol =   0.100000E-04
 Iteration #          9
  pAp =    1.2541017428953958E-005  rzold =    4.1627478167074459E-006  alpha =   0.33193063005372597     
 delta_qm =   0.232099E-04 delta_en =   0.930874E-03 tol =   0.100000E-04
 Iteration #         10
  pAp =    9.1183844222500918E-006  rzold =    2.1289880059876064E-006  alpha =   0.23348302806718563     
 delta_qm =   0.150626E-04 delta_en =   0.392050E-03 tol =   0.100000E-04
 Iteration #         11
  pAp =    3.0479661999138901E-007  rzold =    2.1666036336110317E-007  alpha =   0.71083584643170972     
 delta_qm =   0.470086E-05 delta_en =   0.381856E-04 tol =   0.100000E-04
 Iteration #         12
  pAp =    7.8682369200989012E-008  rzold =    3.3049656553312326E-008  alpha =   0.42003890946508132     
 delta_qm =   0.303539E-05 delta_en =   0.159210E-04 tol =   0.100000E-04
 Iteration #         13
  pAp =    1.2851410932027102E-008  rzold =    7.6160589193057130E-009  alpha =   0.59262433981670237     
 delta_qm =   0.177323E-05 delta_en =   0.543342E-05 tol =   0.100000E-04
 Charges are converged, EXIT

%%%% DENSITY %%%%%%%%%%%%%%%%%%%%%%%%%%%%%%%%%%%%%%%%%%%%%%%%%%%%%%%%%%%%%%%%%%%
 density label              = velectrostatic                                                                  
 integral of density        =    -0.6116769176E-12

%%%% CHARGES %%%%%%%%%%%%%%%%%%%%%%%%%%%%%%%%%%%%%%%%%%%%%%%%%%%%%%%%%%%%%%%%%%%
 total number of charges    =         11
 total charge               =     -0.0000000

%%%% DENSITY %%%%%%%%%%%%%%%%%%%%%%%%%%%%%%%%%%%%%%%%%%%%%%%%%%%%%%%%%%%%%%%%%%%
 density label              = vsoftcavity                                                                     
 integral of density        =      11.18385741    

%%%% DENSITY %%%%%%%%%%%%%%%%%%%%%%%%%%%%%%%%%%%%%%%%%%%%%%%%%%%%%%%%%%%%%%%%%%%
 density label              = dvtot                                                                           
 integral of density        =      11.18385741    

%%%% ELECTRONS %%%%%%%%%%%%%%%%%%%%%%%%%%%%%%%%%%%%%%%%%%%%%%%%%%%%%%%%%%%%%%%%%
 number of electrons        =          8
 total electronic charge    =      8.0000000

%%%% ELECTRONS %%%%%%%%%%%%%%%%%%%%%%%%%%%%%%%%%%%%%%%%%%%%%%%%%%%%%%%%%%%%%%%%%
 number of electrons        =          8
 total electronic charge    =      8.0000000

%%%% BOUNDARY %%%%%%%%%%%%%%%%%%%%%%%%%%%%%%%%%%%%%%%%%%%%%%%%%%%%%%%%%%%%%%%%%%
 boundary label             = solvent              
 boundary mode              = electronic           
 boundary is built as a function of a smooth density
 function type              =  2 
 using the modified SCCS function with parameters 
 rhomax                     =      0.0050000 
 rhomin                     =      0.0001000 
 volume of the QM region    =    294.9456538 
 surface of the QM region   =    214.0804346 

%%%% DIELECTRIC %%%%%%%%%%%%%%%%%%%%%%%%%%%%%%%%%%%%%%%%%%%%%%%%%%%%%%%%%%%%%%%%%
 dielectric build on homogeneous background
 environment bulk permitt.  =    100.0000000 
 dielectric flags
 need gradient              =  F 
 need factor depend. sqrt   =  T 
 total dielectric charge    =      0.0000838

%%%% DENSITY %%%%%%%%%%%%%%%%%%%%%%%%%%%%%%%%%%%%%%%%%%%%%%%%%%%%%%%%%%%%%%%%%%%
 density label              = dvtot                                                                           
 integral of density        =      11.18385741    

%%%% DENSITY %%%%%%%%%%%%%%%%%%%%%%%%%%%%%%%%%%%%%%%%%%%%%%%%%%%%%%%%%%%%%%%%%%%
 density label              = vreference                                                                      
 integral of density        =     0.1257543131E-11

%%%% DENSITY %%%%%%%%%%%%%%%%%%%%%%%%%%%%%%%%%%%%%%%%%%%%%%%%%%%%%%%%%%%%%%%%%%%
 density label              = velectrostatic                                                                  
 integral of density        =    -0.6116769176E-12

%%%% CHARGES %%%%%%%%%%%%%%%%%%%%%%%%%%%%%%%%%%%%%%%%%%%%%%%%%%%%%%%%%%%%%%%%%%%
 total number of charges    =         11
 total charge               =     -0.0000000

%%%% DENSITY %%%%%%%%%%%%%%%%%%%%%%%%%%%%%%%%%%%%%%%%%%%%%%%%%%%%%%%%%%%%%%%%%%%
 density label              = vsoftcavity                                                                     
 integral of density        =      11.18385741    
