
     Program PWSCF v.6.1 (svn rev. 13547M) starts on 21Jul2017 at 18:18:15 

     This program is part of the open-source Quantum ESPRESSO suite
     for quantum simulation of materials; please cite
         "P. Giannozzi et al., J. Phys.:Condens. Matter 21 395502 (2009);
          URL http://www.quantum-espresso.org", 
     in publications or presentations arising from this work. More details at
     http://www.quantum-espresso.org/quote

     Serial version
     Reading input from pw.in

     Current dimensions of program PWSCF are:
     Max number of different atomic species (ntypx) = 10
     Max number of k-points (npk) =  40000
     Max angular momentum in pseudopotentials (lmaxx) =  3
               file H.pbe-rrkjus.UPF: wavefunction(s)  1S renormalized
               file O.pbe-rrkjus.UPF: wavefunction(s)  2S renormalized

     gamma-point specific algorithms are used

     G-vector sticks info
     --------------------
     sticks:   dense  smooth     PW     G-vecs:    dense   smooth      PW
     Sum        9549    3809    949               701475   177509   22119



     bravais-lattice index     =            1
     lattice parameter (alat)  =      20.0000  a.u.
     unit-cell volume          =    8000.0000 (a.u.)^3
     number of atoms/cell      =            3
     number of atomic types    =            2
     number of electrons       =         8.00
     number of Kohn-Sham states=            4
     kinetic-energy cutoff     =      30.0000  Ry
     charge density cutoff     =     300.0000  Ry
     convergence threshold     =      5.0E-03
     mixing beta               =       0.7000
     number of iterations used =            8  plain     mixing
     Exchange-correlation      =  SLA  PW   PBE  PBE ( 1  4  3  4 0 0)


     Environ Module
     ==============

     Plese cite
         O. Andreussi, I. Dabo and N. Marzari, J. Chem. Phys. 136, 064102 (2012)         
     in publications or presentations arising from this work.

     compensation onset threshold      =               0.1000E+03 
     static permittivity               =                   100.00 
     epsilon calculation mode          =               electronic 

     Electrostatic Setup
     -------------------
     electrostatic problem to solve    = generalized              
     numerical solver adopted          = sd                       
     type of auxiliary density adopted = none                     
     required accuracy on potential    =                   0.0001 
     required accuracy on aux. charge  =                   0.0000 
     type of core tool for poisson     = fft                      
     type of core tool for s(r) deriv  = analytic                 



     celldm(1)=  20.000000  celldm(2)=   0.000000  celldm(3)=   0.000000
     celldm(4)=   0.000000  celldm(5)=   0.000000  celldm(6)=   0.000000

     crystal axes: (cart. coord. in units of alat)
               a(1) = (   1.000000   0.000000   0.000000 )  
               a(2) = (   0.000000   1.000000   0.000000 )  
               a(3) = (   0.000000   0.000000   1.000000 )  

     reciprocal axes: (cart. coord. in units 2 pi/alat)
               b(1) = (  1.000000  0.000000  0.000000 )  
               b(2) = (  0.000000  1.000000  0.000000 )  
               b(3) = (  0.000000  0.000000  1.000000 )  


     PseudoPot. # 1 for H  read from file:
     /Users/oliviero/PWSCF/espresso/Environ/tests/../..//pseudo/H.pbe-rrkjus.UPF
     MD5 check sum: 7cc9d459525c9a0585f487a71c3c9563
     Pseudo is Ultrasoft, Zval =  1.0
     Generated by new atomic code, or converted to UPF format
     Using radial grid of 1061 points,  2 beta functions with: 
                l(1) =   0
                l(2) =   0
     Q(r) pseudized with 0 coefficients 


     PseudoPot. # 2 for O  read from file:
     /Users/oliviero/PWSCF/espresso/Environ/tests/../..//pseudo/O.pbe-rrkjus.UPF
     MD5 check sum: 390ba29e75625707450f3bd3f0eb6be9
     Pseudo is Ultrasoft, Zval =  6.0
     Generated by new atomic code, or converted to UPF format
     Using radial grid of 1269 points,  4 beta functions with: 
                l(1) =   0
                l(2) =   0
                l(3) =   1
                l(4) =   1
     Q(r) pseudized with 0 coefficients 


     atomic species   valence    mass     pseudopotential
        H              1.00     1.00000     H ( 1.00)
        O              6.00    16.00000     O ( 1.00)

     No symmetry found



   Cartesian axes

     site n.     atom                  positions (alat units)
         1           O   tau(   1) = (   0.5895000   0.6025000   0.5750000  )
         2           H   tau(   2) = (   0.6725000   0.5610000   0.5750000  )
         3           H   tau(   3) = (   0.5280000   0.5330000   0.5750000  )

     number of k points=     1
                       cart. coord. in units 2pi/alat
        k(    1) = (   0.0000000   0.0000000   0.0000000), wk =   2.0000000

     Dense  grid:   350738 G-vectors     FFT dimensions: ( 120, 120, 120)

     Smooth grid:    88755 G-vectors     FFT dimensions: (  72,  72,  72)

     Estimated max dynamical RAM per process >     506.03MB

     Initial potential from superposition of free atoms
     Check: negative starting charge=   -0.000775

     starting charge    7.80759, renormalised to    8.00000

     negative rho (up, down):  7.936E-04 0.000E+00
     Starting wfc are    6 randomized atomic wfcs

     total cpu time spent up to now is       12.0 secs

     Self-consistent Calculation

     iteration #  1     ecut=    30.00 Ry     beta= 0.70
     Davidson diagonalization with overlap
     ethr =  1.00E-02,  avg # of iterations =  2.0

     negative rho (up, down):  2.595E-04 0.000E+00

     add environment contribution to local potential
     polarization accuracy = 7.4E-05, # of iterations =  35

     total cpu time spent up to now is       29.2 secs

     total energy              =     -34.06236055 Ry
     Harris-Foulkes estimate   =     -34.58697711 Ry
     estimated scf accuracy    <       0.68458994 Ry
     electrostatic embedding   =       0.00000000 Ry
     correction to one-el term =       0.00000000 Ry

     iteration #  2     ecut=    30.00 Ry     beta= 0.70
     Davidson diagonalization with overlap
     ethr =  8.56E-03,  avg # of iterations =  2.0

     negative rho (up, down):  2.657E-03 0.000E+00

     add environment contribution to local potential
     polarization accuracy = 7.6E-05, # of iterations =  43

     total cpu time spent up to now is       49.5 secs

     total energy              =     -34.21553681 Ry
     Harris-Foulkes estimate   =     -33.97937057 Ry
     estimated scf accuracy    <       0.35528523 Ry
     electrostatic embedding   =      -0.03448886 Ry
     correction to one-el term =      -0.38478664 Ry

     iteration #  3     ecut=    30.00 Ry     beta= 0.70
     Davidson diagonalization with overlap
     ethr =  4.44E-03,  avg # of iterations =  2.0

     negative rho (up, down):  2.206E-04 0.000E+00

     add environment contribution to local potential
     polarization accuracy = 7.7E-05, # of iterations =  47

     total cpu time spent up to now is       70.6 secs

     total energy              =     -34.28769869 Ry
     Harris-Foulkes estimate   =     -34.02161045 Ry
     estimated scf accuracy    <       0.01537635 Ry
     electrostatic embedding   =      -0.02916785 Ry
     correction to one-el term =      -0.24557037 Ry

     iteration #  4     ecut=    30.00 Ry     beta= 0.70
     Davidson diagonalization with overlap
     ethr =  1.92E-04,  avg # of iterations =  2.0

     negative rho (up, down):  2.142E-04 0.000E+00

     total cpu time spent up to now is       75.4 secs

     End of self-consistent calculation

          k = 0.0000 0.0000 0.0000 ( 11060 PWs)   bands (ev):

   -24.6073 -12.3808  -8.8348  -6.8650

     highest occupied level (ev):    -6.8650

!    total energy              =     -34.29566679 Ry
     Harris-Foulkes estimate   =     -34.21053723 Ry
     estimated scf accuracy    <       0.00017528 Ry

     The total energy is the sum of the following terms:

     one-electron contribution =     -63.83081485 Ry
     hartree contribution      =      33.45958515 Ry
     xc contribution           =      -8.39662595 Ry
     ewald contribution        =       4.55735774 Ry
     electrostatic embedding   =      -0.03354858 Ry
     correction to one-el term =      -0.05162031 Ry

     convergence has been achieved in   4 iterations

     Forces acting on atoms (cartesian axes, Ry/au):

     atom    1 type  2   force =     0.00237115   -0.01242331   -0.00000284
     atom    2 type  1   force =    -0.00871809    0.00472580    0.00000114
     atom    3 type  1   force =     0.00634694    0.00769750    0.00000170

     Total force =     0.018917     Total SCF correction =     0.023075
     SCF correction compared to forces is large: reduce conv_thr to get better values

     Writing output data file pwscf.save

     init_run     :     11.41s CPU     11.85s WALL (       1 calls)
     electrons    :     59.20s CPU     63.65s WALL (       1 calls)
     forces       :      2.32s CPU      2.49s WALL (       1 calls)

     Called by init_run:
     wfcinit      :      0.09s CPU      0.09s WALL (       1 calls)
     potinit      :      2.18s CPU      2.31s WALL (       1 calls)

     Called by electrons:
     c_bands      :      0.67s CPU      0.67s WALL (       4 calls)
     sum_band     :      4.23s CPU      4.29s WALL (       4 calls)
     v_of_rho     :      7.44s CPU      7.93s WALL (       5 calls)
     newd         :      2.42s CPU      2.91s WALL (       5 calls)
     mix_rho      :      0.58s CPU      0.66s WALL (       4 calls)

     Called by c_bands:
     init_us_2    :      0.07s CPU      0.08s WALL (       9 calls)
     regterg      :      0.57s CPU      0.57s WALL (       4 calls)

     Called by sum_band:
     sum_band:bec :      0.00s CPU      0.00s WALL (       4 calls)
     addusdens    :      3.08s CPU      3.11s WALL (       4 calls)

     Called by *egterg:
     h_psi        :      0.59s CPU      0.59s WALL (      13 calls)
     s_psi        :      0.01s CPU      0.01s WALL (      13 calls)
     g_psi        :      0.01s CPU      0.01s WALL (       8 calls)
     rdiaghg      :      0.00s CPU      0.00s WALL (      12 calls)

     Called by h_psi:
     h_psi:pot    :      0.58s CPU      0.58s WALL (      13 calls)
     h_psi:calbec :      0.01s CPU      0.01s WALL (      13 calls)
     vloc_psi     :      0.56s CPU      0.57s WALL (      13 calls)
     add_vuspsi   :      0.01s CPU      0.00s WALL (      13 calls)

     General routines
     calbec       :      0.01s CPU      0.01s WALL (      21 calls)
     fft          :     22.97s CPU     23.11s WALL (     379 calls)
     ffts         :      0.09s CPU      0.09s WALL (       9 calls)
     fftw         :      0.38s CPU      0.38s WALL (      62 calls)
     interpolate  :      0.75s CPU      0.81s WALL (       9 calls)


     Environ routines
     calc_eelect  :      0.40s CPU      0.41s WALL (       8 calls)
     calc_velect  :     37.88s CPU     40.87s WALL (       6 calls)
     dielectric   :      0.78s CPU      0.89s WALL (       5 calls)

     PWSCF        :  1m13.17s CPU     1m18.44s WALL


   This run was terminated on:  18:19:33  21Jul2017            

=------------------------------------------------------------------------------=
   JOB DONE.
=------------------------------------------------------------------------------=

%%%% IONS %%%%%%%%%%%%%%%%%%%%%%%%%%%%%%%%%%%%%%%%%%%%%%%%%%%%%%%%%%%%%%%%%%%%%%
 number of ions             =          3
 total ionic charge         =     -8.0000000
 ionic center of charge     =      0.5921875     0.5886250     0.5750000
 ion   1 type =  2 coordinates =      0.5895000     0.6025000     0.5750000
 ion   2 type =  1 coordinates =      0.6725000     0.5610000     0.5750000
 ion   3 type =  1 coordinates =      0.5280000     0.5330000     0.5750000

%%%% SYSTEM %%%%%%%%%%%%%%%%%%%%%%%%%%%%%%%%%%%%%%%%%%%%%%%%%%%%%%%%%%%%%%%%%%%%
 system is built from all present ionic types
 system defined dimension   =  0 
 system defined axis        =  3 
 system center              =      0.5921875     0.5886250     0.5750000 
 system width               =      0.1209428 

%%%% ELECTRONS %%%%%%%%%%%%%%%%%%%%%%%%%%%%%%%%%%%%%%%%%%%%%%%%%%%%%%%%%%%%%%%%%
 number of electrons        =          8
 total electronic charge    =      8.0000000
 number of spin components  =  1

%%%% BOUNDARY %%%%%%%%%%%%%%%%%%%%%%%%%%%%%%%%%%%%%%%%%%%%%%%%%%%%%%%%%%%%%%%%%%
 boundary mode              = electronic           
 boundary is built as a function of a smooth density
 function type              =  2 
 using the modified SCCS function with parameters 
 rhomax                     =      0.0050000 
 rhomin                     =      0.0001000 

%%%% DIELECTRIC %%%%%%%%%%%%%%%%%%%%%%%%%%%%%%%%%%%%%%%%%%%%%%%%%%%%%%%%%%%%%%%%%
 dielectric build on homogeneous background
 environment bulk permitt.  =    100.0000000 
 dielectric flags
 need gradient              =  F 
 need factor depend. sqrt   =  T 
 need gradient of logarithm =  T 

%%%% COMPUTE ELECTROSTATIC POTENTIAL %%%%%%%%%%%%%%%%%%%%%%%%%%%%%%%%%%%%%%%%%%%
 Iteration #          1
  pAp =  26.724011334975526  rzold =  26.16220247367455  alpha =  0.978977375280271
 delta_qm =   0.832724E-02 delta_en =   0.119825E+03 tol =   0.100000E-03
 Iteration #          2
  pAp =  27.150276462098326  rzold =  3.3693211826046454  alpha =  0.12409896404952649
 delta_qm =   0.280726E-02 delta_en =   0.136178E+02 tol =   0.100000E-03
 Iteration #          3
  pAp =  1.7406468081792894  rzold =  0.23503808409048663  alpha =  0.13502916443820998
 delta_qm =   0.913420E-03 delta_en =   0.144173E+01 tol =   0.100000E-03
 Iteration #          4
  pAp =  0.19674352008100277  rzold =  0.032263607837553394  alpha =  0.16398815993670288
 delta_qm =   0.864814E-03 delta_en =   0.129238E+01 tol =   0.100000E-03
 Iteration #          5
  pAp =  0.07116299346748066  rzold =  0.012483566439120746  alpha =  0.1754221658034293
 delta_qm =   0.542904E-03 delta_en =   0.509319E+00 tol =   0.100000E-03
 Iteration #          6
  pAp =  0.04061651815131119  rzold =  0.007293171061637751  alpha =  0.17956170035225708
 delta_qm =   0.558739E-03 delta_en =   0.539463E+00 tol =   0.100000E-03
 Iteration #          7
  pAp =  0.02653357107066877  rzold =  0.004756155595396223  alpha =  0.17925048922848763
 delta_qm =   0.352498E-03 delta_en =   0.214713E+00 tol =   0.100000E-03
 Iteration #          8
  pAp =  0.017342732157196082  rzold =  0.003128484210911806  alpha =  0.18039165816290906
 delta_qm =   0.370680E-03 delta_en =   0.237434E+00 tol =   0.100000E-03
 Iteration #          9
  pAp =  0.011643783274026404  rzold =  0.002090637404112744  alpha =  0.17954966653976587
 delta_qm =   0.230137E-03 delta_en =   0.915199E-01 tol =   0.100000E-03
 Iteration #         10
  pAp =  0.007676430731378665  rzold =  0.0013862311189435346  alpha =  0.1805827691868681
 delta_qm =   0.250031E-03 delta_en =   0.108027E+00 tol =   0.100000E-03
 Iteration #         11
  pAp =  0.005179792236383307  rzold =  0.0009308378854980565  alpha =  0.17970564127259217
 delta_qm =   0.152817E-03 delta_en =   0.403539E-01 tol =   0.100000E-03
 Iteration #         12
  pAp =  0.0034284633443315508  rzold =  0.0006196180300855825  alpha =  0.18072762280221777
 delta_qm =   0.171995E-03 delta_en =   0.511184E-01 tol =   0.100000E-03
 Iteration #         13
  pAp =  0.00232175352831077  rzold =  0.0004175555446516138  alpha =  0.17984490582659446
 delta_qm =   0.103701E-03 delta_en =   0.185828E-01 tol =   0.100000E-03
 Iteration #         14
  pAp =  0.0015420516879291544  rzold =  0.0002789106334759617  alpha =  0.18086983442851723
 delta_qm =   0.120750E-03 delta_en =   0.251951E-01 tol =   0.100000E-03
 Iteration #         15
  pAp =  0.0010479022179488424  rzold =  0.00018861380050005932  alpha =  0.17999179433864626
 delta_qm =   0.722297E-04 delta_en =   0.901519E-02 tol =   0.100000E-03
 Iteration #         16
  pAp =  0.0006984818125402804  rzold =  0.00012644560304633372  alpha =  0.1810291990087312
 delta_qm =   0.865350E-04 delta_en =   0.129398E-01 tol =   0.100000E-03
 Iteration #         17
  pAp =  0.0004764739777904007  rzold =  0.00008584398020989545  alpha =  0.18016509654522608
 delta_qm =   0.518392E-04 delta_en =   0.464366E-02 tol =   0.100000E-03
 Iteration #         18
  pAp =  0.00031891934768293857  rzold =  0.00005779625634163211  alpha =  0.18122530590113858
 delta_qm =   0.632893E-04 delta_en =   0.692156E-02 tol =   0.100000E-03
 Iteration #         19
  pAp =  0.00021856906327296375  rzold =  0.00003942666131243941  alpha =  0.1803853698325126
 delta_qm =   0.384026E-04 delta_en =   0.254838E-02 tol =   0.100000E-03
 Iteration #         20
  pAp =  0.00014706444368322685  rzold =  0.000026689306107013728  alpha =  0.181480345884977
 delta_qm =   0.472000E-04 delta_en =   0.384971E-02 tol =   0.100000E-03
 Iteration #         21
  pAp =  0.00010139802620152292  rzold =  0.000018320182499881714  alpha =  0.18067592818297443
 delta_qm =   0.293136E-04 delta_en =   0.148485E-02 tol =   0.100000E-03
 Iteration #         22
  pAp =  0.00006869683973251885  rzold =  0.00001249038594606293  alpha =  0.181818930749887
 delta_qm =   0.358411E-04 delta_en =   0.221976E-02 tol =   0.100000E-03
 Iteration #         23
  pAp =  0.0000477436029708058  rzold =  0.00000864452784944835  alpha =  0.18106148911162603
 delta_qm =   0.229433E-04 delta_en =   0.909614E-03 tol =   0.100000E-03
 Iteration #         24
  pAp =  0.00003264195944561132  rzold =  0.000005949497312631794  alpha =  0.18226532394738634
 delta_qm =   0.276537E-04 delta_en =   0.132145E-02 tol =   0.100000E-03
 Iteration #         25
  pAp =  0.00002292461649198879  rzold =  0.000004162280146713866  alpha =  0.18156378529465966
 delta_qm =   0.182945E-04 delta_en =   0.578342E-03 tol =   0.100000E-03
 Iteration #         26
  pAp =  0.000015860100561537088  rzold =  0.000002899815650948737  alpha =  0.18283715413388907
 delta_qm =   0.216277E-04 delta_en =   0.808282E-03 tol =   0.100000E-03
 Iteration #         27
  pAp =  0.000011288866124575485  rzold =  0.0000020567583693564023  alpha =  0.18219353003743288
 delta_qm =   0.147686E-04 delta_en =   0.376899E-03 tol =   0.100000E-03
 Iteration #         28
  pAp =  0.000007926775644149564  rzold =  0.0000014548473878654755  alpha =  0.18353583514619087
 delta_qm =   0.171025E-04 delta_en =   0.505430E-03 tol =   0.100000E-03
 Iteration #         29
  pAp =  0.000005735161581461152  rzold =  0.000001049192444335327  alpha =  0.18294034604479675
 delta_qm =   0.120096E-04 delta_en =   0.249229E-03 tol =   0.100000E-03
 Iteration #         30
  pAp =  0.00000409853243701382  rzold =  7.555119380456512E-7  alpha =  0.18433718645792035
 delta_qm =   0.136415E-04 delta_en =   0.321564E-03 tol =   0.100000E-03
 Iteration #         31
  pAp =  0.0000030215022751279796  rzold =  5.55249714140333E-7  alpha =  0.18376610824058198
 delta_qm =   0.980256E-05 delta_en =   0.166044E-03 tol =   0.100000E-03
 Iteration #         32
  pAp =  0.0000022016422484164172  rzold =  4.077206417803298E-7  alpha =  0.18518932495667378
 delta_qm =   0.109521E-04 delta_en =   0.207272E-03 tol =   0.100000E-03
 Iteration #         33
  pAp =  0.000001655771206738383  rzold =  3.056703139199521E-7  alpha =  0.1846090285155254
 delta_qm =   0.801320E-05 delta_en =   0.110957E-03 tol =   0.100000E-03
 Iteration #         34
  pAp =  0.0000012306609557115998  rzold =  2.289320537913346E-7  alpha =  0.18602365885489575
 delta_qm =   0.883494E-05 delta_en =   0.134881E-03 tol =   0.100000E-03
 Iteration #         35
  pAp =  9.437734006120713E-7  rzold =  1.7497613761462753E-7  alpha =  0.18540058185698935
 delta_qm =   0.655224E-05 delta_en =   0.741863E-04 tol =   0.100000E-03
 Charges are converged, exit!

%%%% ELECTRONS %%%%%%%%%%%%%%%%%%%%%%%%%%%%%%%%%%%%%%%%%%%%%%%%%%%%%%%%%%%%%%%%%
 number of electrons        =          8
 total electronic charge    =      8.0000000
 number of spin components  =  1

%%%% BOUNDARY %%%%%%%%%%%%%%%%%%%%%%%%%%%%%%%%%%%%%%%%%%%%%%%%%%%%%%%%%%%%%%%%%%
 boundary mode              = electronic           
 boundary is built as a function of a smooth density
 function type              =  2 
 using the modified SCCS function with parameters 
 rhomax                     =      0.0050000 
 rhomin                     =      0.0001000 

%%%% DIELECTRIC %%%%%%%%%%%%%%%%%%%%%%%%%%%%%%%%%%%%%%%%%%%%%%%%%%%%%%%%%%%%%%%%%
 dielectric build on homogeneous background
 environment bulk permitt.  =    100.0000000 
 dielectric flags
 need gradient              =  F 
 need factor depend. sqrt   =  T 
 need gradient of logarithm =  T 

%%%% COMPUTE ELECTROSTATIC POTENTIAL %%%%%%%%%%%%%%%%%%%%%%%%%%%%%%%%%%%%%%%%%%%
 Warning: bad guess with residual norm =   0.911827E+01, reset to no guess
 Iteration #          1
  pAp =  28.943042929181605  rzold =  28.528804233477928  alpha =  0.9856877973502218
 delta_qm =   0.102070E-01 delta_en =   0.180028E+03 tol =   0.100000E-03
 Iteration #          2
  pAp =  20.08093131794216  rzold =  2.5089199351912956  alpha =  0.12494041712844238
 delta_qm =   0.321229E-02 delta_en =   0.178309E+02 tol =   0.100000E-03
 Iteration #          3
  pAp =  1.2214043032459778  rzold =  0.16506119369639782  alpha =  0.1351405044650119
 delta_qm =   0.836132E-03 delta_en =   0.120807E+01 tol =   0.100000E-03
 Iteration #          4
  pAp =  0.13453628277012297  rzold =  0.021746795984177034  alpha =  0.16164261072483294
 delta_qm =   0.994359E-03 delta_en =   0.170856E+01 tol =   0.100000E-03
 Iteration #          5
  pAp =  0.04293261735983157  rzold =  0.007428441959432211  alpha =  0.1730256018907987
 delta_qm =   0.472687E-03 delta_en =   0.386092E+00 tol =   0.100000E-03
 Iteration #          6
  pAp =  0.021926808190198484  rzold =  0.004005220392813532  alpha =  0.18266317459756445
 delta_qm =   0.643257E-03 delta_en =   0.715010E+00 tol =   0.100000E-03
 Iteration #          7
  pAp =  0.014756349974757537  rzold =  0.0026298884433564387  alpha =  0.17822079632532237
 delta_qm =   0.308366E-03 delta_en =   0.164315E+00 tol =   0.100000E-03
 Iteration #          8
  pAp =  0.009097057941817257  rzold =  0.0016718358871430725  alpha =  0.18377764523824736
 delta_qm =   0.436324E-03 delta_en =   0.328974E+00 tol =   0.100000E-03
 Iteration #          9
  pAp =  0.006351940483693063  rzold =  0.0011347785464100744  alpha =  0.1786506893953619
 delta_qm =   0.209717E-03 delta_en =   0.759998E-01 tol =   0.100000E-03
 Iteration #         10
  pAp =  0.003963358155824609  rzold =  0.0007297145086820313  alpha =  0.18411520735506387
 delta_qm =   0.306914E-03 delta_en =   0.162772E+00 tol =   0.100000E-03
 Iteration #         11
  pAp =  0.0027909167714474455  rzold =  0.0004994069124123081  alpha =  0.17894009506894112
 delta_qm =   0.152870E-03 delta_en =   0.403822E-01 tol =   0.100000E-03
 Iteration #         12
  pAp =  0.0017541627545983145  rzold =  0.00032349435355558055  alpha =  0.184415244655937
 delta_qm =   0.223647E-03 delta_en =   0.864311E-01 tol =   0.100000E-03
 Iteration #         13
  pAp =  0.0012442039000355861  rzold =  0.000222996715205867  alpha =  0.1792284328955157
 delta_qm =   0.118313E-03 delta_en =   0.241885E-01 tol =   0.100000E-03
 Iteration #         14
  pAp =  0.0007875854167830973  rzold =  0.00014549602140086353  alpha =  0.18473681495417207
 delta_qm =   0.167906E-03 delta_en =   0.487164E-01 tol =   0.100000E-03
 Iteration #         15
  pAp =  0.000562888648289355  rzold =  0.00010106982501529567  alpha =  0.1795556284932226
 delta_qm =   0.952756E-04 delta_en =   0.156858E-01 tol =   0.100000E-03
 Iteration #         16
  pAp =  0.00035914774517954614  rzold =  0.00006648501943434756  alpha =  0.18511885519735113
 delta_qm =   0.129083E-03 delta_en =   0.287927E-01 tol =   0.100000E-03
 Iteration #         17
  pAp =  0.00025898278553095067  rzold =  0.0000466060029338745  alpha =  0.179957918200338
 delta_qm =   0.784101E-04 delta_en =   0.106240E-01 tol =   0.100000E-03
 Iteration #         18
  pAp =  0.0001668440073769696  rzold =  0.00003096616636630107  alpha =  0.1855995121019582
 delta_qm =   0.101061E-03 delta_en =   0.176486E-01 tol =   0.100000E-03
 Iteration #         19
  pAp =  0.00012165748224469652  rzold =  0.000021955522820480145  alpha =  0.18046997533879397
 delta_qm =   0.651747E-04 delta_en =   0.734009E-02 tol =   0.100000E-03
 Iteration #         20
  pAp =  0.0000793368408697827  rzold =  0.000014773497609737342  alpha =  0.18621232516663233
 delta_qm =   0.802143E-04 delta_en =   0.111185E-01 tol =   0.100000E-03
 Iteration #         21
  pAp =  0.00005867189241495148  rzold =  0.000010626516766487477  alpha =  0.18111767541657647
 delta_qm =   0.543498E-04 delta_en =   0.510435E-02 tol =   0.100000E-03
 Iteration #         22
  pAp =  0.000038854420451040186  rzold =  0.0000072648189257435546  alpha =  0.1869753516179152
 delta_qm =   0.643189E-04 delta_en =   0.714859E-02 tol =   0.100000E-03
 Iteration #         23
  pAp =  0.000029241687413928124  rzold =  0.000005319223546532365  alpha =  0.1819054923622076
 delta_qm =   0.453123E-04 delta_en =   0.354793E-02 tol =   0.100000E-03
 Iteration #         24
  pAp =  0.000019729433486859496  rzold =  0.000003706700091642391  alpha =  0.18787666123871144
 delta_qm =   0.519583E-04 delta_en =   0.466503E-02 tol =   0.100000E-03
 Iteration #         25
  pAp =  0.000015158184615035698  rzold =  0.000002770975163808862  alpha =  0.1828038933541077
 delta_qm =   0.377061E-04 delta_en =   0.245678E-02 tol =   0.100000E-03
 Iteration #         26
  pAp =  0.000010446924240729812  rzold =  0.0000019730585373315364  alpha =  0.18886501824518837
 delta_qm =   0.421975E-04 delta_en =   0.307693E-02 tol =   0.100000E-03
 Iteration #         27
  pAp =  0.000008210090869644436  rzold =  0.0000015085832843458581  alpha =  0.18374745277468435
 delta_qm =   0.312979E-04 delta_en =   0.169268E-02 tol =   0.100000E-03
 Iteration #         28
  pAp =  0.000005785967063808748  rzold =  0.0000010985094997676175  alpha =  0.18985754458209755
 delta_qm =   0.343983E-04 delta_en =   0.204464E-02 tol =   0.100000E-03
 Iteration #         29
  pAp =  0.00000465154133964975  rzold =  8.589161820539604E-7  alpha =  0.184651950684079
 delta_qm =   0.259132E-04 delta_en =   0.116034E-02 tol =   0.100000E-03
 Iteration #         30
  pAp =  0.000003348933123095867  rzold =  6.388642311531997E-7  alpha =  0.19076649418505318
 delta_qm =   0.281117E-04 delta_en =   0.136558E-02 tol =   0.100000E-03
 Iteration #         31
  pAp =  0.000002748865632459008  rzold =  5.097603294181418E-7  alpha =  0.18544388761633787
 delta_qm =   0.214074E-04 delta_en =   0.791905E-03 tol =   0.100000E-03
 Iteration #         32
  pAp =  0.000002016446790550466  rzold =  3.862092520031885E-7  alpha =  0.19152960237436167
 delta_qm =   0.230129E-04 delta_en =   0.915140E-03 tol =   0.100000E-03
 Iteration #         33
  pAp =  0.0000016842569071701757  rzold =  3.1341170993523894E-7  alpha =  0.18608307830057907
 delta_qm =   0.176539E-04 delta_en =   0.538550E-03 tol =   0.100000E-03
 Iteration #         34
  pAp =  0.0000012542854522516672  rzold =  2.4097862133248495E-7  alpha =  0.19212422570945484
 delta_qm =   0.188598E-04 delta_en =   0.614638E-03 tol =   0.100000E-03
 Iteration #         35
  pAp =  0.000001061983948883805  rzold =  1.9812968948483242E-7  alpha =  0.18656561588626272
 delta_qm =   0.145395E-04 delta_en =   0.365293E-03 tol =   0.100000E-03
 Iteration #         36
  pAp =  7.999317749868089E-7  rzold =  1.540357148242876E-7  alpha =  0.19256106538189174
 delta_qm =   0.154675E-04 delta_en =   0.413411E-03 tol =   0.100000E-03
 Iteration #         37
  pAp =  6.840809899104437E-7  rzold =  1.27862829623706E-7  alpha =  0.18691182989962213
 delta_qm =   0.119635E-04 delta_en =   0.247321E-03 tol =   0.100000E-03
 Iteration #         38
  pAp =  5.195063729207161E-7  rzold =  1.0019636241468247E-7  alpha =  0.19286839899839656
 delta_qm =   0.126914E-04 delta_en =   0.278331E-03 tol =   0.100000E-03
 Iteration #         39
  pAp =  4.4739682771000337E-7  rzold =  8.373095067078944E-8  alpha =  0.1871514179020123
 delta_qm =   0.983790E-05 delta_en =   0.167243E-03 tol =   0.100000E-03
 Iteration #         40
  pAp =  3.4168902602942047E-7  rzold =  6.597273106114272E-8  alpha =  0.1930782847426369
 delta_qm =   0.104169E-04 delta_en =   0.187508E-03 tol =   0.100000E-03
 Iteration #         41
  pAp =  2.9567422867944815E-7  rzold =  5.538371397936592E-8  alpha =  0.1873132948607758
 delta_qm =   0.808678E-05 delta_en =   0.113004E-03 tol =   0.100000E-03
 Iteration #         42
  pAp =  2.2667807668545964E-7  rzold =  4.3798497577234507E-8  alpha =  0.19321893946545904
 delta_qm =   0.855190E-05 delta_en =   0.126377E-03 tol =   0.100000E-03
 Iteration #         43
  pAp =  1.9678206940458154E-7  rzold =  3.6881113346560285E-8  alpha =  0.18742110731000172
 delta_qm =   0.664577E-05 delta_en =   0.763192E-04 tol =   0.100000E-03
 Charges are converged, exit!

%%%% ELECTRONS %%%%%%%%%%%%%%%%%%%%%%%%%%%%%%%%%%%%%%%%%%%%%%%%%%%%%%%%%%%%%%%%%
 number of electrons        =          8
 total electronic charge    =      8.0000000
 number of spin components  =  1

%%%% BOUNDARY %%%%%%%%%%%%%%%%%%%%%%%%%%%%%%%%%%%%%%%%%%%%%%%%%%%%%%%%%%%%%%%%%%
 boundary mode              = electronic           
 boundary is built as a function of a smooth density
 function type              =  2 
 using the modified SCCS function with parameters 
 rhomax                     =      0.0050000 
 rhomin                     =      0.0001000 

%%%% DIELECTRIC %%%%%%%%%%%%%%%%%%%%%%%%%%%%%%%%%%%%%%%%%%%%%%%%%%%%%%%%%%%%%%%%%
 dielectric build on homogeneous background
 environment bulk permitt.  =    100.0000000 
 dielectric flags
 need gradient              =  F 
 need factor depend. sqrt   =  T 
 need gradient of logarithm =  T 

%%%% COMPUTE ELECTROSTATIC POTENTIAL %%%%%%%%%%%%%%%%%%%%%%%%%%%%%%%%%%%%%%%%%%%
 Warning: bad guess with residual norm =   0.146295E+03, reset to no guess
 Iteration #          1
  pAp =  28.83835966131731  rzold =  28.404246893494527  alpha =  0.984946690001752
 delta_qm =   0.106348E-01 delta_en =   0.195435E+03 tol =   0.100000E-03
 Iteration #          2
  pAp =  19.70454001828033  rzold =  2.556414560117947  alpha =  0.12973733757531541
 delta_qm =   0.259412E-02 delta_en =   0.116285E+02 tol =   0.100000E-03
 Iteration #          3
  pAp =  1.5921903190100541  rzold =  0.17724129466015404  alpha =  0.1113191636351325
 delta_qm =   0.924840E-03 delta_en =   0.147801E+01 tol =   0.100000E-03
 Iteration #          4
  pAp =  0.1311027401275517  rzold =  0.022228148043192935  alpha =  0.16954754737823832
 delta_qm =   0.883637E-03 delta_en =   0.134925E+01 tol =   0.100000E-03
 Iteration #          5
  pAp =  0.06742754372056216  rzold =  0.009351586916778424  alpha =  0.13869090286803137
 delta_qm =   0.483434E-03 delta_en =   0.403848E+00 tol =   0.100000E-03
 Iteration #          6
  pAp =  0.021343221673613154  rzold =  0.004122009273750907  alpha =  0.1931296660263333
 delta_qm =   0.593717E-03 delta_en =   0.609119E+00 tol =   0.100000E-03
 Iteration #          7
  pAp =  0.026251607094043904  rzold =  0.0037216753696816783  alpha =  0.1417694298238248
 delta_qm =   0.320972E-03 delta_en =   0.178024E+00 tol =   0.100000E-03
 Iteration #          8
  pAp =  0.009514904784490769  rzold =  0.0018465516831158292  alpha =  0.19406938113828487
 delta_qm =   0.408057E-03 delta_en =   0.287730E+00 tol =   0.100000E-03
 Iteration #          9
  pAp =  0.012118176174464595  rzold =  0.0017206637043667562  alpha =  0.14199031930172268
 delta_qm =   0.217045E-03 delta_en =   0.814032E-01 tol =   0.100000E-03
 Iteration #         10
  pAp =  0.004425672320301742  rzold =  0.0008602978894899286  alpha =  0.19438806744537146
 delta_qm =   0.288873E-03 delta_en =   0.144197E+00 tol =   0.100000E-03
 Iteration #         11
  pAp =  0.005678804692660913  rzold =  0.0008072289700309749  alpha =  0.1421476901775138
 delta_qm =   0.154827E-03 delta_en =   0.414227E-01 tol =   0.100000E-03
 Iteration #         12
  pAp =  0.002084382468698397  rzold =  0.00040578661710833567  alpha =  0.19467953852141692
 delta_qm =   0.211251E-03 delta_en =   0.771153E-01 tol =   0.100000E-03
 Iteration #         13
  pAp =  0.0026921067463882543  rzold =  0.000383108117313138  alpha =  0.14230792216063423
 delta_qm =   0.116961E-03 delta_en =   0.236387E-01 tol =   0.100000E-03
 Iteration #         14
  pAp =  0.0009930743812577151  rzold =  0.00019364754070924832  alpha =  0.1949980226697585
 delta_qm =   0.159267E-03 delta_en =   0.438322E-01 tol =   0.100000E-03
 Iteration #         15
  pAp =  0.001291648341194397  rzold =  0.00018405042763965432  alpha =  0.1424926752659795
 delta_qm =   0.927398E-04 delta_en =   0.148619E-01 tol =   0.100000E-03
 Iteration #         16
  pAp =  0.0004791761363009429  rzold =  0.00009362245814632434  alpha =  0.19538213832820228
 delta_qm =   0.123326E-03 delta_en =   0.262818E-01 tol =   0.100000E-03
 Iteration #         17
  pAp =  0.0006284757065811193  rzold =  0.00008969792645076489  alpha =  0.1427229811932075
 delta_qm =   0.760926E-04 delta_en =   0.100053E-01 tol =   0.100000E-03
 Iteration #         18
  pAp =  0.00023478661468123062  rzold =  0.00004598836839132311  alpha =  0.19587304179908824
 delta_qm =   0.976483E-04 delta_en =   0.164768E-01 tol =   0.100000E-03
 Iteration #         19
  pAp =  0.00031122007657536597  rzold =  0.00004451103838035861  alpha =  0.14302110220572384
 delta_qm =   0.637574E-04 delta_en =   0.702433E-02 tol =   0.100000E-03
 Iteration #         20
  pAp =  0.00011731490557348043  rzold =  0.000023053830147218753  alpha =  0.19651237014190784
 delta_qm =   0.787138E-04 delta_en =   0.107065E-01 tol =   0.100000E-03
 Iteration #         21
  pAp =  0.00015765465537814533  rzold =  0.000022608830155636014  alpha =  0.1434073107540479
 delta_qm =   0.540374E-04 delta_en =   0.504582E-02 tol =   0.100000E-03
 Iteration #         22
  pAp =  0.000060121320585930865  rzold =  0.000011863896274227709  alpha =  0.1973325961340245
 delta_qm =   0.643456E-04 delta_en =   0.715453E-02 tol =   0.100000E-03
 Iteration #         23
  pAp =  0.0000822243976470308  rzold =  0.000011831497080386327  alpha =  0.1438927790164672
 delta_qm =   0.460500E-04 delta_en =   0.366440E-02 tol =   0.100000E-03
 Iteration #         24
  pAp =  0.000031815964737288475  rzold =  0.000006310398381971648  alpha =  0.19834062660296542
 delta_qm =   0.531669E-04 delta_en =   0.488457E-02 tol =   0.100000E-03
 Iteration #         25
  pAp =  0.00004445876771660428  rzold =  0.000006422960893230558  alpha =  0.144470061207561
 delta_qm =   0.393210E-04 delta_en =   0.267173E-02 tol =   0.100000E-03
 Iteration #         26
  pAp =  0.000017503323244731263  rzold =  0.000003491923992909724  alpha =  0.1995006287712158
 delta_qm =   0.442851E-04 delta_en =   0.338891E-02 tol =   0.100000E-03
 Iteration #         27
  pAp =  0.00002507038316435322  rzold =  0.0000036378785527009385  alpha =  0.14510661958583554
 delta_qm =   0.335785E-04 delta_en =   0.194835E-02 tol =   0.100000E-03
 Iteration #         28
  pAp =  0.000010060513436676638  rzold =  0.0000020194433443307314  alpha =  0.20072965033460843
 delta_qm =   0.371060E-04 delta_en =   0.237920E-02 tol =   0.100000E-03
 Iteration #         29
  pAp =  0.000014791408227913031  rzold =  0.00000215583427502276  alpha =  0.14574908905255288
 delta_qm =   0.286519E-04 delta_en =   0.141857E-02 tol =   0.100000E-03
 Iteration #         30
  pAp =  0.000006051300014015109  rzold =  0.000001221865038908184  alpha =  0.20191777569750044
 delta_qm =   0.312233E-04 delta_en =   0.168462E-02 tol =   0.100000E-03
 Iteration #         31
  pAp =  0.000009124209322541132  rzold =  0.0000013352381669949212  alpha =  0.14634015066886383
 delta_qm =   0.244218E-04 delta_en =   0.103062E-02 tol =   0.100000E-03
 Iteration #         32
  pAp =  0.000003799701333526845  rzold =  7.712107047679502E-7  alpha =  0.20296613788118975
 delta_qm =   0.263524E-04 delta_en =   0.120001E-02 tol =   0.100000E-03
 Iteration #         33
  pAp =  0.000005858064722139137  rzold =  8.601886872524974E-7  alpha =  0.14683837206537215
 delta_qm =   0.207948E-04 delta_en =   0.747228E-03 tol =   0.100000E-03
 Iteration #         34
  pAp =  0.0000024763665706521766  rzold =  5.047281623930406E-7  alpha =  0.20381803258639342
 delta_qm =   0.222880E-04 delta_en =   0.858390E-03 tol =   0.100000E-03
 Iteration #         35
  pAp =  0.000003887418413867657  rzold =  5.723366633681109E-7  alpha =  0.14722795501672886
 delta_qm =   0.176919E-04 delta_en =   0.540870E-03 tol =   0.100000E-03
 Iteration #         36
  pAp =  0.0000016626896307413366  rzold =  3.399616073360517E-7  alpha =  0.20446486286467933
 delta_qm =   0.188776E-04 delta_en =   0.615799E-03 tol =   0.100000E-03
 Iteration #         37
  pAp =  0.000002646108003190297  rzold =  3.9034086552421255E-7  alpha =  0.14751509199684806
 delta_qm =   0.150432E-04 delta_en =   0.391043E-03 tol =   0.100000E-03
 Iteration #         38
  pAp =  0.0000011415855983770936  rzold =  2.339466591619892E-7  alpha =  0.20493133365958152
 delta_qm =   0.160051E-04 delta_en =   0.442651E-03 tol =   0.100000E-03
 Iteration #         39
  pAp =  0.0000018348190775615441  rzold =  2.710354333617035E-7  alpha =  0.14771779772527044
 delta_qm =   0.127863E-04 delta_en =   0.282509E-03 tol =   0.100000E-03
 Iteration #         40
  pAp =  7.964192089970342E-7  rzold =  1.6346964604271874E-7  alpha =  0.20525578011683476
 delta_qm =   0.135791E-04 delta_en =   0.318632E-03 tol =   0.100000E-03
 Iteration #         41
  pAp =  0.0000012888650001067403  rzold =  1.9056747289055345E-7  alpha =  0.14785681423172417
 delta_qm =   0.108657E-04 delta_en =   0.204014E-03 tol =   0.100000E-03
 Iteration #         42
  pAp =  5.61785958369513E-7  rzold =  1.1543367952390012E-7  alpha =  0.20547626334222824
 delta_qm =   0.115266E-04 delta_en =   0.229586E-03 tol =   0.100000E-03
 Iteration #         43
  pAp =  9.133998803396565E-7  rzold =  1.3513797850152495E-7  alpha =  0.14795051040654023
 delta_qm =   0.923275E-05 delta_en =   0.147301E-03 tol =   0.100000E-03
 Iteration #         44
  pAp =  3.992517776982583E-7  rzold =  8.209582829344805E-8  alpha =  0.2056242022684078
 delta_qm =   0.978783E-05 delta_en =   0.165545E-03 tol =   0.100000E-03
 Iteration #         45
  pAp =  6.511695313339741E-7  rzold =  9.63816583421028E-8  alpha =  0.14801315741026316
 delta_qm =   0.784507E-05 delta_en =   0.106350E-03 tol =   0.100000E-03
 Iteration #         46
  pAp =  2.85165199814982E-7  rzold =  5.8665056614869694E-8  alpha =  0.2057230568559283
 delta_qm =   0.831359E-05 delta_en =   0.119432E-03 tol =   0.100000E-03
 Iteration #         47
  pAp =  4.6606831978409065E-7  rzold =  6.900376274579805E-8  alpha =  0.14805503789179347
 delta_qm =   0.666616E-05 delta_en =   0.767883E-04 tol =   0.100000E-03
 Charges are converged, exit!

%%%% ELECTRONS %%%%%%%%%%%%%%%%%%%%%%%%%%%%%%%%%%%%%%%%%%%%%%%%%%%%%%%%%%%%%%%%%
 number of electrons        =          8
 total electronic charge    =      8.0000000
 number of spin components  =  1

%%%% BOUNDARY %%%%%%%%%%%%%%%%%%%%%%%%%%%%%%%%%%%%%%%%%%%%%%%%%%%%%%%%%%%%%%%%%%
 boundary mode              = electronic           
 boundary is built as a function of a smooth density
 function type              =  2 
 using the modified SCCS function with parameters 
 rhomax                     =      0.0050000 
 rhomin                     =      0.0001000 

%%%% DIELECTRIC %%%%%%%%%%%%%%%%%%%%%%%%%%%%%%%%%%%%%%%%%%%%%%%%%%%%%%%%%%%%%%%%%
 dielectric build on homogeneous background
 environment bulk permitt.  =    100.0000000 
 dielectric flags
 need gradient              =  F 
 need factor depend. sqrt   =  T 
 need gradient of logarithm =  T 
