
     Program PWSCF v.6.1 (svn rev. 13369) starts on 31Jan2018 at 22: 0:25 

     This program is part of the open-source Quantum ESPRESSO suite
     for quantum simulation of materials; please cite
         "P. Giannozzi et al., J. Phys.:Condens. Matter 21 395502 (2009);
          URL http://www.quantum-espresso.org", 
     in publications or presentations arising from this work. More details at
     http://www.quantum-espresso.org/quote

     Parallel version (MPI), running on     1 processors
     Reading input from charged.in

     Current dimensions of program PWSCF are:
     Max number of different atomic species (ntypx) = 10
     Max number of k-points (npk) =  40000
     Max angular momentum in pseudopotentials (lmaxx) =  3
               file C.pbe-rrkjus.UPF: wavefunction(s)  2S 2P renormalized
               file H.pbe-rrkjus.UPF: wavefunction(s)  1S renormalized
               file N.pbe-rrkjus.UPF: wavefunction(s)  2S renormalized
               file O.pbe-rrkjus.UPF: wavefunction(s)  2S renormalized

     gamma-point specific algorithms are used

     Subspace diagonalization in iterative solution of the eigenvalue problem:
     a serial algorithm will be used

 
     G-vector sticks info
     --------------------
     sticks:   dense  smooth     PW     G-vecs:    dense   smooth      PW
     Sum        9549    3809    949               701475   177509   22119
 


     bravais-lattice index     =            1
     lattice parameter (alat)  =      20.0000  a.u.
     unit-cell volume          =    8000.0000 (a.u.)^3
     number of atoms/cell      =           10
     number of atomic types    =            4
     number of electrons       =        24.00
     number of Kohn-Sham states=           12
     kinetic-energy cutoff     =      30.0000  Ry
     charge density cutoff     =     300.0000  Ry
     convergence threshold     =      5.0E-03
     mixing beta               =       0.7000
     number of iterations used =            8  plain     mixing
     Exchange-correlation      =  SLA  PW   PBE  PBE ( 1  4  3  4 0 0)
 

     Environ Module
     ==============

     Plese cite
         O. Andreussi, I. Dabo and N. Marzari, J. Chem. Phys. 136, 064102 (2012)         
     in publications or presentations arising from this work.

     compensation onset threshold      =               0.1000E+03 
     static permittivity               =                   100.00 
     epsilon calculation mode          =               electronic 

     Electrostatic Setup
     -------------------
     electrostatic problem to solve    = generalized              
     numerical solver adopted          = sd                       
     type of auxiliary density adopted = none                     
     type of core tool for poisson     = fft                      
     type of core tool for s(r) deriv  = analytic                 



     celldm(1)=  20.000000  celldm(2)=   0.000000  celldm(3)=   0.000000
     celldm(4)=   0.000000  celldm(5)=   0.000000  celldm(6)=   0.000000

     crystal axes: (cart. coord. in units of alat)
               a(1) = (   1.000000   0.000000   0.000000 )  
               a(2) = (   0.000000   1.000000   0.000000 )  
               a(3) = (   0.000000   0.000000   1.000000 )  

     reciprocal axes: (cart. coord. in units 2 pi/alat)
               b(1) = (  1.000000  0.000000  0.000000 )  
               b(2) = (  0.000000  1.000000  0.000000 )  
               b(3) = (  0.000000  0.000000  1.000000 )  


     PseudoPot. # 1 for C  read from file:
     /home/fnattino/Programs/qe-6.1/Environ/tests/../..//pseudo/C.pbe-rrkjus.UPF
     MD5 check sum: 00fb224312de0c5b6853bd333518df6f
     Pseudo is Ultrasoft, Zval =  4.0
     Generated by new atomic code, or converted to UPF format
     Using radial grid of  627 points,  4 beta functions with: 
                l(1) =   0
                l(2) =   0
                l(3) =   1
                l(4) =   1
     Q(r) pseudized with 0 coefficients 


     PseudoPot. # 2 for H  read from file:
     /home/fnattino/Programs/qe-6.1/Environ/tests/../..//pseudo/H.pbe-rrkjus.UPF
     MD5 check sum: 7cc9d459525c9a0585f487a71c3c9563
     Pseudo is Ultrasoft, Zval =  1.0
     Generated by new atomic code, or converted to UPF format
     Using radial grid of 1061 points,  2 beta functions with: 
                l(1) =   0
                l(2) =   0
     Q(r) pseudized with 0 coefficients 


     PseudoPot. # 3 for N  read from file:
     /home/fnattino/Programs/qe-6.1/Environ/tests/../..//pseudo/N.pbe-rrkjus.UPF
     MD5 check sum: 0c3fbe5807a93f9ba59d5a7019aa238b
     Pseudo is Ultrasoft, Zval =  5.0
     Generated by new atomic code, or converted to UPF format
     Using radial grid of 1257 points,  4 beta functions with: 
                l(1) =   0
                l(2) =   0
                l(3) =   1
                l(4) =   1
     Q(r) pseudized with 0 coefficients 


     PseudoPot. # 4 for O  read from file:
     /home/fnattino/Programs/qe-6.1/Environ/tests/../..//pseudo/O.pbe-rrkjus.UPF
     MD5 check sum: 390ba29e75625707450f3bd3f0eb6be9
     Pseudo is Ultrasoft, Zval =  6.0
     Generated by new atomic code, or converted to UPF format
     Using radial grid of 1269 points,  4 beta functions with: 
                l(1) =   0
                l(2) =   0
                l(3) =   1
                l(4) =   1
     Q(r) pseudized with 0 coefficients 


     atomic species   valence    mass     pseudopotential
        C              4.00    12.00000     C ( 1.00)
        H              1.00     1.00000     H ( 1.00)
        N              5.00    14.00000     N ( 1.00)
        O              6.00    16.00000     O ( 1.00)

     No symmetry found



   Cartesian axes

     site n.     atom                  positions (alat units)
         1           C   tau(   1) = (   0.0000000   0.0000000   0.0000000  )
         2           C   tau(   2) = (   0.0000000   0.0000000   0.1455089  )
         3           N   tau(   3) = (   0.1170969   0.0000000  -0.0545024  )
         4           H   tau(   4) = (   0.0476617  -0.0825466   0.1792090  )
         5           H   tau(   5) = (  -0.0953183  -0.0000030   0.1792090  )
         6           H   tau(   6) = (   0.0476566   0.0825496   0.1792090  )
         7           O   tau(   7) = (  -0.0984002  -0.0000019  -0.0641310  )
         8           H   tau(   8) = (   0.1263131  -0.0000015  -0.1475548  )
         9           H   tau(   9) = (   0.1944645   0.0000134  -0.0025716  )
        10           H   tau(  10) = (  -0.0770366  -0.0000045  -0.1522861  )

     number of k points=     1
                       cart. coord. in units 2pi/alat
        k(    1) = (   0.0000000   0.0000000   0.0000000), wk =   2.0000000

     Dense  grid:   350738 G-vectors     FFT dimensions: ( 120, 120, 120)

     Smooth grid:    88755 G-vectors     FFT dimensions: (  72,  72,  72)

     Estimated max dynamical RAM per process >     298.98MB

     Initial potential from superposition of free atoms
     Check: negative starting charge=   -0.000452

     starting charge   24.42266, renormalised to   24.00000

     negative rho (up, down):  4.438E-04 0.000E+00
     Starting wfc are   22 randomized atomic wfcs

     total cpu time spent up to now is        4.0 secs

     per-process dynamical memory:   607.6 Mb

     Self-consistent Calculation

     iteration #  1     ecut=    30.00 Ry     beta=0.70
     Davidson diagonalization with overlap
     ethr =  1.00E-02,  avg # of iterations =  2.0

     negative rho (up, down):  1.277E-04 0.000E+00

     add environment contribution to local potential
     polarization accuracy = 6.2E-06, # of iterations =  41

     total cpu time spent up to now is       10.2 secs

     total energy              =     -80.23903180 Ry
     Harris-Foulkes estimate   =     -83.01879009 Ry
     estimated scf accuracy    <       3.73442311 Ry
     electrostatic embedding   =       0.00000000 Ry
     correction to one-el term =       0.00000000 Ry

     iteration #  2     ecut=    30.00 Ry     beta=0.70
     Davidson diagonalization with overlap
     ethr =  1.00E-02,  avg # of iterations =  4.0

     negative rho (up, down):  6.920E-04 0.000E+00

     add environment contribution to local potential
     polarization accuracy = 6.4E-06, # of iterations =  59

     total cpu time spent up to now is       18.1 secs

     total energy              =     -80.96156211 Ry
     Harris-Foulkes estimate   =     -76.58371442 Ry
     estimated scf accuracy    <       1.54143272 Ry
     electrostatic embedding   =      -0.18544465 Ry
     correction to one-el term =      -5.01782685 Ry

     iteration #  3     ecut=    30.00 Ry     beta=0.70
     Davidson diagonalization with overlap
     ethr =  6.42E-03,  avg # of iterations =  3.0

     negative rho (up, down):  3.243E-04 0.000E+00

     add environment contribution to local potential
     polarization accuracy = 7.7E-06, # of iterations =  73

     total cpu time spent up to now is       27.1 secs

     total energy              =     -81.32005319 Ry
     Harris-Foulkes estimate   =     -77.00545845 Ry
     estimated scf accuracy    <       0.24273730 Ry
     electrostatic embedding   =      -0.15280445 Ry
     correction to one-el term =      -4.29119098 Ry

     iteration #  4     ecut=    30.00 Ry     beta=0.70
     Davidson diagonalization with overlap
     ethr =  1.01E-03,  avg # of iterations =  4.0

     negative rho (up, down):  8.667E-05 0.000E+00

     add environment contribution to local potential
     polarization accuracy = 8.2E-06, # of iterations =  89

     total cpu time spent up to now is       37.4 secs

     total energy              =     -81.37922494 Ry
     Harris-Foulkes estimate   =     -77.20728856 Ry
     estimated scf accuracy    <       0.02093634 Ry
     electrostatic embedding   =      -0.12841320 Ry
     correction to one-el term =      -4.05415732 Ry

     iteration #  5     ecut=    30.00 Ry     beta=0.70
     Davidson diagonalization with overlap
     ethr =  8.72E-05,  avg # of iterations =  4.0

     negative rho (up, down):  2.756E-04 0.000E+00

     total cpu time spent up to now is       39.3 secs

     End of self-consistent calculation

          k = 0.0000 0.0000 0.0000 ( 11060 PWs)   bands (ev):

   -28.9375 -23.1992 -18.6810 -16.0122 -14.7185 -13.4442 -11.7059 -10.9635
    -9.6059  -9.5911  -9.3542  -7.4402

     highest occupied level (ev):    -7.4402

!    total energy              =     -81.38468778 Ry
     Harris-Foulkes estimate   =     -77.44083308 Ry
     estimated scf accuracy    <       0.00247568 Ry

     The total energy is the sum of the following terms:

     one-electron contribution =    -241.93635275 Ry
     hartree contribution      =     123.13421438 Ry
     xc contribution           =     -22.94468834 Ry
     ewald contribution        =      64.30784006 Ry
     electrostatic embedding   =      -0.12263271 Ry
     correction to one-el term =      -3.82306842 Ry

     convergence has been achieved in   5 iterations

     Forces acting on atoms (cartesian axes, Ry/au):

     atom    1 type  1   force =     0.21833954    0.00001204    0.09997048
     atom    2 type  1   force =    -0.03323585   -0.00000468   -0.08063112
     atom    3 type  3   force =    -0.13914470   -0.00000059    0.04521487
     atom    4 type  2   force =     0.01776085   -0.02856702    0.00858971
     atom    5 type  2   force =    -0.03291016   -0.00000261    0.01192238
     atom    6 type  2   force =     0.01776428    0.02857269    0.00859097
     atom    7 type  4   force =    -0.08357384   -0.00003013   -0.01003399
     atom    8 type  2   force =     0.00524198    0.00000586   -0.04816208
     atom    9 type  2   force =     0.03845090    0.00001016    0.03891683
     atom   10 type  2   force =    -0.00869300    0.00000426   -0.07437805

     Total force =     0.329161     Total SCF correction =     0.120926
     SCF correction compared to forces is large: reduce conv_thr to get better values

     Writing output data file pwscf.save
 
     init_run     :      3.76s CPU      3.92s WALL (       1 calls)
     electrons    :     32.26s CPU     35.34s WALL (       1 calls)
     forces       :      0.72s CPU      0.77s WALL (       1 calls)

     Called by init_run:
     wfcinit      :      0.10s CPU      0.10s WALL (       1 calls)
     potinit      :      1.57s CPU      1.61s WALL (       1 calls)

     Called by electrons:
     c_bands      :      0.84s CPU      0.85s WALL (       5 calls)
     sum_band     :      2.27s CPU      2.48s WALL (       5 calls)
     v_of_rho     :      3.20s CPU      3.31s WALL (       6 calls)
     newd         :      1.31s CPU      1.60s WALL (       6 calls)
     mix_rho      :      0.24s CPU      0.25s WALL (       5 calls)

     Called by c_bands:
     init_us_2    :      0.04s CPU      0.05s WALL (      11 calls)
     regterg      :      0.78s CPU      0.79s WALL (       5 calls)

     Called by sum_band:
     sum_band:bec :      0.00s CPU      0.00s WALL (       5 calls)
     addusdens    :      1.68s CPU      1.88s WALL (       5 calls)

     Called by *egterg:
     h_psi        :      0.77s CPU      0.77s WALL (      23 calls)
     s_psi        :      0.02s CPU      0.02s WALL (      23 calls)
     g_psi        :      0.00s CPU      0.01s WALL (      17 calls)
     rdiaghg      :      0.01s CPU      0.01s WALL (      22 calls)

     Called by h_psi:
     h_psi:pot    :      0.76s CPU      0.76s WALL (      23 calls)
     h_psi:calbec :      0.02s CPU      0.02s WALL (      23 calls)
     vloc_psi     :      0.72s CPU      0.72s WALL (      23 calls)
     add_vuspsi   :      0.02s CPU      0.02s WALL (      23 calls)

     General routines
     calbec       :      0.03s CPU      0.03s WALL (      32 calls)
     fft          :     14.80s CPU     15.69s WALL (     701 calls)
     ffts         :      0.04s CPU      0.04s WALL (      11 calls)
     fftw         :      0.57s CPU      0.55s WALL (     244 calls)
     interpolate  :      0.31s CPU      0.35s WALL (      11 calls)
     davcio       :      0.00s CPU      0.00s WALL (       1 calls)
 
     Parallel routines
     fft_scatter  :      3.75s CPU      4.18s WALL (     956 calls)
 
     Environ routines
     calc_eelect  :      0.01s CPU      0.01s WALL (      10 calls)
     calc_velect  :     21.44s CPU     23.82s WALL (       8 calls)
     dielectric   :      0.32s CPU      0.32s WALL (       7 calls)
     calc_felect  :      0.08s CPU      0.08s WALL (       1 calls)
 
     PWSCF        :    36.95s CPU        40.24s WALL

 
   This run was terminated on:  22: 1: 5  31Jan2018            

=------------------------------------------------------------------------------=
   JOB DONE.
=------------------------------------------------------------------------------=

%%%% IONS %%%%%%%%%%%%%%%%%%%%%%%%%%%%%%%%%%%%%%%%%%%%%%%%%%%%%%%%%%%%%%%%%%%%%%
 number of ions             =         10
 ionic center of charge     =      0.0095530    -0.0000002     0.0063981
 total ionic charge         =    -25.0000000
 ionic dipole               =      0.0000000     0.0000000     0.0000000
 ionic quadrupole (pc)      =    -79.0828058    -5.4513517  -105.8059629
 ionic quadrupole (gauss)   =    -82.2078058    -8.5763517  -108.9309629
 ion   1 type =  1 coordinates =      0.0000000     0.0000000     0.0000000
 ion   2 type =  1 coordinates =      0.0000000     0.0000000     2.9101782
 ion   3 type =  3 coordinates =      2.3419379     0.0000000    -1.0900479
 ion   4 type =  2 coordinates =      0.9532347    -1.6509323     3.5841800
 ion   5 type =  2 coordinates =     -1.9063663    -0.0000596     3.5841809
 ion   6 type =  2 coordinates =      0.9531315     1.6509919     3.5841800
 ion   7 type =  4 coordinates =     -1.9680045    -0.0000375    -1.2826193
 ion   8 type =  2 coordinates =      2.5262613    -0.0000303    -2.9510950
 ion   9 type =  2 coordinates =      3.8892907     0.0002681    -0.0514326
 ion  10 type =  2 coordinates =     -1.5407317    -0.0000890    -3.0457220

%%%% SYSTEM %%%%%%%%%%%%%%%%%%%%%%%%%%%%%%%%%%%%%%%%%%%%%%%%%%%%%%%%%%%%%%%%%%%%
 system is built from all present ionic types
 system defined dimension   =  0 
 system defined axis        =  3 
 system center              =      0.0095530    -0.0000002     0.0063981 
 system width               =      0.2021425 

%%%% ELECTRONS %%%%%%%%%%%%%%%%%%%%%%%%%%%%%%%%%%%%%%%%%%%%%%%%%%%%%%%%%%%%%%%%%
 number of electrons        =         24
 total electronic charge    =     24.0000000
 number of spin components  =  1

%%%% BOUNDARY %%%%%%%%%%%%%%%%%%%%%%%%%%%%%%%%%%%%%%%%%%%%%%%%%%%%%%%%%%%%%%%%%%
 boundary mode              = electronic           
 boundary is built as a function of a smooth density
 function type              =  2 
 using the modified SCCS function with parameters 
 rhomax                     =      0.0050000 
 rhomin                     =      0.0001000 
 volume of the QM region    =   2771.6247530 
 surface of the QM region   =    905.6008160 

%%%% DIELECTRIC %%%%%%%%%%%%%%%%%%%%%%%%%%%%%%%%%%%%%%%%%%%%%%%%%%%%%%%%%%%%%%%%%
 dielectric build on homogeneous background
 environment bulk permitt.  =    100.0000000 
 dielectric flags
 need gradient              =  F 
 need factor depend. sqrt   =  T 
 total dielectric charge    =      0.0000000

%%%% ELECTRONS %%%%%%%%%%%%%%%%%%%%%%%%%%%%%%%%%%%%%%%%%%%%%%%%%%%%%%%%%%%%%%%%%
 number of electrons        =         24
 total electronic charge    =     24.0000000
 number of spin components  =  1

%%%% BOUNDARY %%%%%%%%%%%%%%%%%%%%%%%%%%%%%%%%%%%%%%%%%%%%%%%%%%%%%%%%%%%%%%%%%%
 boundary mode              = electronic           
 boundary is built as a function of a smooth density
 function type              =  2 
 using the modified SCCS function with parameters 
 rhomax                     =      0.0050000 
 rhomin                     =      0.0001000 
 volume of the QM region    =    989.6663489 
 surface of the QM region   =    490.3846933 

%%%% DIELECTRIC %%%%%%%%%%%%%%%%%%%%%%%%%%%%%%%%%%%%%%%%%%%%%%%%%%%%%%%%%%%%%%%%%
 dielectric build on homogeneous background
 environment bulk permitt.  =    100.0000000 
 dielectric flags
 need gradient              =  F 
 need factor depend. sqrt   =  T 
 total dielectric charge    =      0.0000000

%%%% COMPUTE ELECTROSTATIC POTENTIAL %%%%%%%%%%%%%%%%%%%%%%%%%%%%%%%%%%%%%%%%%%%
 Iteration #          1
  pAp =    92.0128432578631       rzold =    89.1168179276184       alpha = 
  0.968525857611761     
 delta_qm =   0.144051E-01 delta_en =   0.358571E+03 tol =   0.100000E-04
 Iteration #          2
  pAp =    136.114914614589       rzold =    17.6132539663365       alpha = 
  0.129399882563998     
 delta_qm =   0.336507E-02 delta_en =   0.195674E+02 tol =   0.100000E-04
 Iteration #          3
  pAp =   0.908309576250231       rzold =   0.241839556781117       alpha = 
  0.266252347332395     
 delta_qm =   0.195624E-02 delta_en =   0.661287E+01 tol =   0.100000E-04
 Iteration #          4
  pAp =   0.435846000431207       rzold =   9.237384772928182E-002  alpha = 
  0.211941483087813     
 delta_qm =   0.169610E-02 delta_en =   0.497102E+01 tol =   0.100000E-04
 Iteration #          5
  pAp =   0.183051800050283       rzold =   4.411586028810565E-002  alpha = 
  0.241002056663672     
 delta_qm =   0.107770E-02 delta_en =   0.200696E+01 tol =   0.100000E-04
 Iteration #          6
  pAp =   0.143497125650545       rzold =   2.995277073679346E-002  alpha = 
  0.208734290676572     
 delta_qm =   0.103949E-02 delta_en =   0.186716E+01 tol =   0.100000E-04
 Iteration #          7
  pAp =   6.550556980875846E-002  rzold =   1.561116573956764E-002  alpha = 
  0.238318142795246     
 delta_qm =   0.650222E-03 delta_en =   0.730578E+00 tol =   0.100000E-04
 Iteration #          8
  pAp =   5.190014181033342E-002  rzold =   1.077143851302103E-002  alpha = 
  0.207541600799180     
 delta_qm =   0.651750E-03 delta_en =   0.734017E+00 tol =   0.100000E-04
 Iteration #          9
  pAp =   2.391467242098871E-002  rzold =   5.679822620580080E-003  alpha = 
  0.237503676429002     
 delta_qm =   0.406247E-03 delta_en =   0.285183E+00 tol =   0.100000E-04
 Iteration #         10
  pAp =   1.902485629839845E-002  rzold =   3.943219456727558E-003  alpha = 
  0.207266714390873     
 delta_qm =   0.417526E-03 delta_en =   0.301239E+00 tol =   0.100000E-04
 Iteration #         11
  pAp =   8.808385938244260E-003  rzold =   2.091159660594173E-003  alpha = 
  0.237405544586185     
 delta_qm =   0.261227E-03 delta_en =   0.117918E+00 tol =   0.100000E-04
 Iteration #         12
  pAp =   7.034035145332390E-003  rzold =   1.458225619413880E-003  alpha = 
  0.207309970633502     
 delta_qm =   0.273074E-03 delta_en =   0.128856E+00 tol =   0.100000E-04
 Iteration #         13
  pAp =   3.269834107347345E-003  rzold =   7.767839757674013E-004  alpha = 
  0.237560668298725     
 delta_qm =   0.172491E-03 delta_en =   0.514135E-01 tol =   0.100000E-04
 Iteration #         14
  pAp =   2.622868632467235E-003  rzold =   5.441994620915342E-004  alpha = 
  0.207482546153913     
 delta_qm =   0.182170E-03 delta_en =   0.573450E-01 tol =   0.100000E-04
 Iteration #         15
  pAp =   1.224861181188318E-003  rzold =   2.913304810688528E-004  alpha = 
  0.237847754131790     
 delta_qm =   0.116780E-03 delta_en =   0.235656E-01 tol =   0.100000E-04
 Iteration #         16
  pAp =   9.881714521640947E-004  rzold =   2.052889126374206E-004  alpha = 
  0.207746249082422     
 delta_qm =   0.123787E-03 delta_en =   0.264787E-01 tol =   0.100000E-04
 Iteration #         17
  pAp =   4.641924786924967E-004  rzold =   1.105967208819062E-004  alpha = 
  0.238256167341244     
 delta_qm =   0.808618E-04 delta_en =   0.112987E-01 tol =   0.100000E-04
 Iteration #         18
  pAp =   3.773597817324816E-004  rzold =   7.853206542994556E-005  alpha = 
  0.208109261324564     
 delta_qm =   0.855213E-04 delta_en =   0.126384E-01 tol =   0.100000E-04
 Iteration #         19
  pAp =   1.786533231240628E-004  rzold =   4.266383692214040E-005  alpha = 
  0.238807967162823     
 delta_qm =   0.570571E-04 delta_en =   0.562552E-02 tol =   0.100000E-04
 Iteration #         20
  pAp =   1.467141484050359E-004  rzold =   3.060336900452041E-005  alpha = 
  0.208591804793313     
 delta_qm =   0.599399E-04 delta_en =   0.620834E-02 tol =   0.100000E-04
 Iteration #         21
  pAp =   7.017663085348668E-005  rzold =   1.680939404699617E-005  alpha = 
  0.239529795639384     
 delta_qm =   0.408535E-04 delta_en =   0.288405E-02 tol =   0.100000E-04
 Iteration #         22
  pAp =   5.839640756964071E-005  rzold =   1.221714862781765E-005  alpha = 
  0.209210619904111     
 delta_qm =   0.425203E-04 delta_en =   0.312418E-02 tol =   0.100000E-04
 Iteration #         23
  pAp =   2.830195510455276E-005  rzold =   6.804795208198175E-006  alpha = 
  0.240435517018523     
 delta_qm =   0.295624E-04 delta_en =   0.151016E-02 tol =   0.100000E-04
 Iteration #         24
  pAp =   2.394348264626385E-005  rzold =   5.027327771897336E-006  alpha = 
  0.209966438306827     
 delta_qm =   0.304616E-04 delta_en =   0.160343E-02 tol =   0.100000E-04
 Iteration #         25
  pAp =   1.179185801765935E-005  rzold =   2.847857202991571E-006  alpha = 
  0.241510472626676     
 delta_qm =   0.215463E-04 delta_en =   0.802210E-03 tol =   0.100000E-04
 Iteration #         26
  pAp =   1.017319874098493E-005  rzold =   2.144851677815568E-006  alpha = 
  0.210833557116560     
 delta_qm =   0.219953E-04 delta_en =   0.835997E-03 tol =   0.100000E-04
 Iteration #         27
  pAp =   5.103106382649308E-006  rzold =   1.238532968551821E-006  alpha = 
  0.242701773328274     
 delta_qm =   0.157776E-04 delta_en =   0.430158E-03 tol =   0.100000E-04
 Iteration #         28
  pAp =   4.499042180045097E-006  rzold =   9.527067161017324E-007  alpha = 
  0.211757675962083     
 delta_qm =   0.159815E-04 delta_en =   0.441345E-03 tol =   0.100000E-04
 Iteration #         29
  pAp =   2.301416282740636E-006  rzold =   5.613705496248005E-007  alpha = 
  0.243923949715127     
 delta_qm =   0.115890E-04 delta_en =   0.232077E-03 tol =   0.100000E-04
 Iteration #         30
  pAp =   2.074526019800143E-006  rzold =   4.411844649047401E-007  alpha = 
  0.212667597655508     
 delta_qm =   0.116697E-04 delta_en =   0.235324E-03 tol =   0.100000E-04
 Iteration #         31
  pAp =   1.081810273685673E-006  rzold =   2.651327356291753E-007  alpha = 
  0.245082471555647     
 delta_qm =   0.853073E-05 delta_en =   0.125752E-03 tol =   0.100000E-04
 Iteration #         32
  pAp =   9.958520320060672E-007  rzold =   2.126115060094160E-007  alpha = 
  0.213497085085147     
 delta_qm =   0.855574E-05 delta_en =   0.126491E-03 tol =   0.100000E-04
 Iteration #         33
  pAp =   5.284862022224335E-007  rzold =   1.300621040026626E-007  alpha = 
  0.246103121435744     
 delta_qm =   0.629069E-05 delta_en =   0.683818E-04 tol =   0.100000E-04
 Iteration #         34
  pAp =   4.955597102736902E-007  rzold =   1.061508105416696E-007  alpha = 
  0.214203875619840     
 delta_qm =   0.629402E-05 delta_en =   0.684542E-04 tol =   0.100000E-04
 Iteration #         35
  pAp =   2.669339613136767E-007  rzold =   6.591917596308673E-008  alpha = 
  0.246949378935056     
 delta_qm =   0.464670E-05 delta_en =   0.373107E-04 tol =   0.100000E-04
 Iteration #         36
  pAp =   2.541554336601712E-007  rzold =   5.458631425570314E-008  alpha = 
  0.214775318668536     
 delta_qm =   0.464388E-05 delta_en =   0.372654E-04 tol =   0.100000E-04
 Iteration #         37
  pAp =   1.385559002394512E-007  rzold =   3.430932605439773E-008  alpha = 
  0.247620823040409     
 delta_qm =   0.343835E-05 delta_en =   0.204288E-04 tol =   0.100000E-04
 Iteration #         38
  pAp =   1.335270887673222E-007  rzold =   2.873789752936419E-008  alpha = 
  0.215221478987245     
 delta_qm =   0.343546E-05 delta_en =   0.203946E-04 tol =   0.100000E-04
 Iteration #         39
  pAp =   7.347796125280728E-008  rzold =   1.823280446994364E-008  alpha = 
  0.248139770879218     
 delta_qm =   0.254889E-05 delta_en =   0.112266E-04 tol =   0.100000E-04
 Iteration #         40
  pAp =   7.147354982007930E-008  rzold =   1.540710799752709E-008  alpha = 
  0.215563772001132     
 delta_qm =   0.254767E-05 delta_en =   0.112158E-04 tol =   0.100000E-04
 Iteration #         41
  pAp =   3.961310717116837E-008  rzold =   9.845322035312304E-009  alpha = 
  0.248536980266926     
 delta_qm =   0.189312E-05 delta_en =   0.619299E-05 tol =   0.100000E-04
 Charges are converged, EXIT

%%%% ELECTRONS %%%%%%%%%%%%%%%%%%%%%%%%%%%%%%%%%%%%%%%%%%%%%%%%%%%%%%%%%%%%%%%%%
 number of electrons        =         23
 total electronic charge    =     24.0000000
 number of spin components  =  1

%%%% BOUNDARY %%%%%%%%%%%%%%%%%%%%%%%%%%%%%%%%%%%%%%%%%%%%%%%%%%%%%%%%%%%%%%%%%%
 boundary mode              = electronic           
 boundary is built as a function of a smooth density
 function type              =  2 
 using the modified SCCS function with parameters 
 rhomax                     =      0.0050000 
 rhomin                     =      0.0001000 
 volume of the QM region    =    837.6755054 
 surface of the QM region   =    448.9928527 

%%%% DIELECTRIC %%%%%%%%%%%%%%%%%%%%%%%%%%%%%%%%%%%%%%%%%%%%%%%%%%%%%%%%%%%%%%%%%
 dielectric build on homogeneous background
 environment bulk permitt.  =    100.0000000 
 dielectric flags
 need gradient              =  F 
 need factor depend. sqrt   =  T 
 total dielectric charge    =      0.9813672

%%%% COMPUTE ELECTROSTATIC POTENTIAL %%%%%%%%%%%%%%%%%%%%%%%%%%%%%%%%%%%%%%%%%%%
 Warning: bad guess with residual norm =   0.739951E+03, reset to no guess
 Iteration #          1
  pAp =    95.4533186211468       rzold =    92.7270635552488       alpha = 
  0.971438865559840     
 delta_qm =   0.202002E-01 delta_en =   0.705104E+03 tol =   0.100000E-04
 Iteration #          2
  pAp =    172.617852433914       rzold =    19.5454039787569       alpha = 
  0.113229331168048     
 delta_qm =   0.430270E-02 delta_en =   0.319908E+02 tol =   0.100000E-04
 Iteration #          3
  pAp =    1.16215081901353       rzold =   0.247084944106341       alpha = 
  0.212610050316942     
 delta_qm =   0.230204E-02 delta_en =   0.915731E+01 tol =   0.100000E-04
 Iteration #          4
  pAp =   0.449525661149575       rzold =   8.774101447493109E-002  alpha = 
  0.195185774824401     
 delta_qm =   0.233867E-02 delta_en =   0.945110E+01 tol =   0.100000E-04
 Iteration #          5
  pAp =   0.250267146980061       rzold =   5.069139867976347E-002  alpha = 
  0.202549153140752     
 delta_qm =   0.138266E-02 delta_en =   0.330349E+01 tol =   0.100000E-04
 Iteration #          6
  pAp =   0.174982348005448       rzold =   3.369926429227799E-002  alpha = 
  0.192586650461616     
 delta_qm =   0.158809E-02 delta_en =   0.435806E+01 tol =   0.100000E-04
 Iteration #          7
  pAp =   0.103121938544065       rzold =   2.069799954056247E-002  alpha = 
  0.200713832893259     
 delta_qm =   0.918562E-03 delta_en =   0.145801E+01 tol =   0.100000E-04
 Iteration #          8
  pAp =   7.304738993049029E-002  rzold =   1.399569648682008E-002  alpha = 
  0.191597488974458     
 delta_qm =   0.110882E-02 delta_en =   0.212454E+01 tol =   0.100000E-04
 Iteration #          9
  pAp =   4.343286831458212E-002  rzold =   8.694225034627608E-003  alpha = 
  0.200176165471176     
 delta_qm =   0.648092E-03 delta_en =   0.725799E+00 tol =   0.100000E-04
 Iteration #         10
  pAp =   3.097003411323024E-002  rzold =   5.928651703616497E-003  alpha = 
  0.191431875145524     
 delta_qm =   0.793847E-03 delta_en =   0.108897E+01 tol =   0.100000E-04
 Iteration #         11
  pAp =   1.853903474245884E-002  rzold =   3.711986736130207E-003  alpha = 
  0.200225458752114     
 delta_qm =   0.478078E-03 delta_en =   0.394950E+00 tol =   0.100000E-04
 Iteration #         12
  pAp =   1.331159626730422E-002  rzold =   2.550764264601488E-003  alpha = 
  0.191619713622674     
 delta_qm =   0.581571E-03 delta_en =   0.584452E+00 tol =   0.100000E-04
 Iteration #         13
  pAp =   8.029015000373197E-003  rzold =   1.610196035140797E-003  alpha = 
  0.200547144956879     
 delta_qm =   0.364114E-03 delta_en =   0.229096E+00 tol =   0.100000E-04
 Iteration #         14
  pAp =   5.815762425061458E-003  rzold =   1.116644273967303E-003  alpha = 
  0.192003075840138     
 delta_qm =   0.434655E-03 delta_en =   0.326462E+00 tol =   0.100000E-04
 Iteration #         15
  pAp =   3.541894763376451E-003  rzold =   7.121210570809931E-004  alpha = 
  0.201056526140866     
 delta_qm =   0.283366E-03 delta_en =   0.138752E+00 tol =   0.100000E-04
 Iteration #         16
  pAp =   2.595174750261265E-003  rzold =   4.997008493919312E-004  alpha = 
  0.192549981207094     
 delta_qm =   0.330246E-03 delta_en =   0.188459E+00 tol =   0.100000E-04
 Iteration #         17
  pAp =   1.600549419488755E-003  rzold =   3.229004691981907E-004  alpha = 
  0.201743517111350     
 delta_qm =   0.223498E-03 delta_en =   0.863156E-01 tol =   0.100000E-04
 Iteration #         18
  pAp =   1.190296496878954E-003  rzold =   2.300350524020473E-004  alpha = 
  0.193258614979727     
 delta_qm =   0.254192E-03 delta_en =   0.111652E+00 tol =   0.100000E-04
 Iteration #         19
  pAp =   7.459390766508944E-004  rzold =   1.511295490791060E-004  alpha = 
  0.202603072837590     
 delta_qm =   0.177588E-03 delta_en =   0.544966E-01 tol =   0.100000E-04
 Iteration #         20
  pAp =   5.650459974064802E-004  rzold =   1.096832808580849E-004  alpha = 
  0.194113897561478     
 delta_qm =   0.197584E-03 delta_en =   0.674599E-01 tol =   0.100000E-04
 Iteration #         21
  pAp =   3.609691954036714E-004  rzold =   7.349410836716984E-005  alpha = 
  0.203602161356128     
 delta_qm =   0.141590E-03 delta_en =   0.346427E-01 tol =   0.100000E-04
 Iteration #         22
  pAp =   2.793279299855367E-004  rzold =   5.448789234223167E-005  alpha = 
  0.195067827069971     
 delta_qm =   0.154689E-03 delta_en =   0.413487E-01 tol =   0.100000E-04
 Iteration #         23
  pAp =   1.822993523137234E-004  rzold =   3.731112849841671E-005  alpha = 
  0.204669561492501     
 delta_qm =   0.113002E-03 delta_en =   0.220657E-01 tol =   0.100000E-04
 Iteration #         24
  pAp =   1.443157721134984E-004  rzold =   2.829187000938701E-005  alpha = 
  0.196041427732075     
 delta_qm =   0.121725E-03 delta_en =   0.256037E-01 tol =   0.100000E-04
 Iteration #         25
  pAp =   9.626165096417614E-005  rzold =   1.980201582944314E-005  alpha = 
  0.205710328371705     
 delta_qm =   0.901626E-04 delta_en =   0.140474E-01 tol =   0.100000E-04
 Iteration #         26
  pAp =   7.791330655360937E-005  rzold =   1.534485189925513E-005  alpha = 
  0.196947768975725     
 delta_qm =   0.961249E-04 delta_en =   0.159667E-01 tol =   0.100000E-04
 Iteration #         27
  pAp =   5.303476311032075E-005  rzold =   1.095896978737231E-005  alpha = 
  0.206637479733357     
 delta_qm =   0.718852E-04 delta_en =   0.892940E-02 tol =   0.100000E-04
 Iteration #         28
  pAp =   4.378151841760030E-005  rzold =   8.656552633811891E-006  alpha = 
  0.197721617401281     
 delta_qm =   0.760943E-04 delta_en =   0.100057E-01 tol =   0.100000E-04
 Iteration #         29
  pAp =   3.032192143092697E-005  rzold =   6.288746966808182E-006  alpha = 
  0.207399355648813     
 delta_qm =   0.572679E-04 delta_en =   0.566717E-02 tol =   0.100000E-04
 Iteration #         30
  pAp =   2.544045720732330E-005  rzold =   5.045748039701913E-006  alpha = 
  0.198335588019599     
 delta_qm =   0.603406E-04 delta_en =   0.629162E-02 tol =   0.100000E-04
 Iteration #         31
  pAp =   1.786281596984612E-005  rzold =   3.715215233433270E-006  alpha = 
  0.207985977110488     
 delta_qm =   0.455956E-04 delta_en =   0.359244E-02 tol =   0.100000E-04
 Iteration #         32
  pAp =   1.517510662680724E-005  rzold =   3.016753656495106E-006  alpha = 
  0.198796208203633     
 delta_qm =   0.479076E-04 delta_en =   0.396599E-02 tol =   0.100000E-04
 Iteration #         33
  pAp =   1.076521252067015E-005  rzold =   2.243654031953106E-006  alpha = 
  0.208417068185611     
 delta_qm =   0.362896E-04 delta_en =   0.227566E-02 tol =   0.100000E-04
 Iteration #         34
  pAp =   9.229485498830685E-006  rzold =   1.837859750495480E-006  alpha = 
  0.199129166054633     
 delta_qm =   0.380726E-04 delta_en =   0.250478E-02 tol =   0.100000E-04
 Iteration #         35
  pAp =   6.596164879729694E-006  rzold =   1.376785321111449E-006  alpha = 
  0.208725122281641     
 delta_qm =   0.288799E-04 delta_en =   0.144123E-02 tol =   0.100000E-04
 Iteration #         36
  pAp =   5.692201508113856E-006  rzold =   1.134827723258977E-006  alpha = 
  0.199365346016186     
 delta_qm =   0.302804E-04 delta_en =   0.158441E-02 tol =   0.100000E-04
 Iteration #         37
  pAp =   4.089550275969410E-006  rzold =   8.544830922342795E-007  alpha = 
  0.208943046196376     
 delta_qm =   0.229852E-04 delta_en =   0.912937E-03 tol =   0.100000E-04
 Iteration #         38
  pAp =   3.545388613035968E-006  rzold =   7.074207566715934E-007  alpha = 
  0.199532641942407     
 delta_qm =   0.240996E-04 delta_en =   0.100361E-02 tol =   0.100000E-04
 Iteration #         39
  pAp =   2.556642637625327E-006  rzold =   5.345896106177846E-007  alpha = 
  0.209098292718111     
 delta_qm =   0.182983E-04 delta_en =   0.578585E-03 tol =   0.100000E-04
 Iteration #         40
  pAp =   2.223707404488703E-006  rzold =   4.439697864568298E-007  alpha = 
  0.199652969433230     
 delta_qm =   0.191928E-04 delta_en =   0.636535E-03 tol =   0.100000E-04
 Iteration #         41
  pAp =   1.607820534497748E-006  rzold =   3.363745263029116E-007  alpha = 
  0.209211487902777     
 delta_qm =   0.145726E-04 delta_en =   0.366959E-03 tol =   0.100000E-04
 Iteration #         42
  pAp =   1.401764840331253E-006  rzold =   2.799916238794214E-007  alpha = 
  0.199742221964460     
 delta_qm =   0.152946E-04 delta_en =   0.404224E-03 tol =   0.100000E-04
 Iteration #         43
  pAp =   1.015514864989674E-006  rzold =   2.125444063933281E-007  alpha = 
  0.209297188766891     
 delta_qm =   0.116109E-04 delta_en =   0.232955E-03 tol =   0.100000E-04
 Iteration #         44
  pAp =   8.869500861679822E-007  rzold =   1.772227135082119E-007  alpha = 
  0.199811371882146     
 delta_qm =   0.121958E-04 delta_en =   0.257017E-03 tol =   0.100000E-04
 Iteration #         45
  pAp =   6.435253406030777E-007  rzold =   1.347318582561578E-007  alpha = 
  0.209365272438059     
 delta_qm =   0.925604E-05 delta_en =   0.148045E-03 tol =   0.100000E-04
 Iteration #         46
  pAp =   5.628472408852988E-007  rzold =   1.124950160091216E-007  alpha = 
  0.199867757781274     
 delta_qm =   0.973087E-05 delta_en =   0.163624E-03 tol =   0.100000E-04
 Iteration #         47
  pAp =   4.088724871471914E-007  rzold =   8.562700381991078E-008  alpha = 
  0.209422268583911     
 delta_qm =   0.738317E-05 delta_en =   0.941954E-04 tol =   0.100000E-04
 Iteration #         48
  pAp =   3.580320095227432E-007  rzold =   7.157639261953092E-008  alpha = 
  0.199916182675796     
 delta_qm =   0.776914E-05 delta_en =   0.104301E-03 tol =   0.100000E-04
 Iteration #         49
  pAp =   2.603588297648734E-007  rzold =   5.453799264871754E-008  alpha = 
  0.209472414275214     
 delta_qm =   0.589301E-05 delta_en =   0.600092E-04 tol =   0.100000E-04
 Iteration #         50
  pAp =   2.282189182434971E-007  rzold =   4.563459523146924E-008  alpha = 
  0.199959738582143     
 delta_qm =   0.620695E-05 delta_en =   0.665734E-04 tol =   0.100000E-04
 Iteration #         51
  pAp =   1.661144910949589E-007  rzold =   3.480404520510933E-008  alpha = 
  0.209518416940601     
 delta_qm =   0.470677E-05 delta_en =   0.382815E-04 tol =   0.100000E-04
 Iteration #         52
  pAp =   1.457449637782442E-007  rzold =   2.914904904355657E-008  alpha = 
  0.200000386208252     
 delta_qm =   0.496221E-05 delta_en =   0.425495E-04 tol =   0.100000E-04
 Iteration #         53
  pAp =   1.061759752396382E-007  rzold =   2.225044755391997E-008  alpha = 
  0.209561979569304     
 delta_qm =   0.376195E-05 delta_en =   0.244552E-04 tol =   0.100000E-04
 Iteration #         54
  pAp =   9.323868023851019E-008  rzold =   1.865140475520401E-008  alpha = 
  0.200039347484248     
 delta_qm =   0.396981E-05 delta_en =   0.272322E-04 tol =   0.100000E-04
 Iteration #         55
  pAp =   6.798122049615435E-008  rzold =   1.424914607109474E-008  alpha = 
  0.209604151956948     
 delta_qm =   0.300898E-05 delta_en =   0.156452E-04 tol =   0.100000E-04
 Iteration #         56
  pAp =   5.974884283455463E-008  rzold =   1.195439106652429E-008  alpha = 
  0.200077365508587     
 delta_qm =   0.317810E-05 delta_en =   0.174533E-04 tol =   0.100000E-04
 Iteration #         57
  pAp =   4.359865100373368E-008  rzold =   9.140263674223524E-009  alpha = 
  0.209645561589527     
 delta_qm =   0.240852E-05 delta_en =   0.100240E-04 tol =   0.100000E-04
 Iteration #         58
  pAp =   3.835102535293914E-008  rzold =   7.674610622497305E-009  alpha = 
  0.200114874423016     
 delta_qm =   0.254609E-05 delta_en =   0.112019E-04 tol =   0.100000E-04
 Iteration #         59
  pAp =   2.800696745832004E-008  rzold =   5.872684771099451E-009  alpha = 
  0.209686563882333     
 delta_qm =   0.192935E-05 delta_en =   0.643229E-05 tol =   0.100000E-04
 Charges are converged, EXIT

%%%% ELECTRONS %%%%%%%%%%%%%%%%%%%%%%%%%%%%%%%%%%%%%%%%%%%%%%%%%%%%%%%%%%%%%%%%%
 number of electrons        =         24
 total electronic charge    =     24.0000000
 number of spin components  =  1

%%%% BOUNDARY %%%%%%%%%%%%%%%%%%%%%%%%%%%%%%%%%%%%%%%%%%%%%%%%%%%%%%%%%%%%%%%%%%
 boundary mode              = electronic           
 boundary is built as a function of a smooth density
 function type              =  2 
 using the modified SCCS function with parameters 
 rhomax                     =      0.0050000 
 rhomin                     =      0.0001000 
 volume of the QM region    =    757.1450060 
 surface of the QM region   =    424.1889363 

%%%% DIELECTRIC %%%%%%%%%%%%%%%%%%%%%%%%%%%%%%%%%%%%%%%%%%%%%%%%%%%%%%%%%%%%%%%%%
 dielectric build on homogeneous background
 environment bulk permitt.  =    100.0000000 
 dielectric flags
 need gradient              =  F 
 need factor depend. sqrt   =  T 
 total dielectric charge    =      0.9822880

%%%% COMPUTE ELECTROSTATIC POTENTIAL %%%%%%%%%%%%%%%%%%%%%%%%%%%%%%%%%%%%%%%%%%%
 Warning: bad guess with residual norm =   0.919184E+03, reset to no guess
 Iteration #          1
  pAp =    95.9547617751177       rzold =    93.3874676788823       alpha = 
  0.973244745245138     
 delta_qm =   0.225243E-01 delta_en =   0.876693E+03 tol =   0.100000E-04
 Iteration #          2
  pAp =    216.526869105676       rzold =    21.4226619699301       alpha = 
  9.893766098596644E-002
 delta_qm =   0.444864E-02 delta_en =   0.341979E+02 tol =   0.100000E-04
 Iteration #          3
  pAp =    1.24400282444518       rzold =   0.263899165368090       alpha = 
  0.212137111092000     
 delta_qm =   0.216501E-02 delta_en =   0.809957E+01 tol =   0.100000E-04
 Iteration #          4
  pAp =   0.416505526006073       rzold =   7.849365011632542E-002  alpha = 
  0.188457643933351     
 delta_qm =   0.236535E-02 delta_en =   0.966797E+01 tol =   0.100000E-04
 Iteration #          5
  pAp =   0.295343976621262       rzold =   5.089844423298608E-002  alpha = 
  0.172336151274405     
 delta_qm =   0.133007E-02 delta_en =   0.305696E+01 tol =   0.100000E-04
 Iteration #          6
  pAp =   0.173353170671345       rzold =   3.169857481211159E-002  alpha = 
  0.182855466037065     
 delta_qm =   0.166578E-02 delta_en =   0.479487E+01 tol =   0.100000E-04
 Iteration #          7
  pAp =   0.133349645094018       rzold =   2.280619533883600E-002  alpha = 
  0.171025542083419     
 delta_qm =   0.945699E-03 delta_en =   0.154543E+01 tol =   0.100000E-04
 Iteration #          8
  pAp =   7.977994411748351E-002  rzold =   1.452255612383672E-002  alpha = 
  0.182032668541994     
 delta_qm =   0.120917E-02 delta_en =   0.252648E+01 tol =   0.100000E-04
 Iteration #          9
  pAp =   6.187294267008525E-002  rzold =   1.055988408253492E-002  alpha = 
  0.170670468007989     
 delta_qm =   0.708993E-03 delta_en =   0.868615E+00 tol =   0.100000E-04
 Iteration #         10
  pAp =   3.729792330864514E-002  rzold =   6.785124331111270E-003  alpha = 
  0.181916946822039     
 delta_qm =   0.902388E-03 delta_en =   0.140712E+01 tol =   0.100000E-04
 Iteration #         11
  pAp =   2.912677692740044E-002  rzold =   4.973164452670023E-003  alpha = 
  0.170742010524055     
 delta_qm =   0.552840E-03 delta_en =   0.528132E+00 tol =   0.100000E-04
 Iteration #         12
  pAp =   1.768906613142031E-002  rzold =   3.221883729984388E-003  alpha = 
  0.182139843112548     
 delta_qm =   0.690488E-03 delta_en =   0.823864E+00 tol =   0.100000E-04
 Iteration #         13
  pAp =   1.393077553417874E-002  rzold =   2.382666114674756E-003  alpha = 
  0.171036142878690     
 delta_qm =   0.443582E-03 delta_en =   0.340011E+00 tol =   0.100000E-04
 Iteration #         14
  pAp =   8.538641624343635E-003  rzold =   1.558906382427361E-003  alpha = 
  0.182570770739801     
 delta_qm =   0.539876E-03 delta_en =   0.503653E+00 tol =   0.100000E-04
 Iteration #         15
  pAp =   6.799483325222239E-003  rzold =   1.166079822380315E-003  alpha = 
  0.171495357309697     
 delta_qm =   0.362964E-03 delta_en =   0.227652E+00 tol =   0.100000E-04
 Iteration #         16
  pAp =   4.218116037495666E-003  rzold =   7.726830621460258E-004  alpha = 
  0.183182030858680     
 delta_qm =   0.429701E-03 delta_en =   0.319063E+00 tol =   0.100000E-04
 Iteration #         17
  pAp =   3.408146892005459E-003  rzold =   5.865787814900151E-004  alpha = 
  0.172110768718908     
 delta_qm =   0.300703E-03 delta_en =   0.156250E+00 tol =   0.100000E-04
 Iteration #         18
  pAp =   2.147270279470117E-003  rzold =   3.950279277618091E-004  alpha = 
  0.183967491907581     
 delta_qm =   0.346859E-03 delta_en =   0.207898E+00 tol =   0.100000E-04
 Iteration #         19
  pAp =   1.767016871534254E-003  rzold =   3.054663273682187E-004  alpha = 
  0.172871200207042     
 delta_qm =   0.250890E-03 delta_en =   0.108771E+00 tol =   0.100000E-04
 Iteration #         20
  pAp =   1.134575901314601E-003  rzold =   2.097843630188449E-004  alpha = 
  0.184901127175162     
 delta_qm =   0.283004E-03 delta_en =   0.138398E+00 tol =   0.100000E-04
 Iteration #         21
  pAp =   9.540919663969199E-004  rzold =   1.657618191222264E-004  alpha = 
  0.173737778914770     
 delta_qm =   0.210060E-03 delta_en =   0.762487E-01 tol =   0.100000E-04
 Iteration #         22
  pAp =   6.259344333064908E-004  rzold =   1.163735595743345E-004  alpha = 
  0.185919727981080     
 delta_qm =   0.232729E-03 delta_en =   0.935936E-01 tol =   0.100000E-04
 Iteration #         23
  pAp =   5.389198112137769E-004  rzold =   9.411683878149449E-005  alpha = 
  0.174639782808356     
 delta_qm =   0.176102E-03 delta_en =   0.535889E-01 tol =   0.100000E-04
 Iteration #         24
  pAp =   3.615612573599294E-004  rzold =   6.758708811369318E-005  alpha = 
  0.186931223237813     
 delta_qm =   0.192461E-03 delta_en =   0.640074E-01 tol =   0.100000E-04
 Iteration #         25
  pAp =   3.186652872041896E-004  rzold =   5.592349801376860E-005  alpha = 
  0.175492908262502     
 delta_qm =   0.147651E-03 delta_en =   0.376718E-01 tol =   0.100000E-04
 Iteration #         26
  pAp =   2.183641952432756E-004  rzold =   4.101850099167069E-005  alpha = 
  0.187844444671768     
 delta_qm =   0.159780E-03 delta_en =   0.441151E-01 tol =   0.100000E-04
 Iteration #         27
  pAp =   1.965617925030256E-004  rzold =   3.463981254626096E-005  alpha = 
  0.176228615465682     
 delta_qm =   0.123748E-03 delta_en =   0.264619E-01 tol =   0.100000E-04
 Iteration #         28
  pAp =   1.371727412055885E-004  rzold =   2.587075293095236E-005  alpha = 
  0.188599810017490     
 delta_qm =   0.132999E-03 delta_en =   0.305660E-01 tol =   0.100000E-04
 Iteration #         29
  pAp =   1.256499063518850E-004  rzold =   2.221662596171962E-005  alpha = 
  0.176813708873778     
 delta_qm =   0.103663E-03 delta_en =   0.185690E-01 tol =   0.100000E-04
 Iteration #         30
  pAp =   8.896708473627915E-005  rzold =   1.683082720453137E-005  alpha = 
  0.189180383446554     
 delta_qm =   0.110903E-03 delta_en =   0.212535E-01 tol =   0.100000E-04
 Iteration #         31
  pAp =   8.259322473997896E-005  rzold =   1.463962937891366E-005  alpha = 
  0.177249761406003     
 delta_qm =   0.867997E-04 delta_en =   0.130191E-01 tol =   0.100000E-04
 Iteration #         32
  pAp =   5.911587724696539E-005  rzold =   1.120849457166040E-005  alpha = 
  0.189602101730390     
 delta_qm =   0.925891E-04 delta_en =   0.148137E-01 tol =   0.100000E-04
 Iteration #         33
  pAp =   5.541728818156318E-005  rzold =   9.839867053662805E-006  alpha = 
  0.177559519358373     
 delta_qm =   0.726575E-04 delta_en =   0.912230E-02 tol =   0.100000E-04
 Iteration #         34
  pAp =   3.997026390904586E-005  rzold =   7.590209248230509E-006  alpha = 
  0.189896400621782     
 delta_qm =   0.773626E-04 delta_en =   0.103420E-01 tol =   0.100000E-04
 Iteration #         35
  pAp =   3.772469490610737E-005  rzold =   6.706414099532480E-006  alpha = 
  0.177772520525985     
 delta_qm =   0.608085E-04 delta_en =   0.638959E-02 tol =   0.100000E-04
 Iteration #         36
  pAp =   2.735315416238182E-005  rzold =   5.199740234052323E-006  alpha = 
  0.190096549859811     
 delta_qm =   0.646771E-04 delta_en =   0.722845E-02 tol =   0.100000E-04
 Iteration #         37
  pAp =   2.593578242849153E-005  rzold =   4.614394795228212E-006  alpha = 
  0.177916159188593     
 delta_qm =   0.508880E-04 delta_en =   0.447481E-02 tol =   0.100000E-04
 Iteration #         38
  pAp =   1.887226486287136E-005  rzold =   3.590085857911872E-006  alpha = 
  0.190230790209758     
 delta_qm =   0.540943E-04 delta_en =   0.505646E-02 tol =   0.100000E-04
 Iteration #         39
  pAp =   1.794974287722205E-005  rzold =   3.195273082872172E-006  alpha = 
  0.178012192415688     
 delta_qm =   0.425860E-04 delta_en =   0.313385E-02 tol =   0.100000E-04
 Iteration #         40
  pAp =   1.309222053674363E-005  rzold =   2.491717816754621E-006  alpha = 
  0.190320489160838     
 delta_qm =   0.452575E-04 delta_en =   0.353937E-02 tol =   0.100000E-04
 Iteration #         41
  pAp =   1.247794853843179E-005  rzold =   2.222028946383712E-006  alpha = 
  0.178076463413831     
 delta_qm =   0.356405E-04 delta_en =   0.219498E-02 tol =   0.100000E-04
 Iteration #         42
  pAp =   9.115630826656775E-006  rzold =   1.735440766930493E-006  alpha = 
  0.190380764637326     
 delta_qm =   0.378741E-04 delta_en =   0.247873E-02 tol =   0.100000E-04
 Iteration #         43
  pAp =   8.699960842685615E-006  rzold =   1.549636369066522E-006  alpha = 
  0.178119924570621     
 delta_qm =   0.298305E-04 delta_en =   0.153767E-02 tol =   0.100000E-04
 Iteration #         44
  pAp =   6.362463096544806E-006  rzold =   1.211552215077986E-006  alpha = 
  0.190421884841412     
 delta_qm =   0.317022E-04 delta_en =   0.173669E-02 tol =   0.100000E-04
 Iteration #         45
  pAp =   6.078053565348205E-006  rzold =   1.082804689455930E-006  alpha = 
  0.178149908982235     
 delta_qm =   0.249706E-04 delta_en =   0.107746E-02 tol =   0.100000E-04
 Iteration #         46
  pAp =   4.448277554712421E-006  rzold =   8.471773515558720E-007  alpha = 
  0.190450649973131     
 delta_qm =   0.265413E-04 delta_en =   0.121727E-02 tol =   0.100000E-04
 Iteration #         47
  pAp =   4.252222337581805E-006  rzold =   7.576236842549738E-007  alpha = 
  0.178171230031642     
 delta_qm =   0.209054E-04 delta_en =   0.755195E-03 tol =   0.100000E-04
 Iteration #         48
  pAp =   3.113647533537149E-006  rzold =   5.930610960082881E-007  alpha = 
  0.190471493520194     
 delta_qm =   0.222246E-04 delta_en =   0.853516E-03 tol =   0.100000E-04
 Iteration #         49
  pAp =   2.977823692150841E-006  rzold =   5.306094962844618E-007  alpha = 
  0.178187008748396     
 delta_qm =   0.175046E-04 delta_en =   0.529475E-03 tol =   0.100000E-04
 Iteration #         50
  pAp =   2.181317795247760E-006  rzold =   4.155132902087140E-007  alpha = 
  0.190487278430477     
 delta_qm =   0.186132E-04 delta_en =   0.598669E-03 tol =   0.100000E-04
 Iteration #         51
  pAp =   2.086907594147520E-006  rzold =   3.718853764991279E-007  alpha = 
  0.178199254026405     
 delta_qm =   0.146593E-04 delta_en =   0.371338E-03 tol =   0.100000E-04
 Iteration #         52
  pAp =   1.529155410428397E-006  rzold =   2.913038659270387E-007  alpha = 
  0.190499843207846     
 delta_qm =   0.155913E-04 delta_en =   0.420057E-03 tol =   0.100000E-04
 Iteration #         53
  pAp =   1.463384228035296E-006  rzold =   2.607886111560642E-007  alpha = 
  0.178209253701055     
 delta_qm =   0.122785E-04 delta_en =   0.260516E-03 tol =   0.100000E-04
 Iteration #         54
  pAp =   1.072533942518002E-006  rzold =   2.043288330905704E-007  alpha = 
  0.190510365211254     
 delta_qm =   0.130622E-04 delta_en =   0.294832E-03 tol =   0.100000E-04
 Iteration #         55
  pAp =   1.026643765704175E-006  rzold =   1.829662261642681E-007  alpha = 
  0.178217832004046     
 delta_qm =   0.102861E-04 delta_en =   0.182828E-03 tol =   0.100000E-04
 Iteration #         56
  pAp =   7.525951382306252E-007  rzold =   1.433841231379032E-007  alpha = 
  0.190519597927518     
 delta_qm =   0.109451E-04 delta_en =   0.207006E-03 tol =   0.100000E-04
 Iteration #         57
  pAp =   7.205418091654938E-007  rzold =   1.284189361891521E-007  alpha = 
  0.178225516625999     
 delta_qm =   0.861842E-05 delta_en =   0.128351E-03 tol =   0.100000E-04
 Iteration #         58
  pAp =   5.282994308772549E-007  rzold =   1.006558467401506E-007  alpha = 
  0.190528024179411     
 delta_qm =   0.917267E-05 delta_en =   0.145390E-03 tol =   0.100000E-04
 Iteration #         59
  pAp =   5.058932268086807E-007  rzold =   9.016668848584400E-008  alpha = 
  0.178232646154686     
 delta_qm =   0.722238E-05 delta_en =   0.901372E-04 tol =   0.100000E-04
 Iteration #         60
  pAp =   3.709822642770732E-007  rzold =   7.068545977062349E-008  alpha = 
  0.190535954349104     
 delta_qm =   0.768853E-05 delta_en =   0.102148E-03 tol =   0.100000E-04
 Iteration #         61
  pAp =   3.553103153854182E-007  rzold =   6.333031120692701E-008  alpha = 
  0.178239438779677     
 delta_qm =   0.605352E-05 delta_en =   0.633227E-04 tol =   0.100000E-04
 Iteration #         62
  pAp =   2.605984150083457E-007  rzold =   4.965535730096692E-008  alpha = 
  0.190543589067404     
 delta_qm =   0.644557E-05 delta_en =   0.717905E-04 tol =   0.100000E-04
 Iteration #         63
  pAp =   2.496315032513983E-007  rzold =   4.449582593308061E-008  alpha = 
  0.178246036071296     
 delta_qm =   0.507471E-05 delta_en =   0.445006E-04 tol =   0.100000E-04
 Iteration #         64
  pAp =   1.831179345151447E-007  rzold =   3.489331636402295E-008  alpha = 
  0.190551059110691     
 delta_qm =   0.540445E-05 delta_en =   0.504716E-04 tol =   0.100000E-04
 Iteration #         65
  pAp =   1.754404647568631E-007  rzold =   3.127270685021116E-008  alpha = 
  0.178252530814661     
 delta_qm =   0.425491E-05 delta_en =   0.312842E-04 tol =   0.100000E-04
 Iteration #         66
  pAp =   1.287145525758964E-007  rzold =   2.452764572756371E-008  alpha = 
  0.190558450747836     
 delta_qm =   0.453225E-05 delta_en =   0.354953E-04 tol =   0.100000E-04
 Iteration #         67
  pAp =   1.233380215892599E-007  rzold =   2.198611050122849E-008  alpha = 
  0.178258984682328     
 delta_qm =   0.356818E-05 delta_en =   0.220008E-04 tol =   0.100000E-04
 Iteration #         68
  pAp =   9.050254049421610E-008  rzold =   1.724669100670251E-008  alpha = 
  0.190565821826899     
 delta_qm =   0.380143E-05 delta_en =   0.249712E-04 tol =   0.100000E-04
 Iteration #         69
  pAp =   8.673617831246184E-008  rzold =   1.546206294281264E-008  alpha = 
  0.178265439446865     
 delta_qm =   0.299282E-05 delta_en =   0.154776E-04 tol =   0.100000E-04
 Iteration #         70
  pAp =   6.365462271312881E-008  rzold =   1.213086590779182E-008  alpha = 
  0.190573211979620     
 delta_qm =   0.318900E-05 delta_en =   0.175732E-04 tol =   0.100000E-04
 Iteration #         71
  pAp =   6.101544556976424E-008  rzold =   1.087734088109852E-008  alpha = 
  0.178271924092753     
 delta_qm =   0.251068E-05 delta_en =   0.108925E-04 tol =   0.100000E-04
 Iteration #         72
  pAp =   4.478531119784881E-008  rzold =   8.535213677958615E-009  alpha = 
  0.190580649093906     
 delta_qm =   0.267568E-05 delta_en =   0.123712E-04 tol =   0.100000E-04
 Iteration #         73
  pAp =   4.293546566533823E-008  rzold =   7.654468669331257E-009  alpha = 
  0.178278459327639     
 delta_qm =   0.210660E-05 delta_en =   0.766845E-05 tol =   0.100000E-04
 Charges are converged, EXIT

%%%% ELECTRONS %%%%%%%%%%%%%%%%%%%%%%%%%%%%%%%%%%%%%%%%%%%%%%%%%%%%%%%%%%%%%%%%%
 number of electrons        =         24
 total electronic charge    =     24.0000000
 number of spin components  =  1

%%%% BOUNDARY %%%%%%%%%%%%%%%%%%%%%%%%%%%%%%%%%%%%%%%%%%%%%%%%%%%%%%%%%%%%%%%%%%
 boundary mode              = electronic           
 boundary is built as a function of a smooth density
 function type              =  2 
 using the modified SCCS function with parameters 
 rhomax                     =      0.0050000 
 rhomin                     =      0.0001000 
 volume of the QM region    =    717.0745325 
 surface of the QM region   =    412.4199777 

%%%% DIELECTRIC %%%%%%%%%%%%%%%%%%%%%%%%%%%%%%%%%%%%%%%%%%%%%%%%%%%%%%%%%%%%%%%%%
 dielectric build on homogeneous background
 environment bulk permitt.  =    100.0000000 
 dielectric flags
 need gradient              =  F 
 need factor depend. sqrt   =  T 
 total dielectric charge    =      0.9824173

%%%% COMPUTE ELECTROSTATIC POTENTIAL %%%%%%%%%%%%%%%%%%%%%%%%%%%%%%%%%%%%%%%%%%%
 Warning: bad guess with residual norm =   0.139384E+04, reset to no guess
 Iteration #          1
  pAp =    95.8691592281788       rzold =    93.2740297716726       alpha = 
  0.972930507815037     
 delta_qm =   0.276969E-01 delta_en =   0.132558E+04 tol =   0.100000E-04
 Iteration #          2
  pAp =    257.399302738888       rzold =    23.5292470674939       alpha = 
  9.141146388948279E-002
 delta_qm =   0.522812E-02 delta_en =   0.472319E+02 tol =   0.100000E-04
 Iteration #          3
  pAp =    1.74826860914745       rzold =   0.328896135707940       alpha = 
  0.188126775248986     
 delta_qm =   0.235798E-02 delta_en =   0.960779E+01 tol =   0.100000E-04
 Iteration #          4
  pAp =   0.517674783085322       rzold =   8.894336296966768E-002  alpha = 
  0.171813203725259     
 delta_qm =   0.276252E-02 delta_en =   0.131873E+02 tol =   0.100000E-04
 Iteration #          5
  pAp =   0.364513008655088       rzold =   5.831872721709492E-002  alpha = 
  0.159990798222177     
 delta_qm =   0.149000E-02 delta_en =   0.383636E+01 tol =   0.100000E-04
 Iteration #          6
  pAp =   0.224858474676256       rzold =   3.778971651565857E-002  alpha = 
  0.168060005610493     
 delta_qm =   0.200051E-02 delta_en =   0.691553E+01 tol =   0.100000E-04
 Iteration #          7
  pAp =   0.174064061992555       rzold =   2.768718657402932E-002  alpha = 
  0.159063199244503     
 delta_qm =   0.110022E-02 delta_en =   0.209173E+01 tol =   0.100000E-04
 Iteration #          8
  pAp =   0.109654308938826       rzold =   1.836749416063451E-002  alpha = 
  0.167503624238619     
 delta_qm =   0.149129E-02 delta_en =   0.384296E+01 tol =   0.100000E-04
 Iteration #          9
  pAp =   8.563696159543839E-002  rzold =   1.360282704162870E-002  alpha = 
  0.158842943376371     
 delta_qm =   0.856506E-03 delta_en =   0.126766E+01 tol =   0.100000E-04
 Iteration #         10
  pAp =   5.432685234804414E-002  rzold =   9.097968654789221E-003  alpha = 
  0.167467251673320     
 delta_qm =   0.114309E-02 delta_en =   0.225790E+01 tol =   0.100000E-04
 Iteration #         11
  pAp =   4.269219404286687E-002  rzold =   6.785285834036246E-003  alpha = 
  0.158935046234054     
 delta_qm =   0.692258E-03 delta_en =   0.828095E+00 tol =   0.100000E-04
 Iteration #         12
  pAp =   2.725807435224152E-002  rzold =   4.570318220154120E-003  alpha = 
  0.167668418579183     
 delta_qm =   0.898503E-03 delta_en =   0.139503E+01 tol =   0.100000E-04
 Iteration #         13
  pAp =   2.157608724303880E-002  rzold =   3.434637004023199E-003  alpha = 
  0.159187204117898     
 delta_qm =   0.574688E-03 delta_en =   0.570699E+00 tol =   0.100000E-04
 Iteration #         14
  pAp =   1.388518590717434E-002  rzold =   2.332990364068145E-003  alpha = 
  0.168020102839438     
 delta_qm =   0.721782E-03 delta_en =   0.900234E+00 tol =   0.100000E-04
 Iteration #         15
  pAp =   1.109541517460814E-002  rzold =   1.770462720715180E-003  alpha = 
  0.159567054756715     
 delta_qm =   0.485850E-03 delta_en =   0.407894E+00 tol =   0.100000E-04
 Iteration #         16
  pAp =   7.215180432658978E-003  rzold =   1.215866887372472E-003  alpha = 
  0.168515104884826     
 delta_qm =   0.590368E-03 delta_en =   0.602267E+00 tol =   0.100000E-04
 Iteration #         17
  pAp =   5.838466791071995E-003  rzold =   9.346238290526348E-004  alpha = 
  0.160080353712354     
 delta_qm =   0.415493E-03 delta_en =   0.298313E+00 tol =   0.100000E-04
 Iteration #         18
  pAp =   3.848918357834507E-003  rzold =   6.510957316069963E-004  alpha = 
  0.169163300198791     
 delta_qm =   0.489876E-03 delta_en =   0.414682E+00 tol =   0.100000E-04
 Iteration #         19
  pAp =   3.165488794837379E-003  rzold =   5.087952735132152E-004  alpha = 
  0.160731977425734     
 delta_qm =   0.357673E-03 delta_en =   0.221063E+00 tol =   0.100000E-04
 Iteration #         20
  pAp =   2.123063360485138E-003  rzold =   3.608356640831060E-004  alpha = 
  0.169959913019578     
 delta_qm =   0.411025E-03 delta_en =   0.291931E+00 tol =   0.100000E-04
 Iteration #         21
  pAp =   1.781134889088047E-003  rzold =   2.876604361135107E-004  alpha = 
  0.161504015151146     
 delta_qm =   0.308906E-03 delta_en =   0.164891E+00 tol =   0.100000E-04
 Iteration #         22
  pAp =   1.219178349676466E-003  rzold =   2.083178165113336E-004  alpha = 
  0.170867385043882     
 delta_qm =   0.347746E-03 delta_en =   0.208962E+00 tol =   0.100000E-04
 Iteration #         23
  pAp =   1.046214047174818E-003  rzold =   1.698487407437675E-004  alpha = 
  0.162346071726359     
 delta_qm =   0.267110E-03 delta_en =   0.123289E+00 tol =   0.100000E-04
 Iteration #         24
  pAp =   7.322107787557987E-004  rzold =   1.258038309183674E-004  alpha = 
  0.171813683393378     
 delta_qm =   0.295997E-03 delta_en =   0.151398E+00 tol =   0.100000E-04
 Iteration #         25
  pAp =   6.433114074486459E-004  rzold =   1.049777351490392E-004  alpha = 
  0.163183388221542     
 delta_qm =   0.230985E-03 delta_en =   0.921960E-01 tol =   0.100000E-04
 Iteration #         26
  pAp =   4.602831143437507E-004  rzold =   7.949624469205403E-005  alpha = 
  0.172711625116633     
 delta_qm =   0.253039E-03 delta_en =   0.110642E+00 tol =   0.100000E-04
 Iteration #         27
  pAp =   4.135361405161584E-004  rzold =   6.779565572282724E-005  alpha = 
  0.163941307858142     
 delta_qm =   0.199661E-03 delta_en =   0.688858E-01 tol =   0.100000E-04
 Iteration #         28
  pAp =   3.018521257788780E-004  rzold =   5.236810629126227E-005  alpha = 
  0.173489274445675     
 delta_qm =   0.216969E-03 delta_en =   0.813463E-01 tol =   0.100000E-04
 Iteration #         29
  pAp =   2.764914285510277E-004  rzold =   4.550230588908292E-005  alpha = 
  0.164570403240132     
 delta_qm =   0.172491E-03 delta_en =   0.514133E-01 tol =   0.100000E-04
 Iteration #         30
  pAp =   2.051930477549243E-004  rzold =   3.572630627515810E-005  alpha = 
  0.174110705338460     
 delta_qm =   0.186428E-03 delta_en =   0.600571E-01 tol =   0.100000E-04
 Iteration #         31
  pAp =   1.908791777416577E-004  rzold =   3.150573214136146E-005  alpha = 
  0.165055887782597     
 delta_qm =   0.148948E-03 delta_en =   0.383367E-01 tol =   0.100000E-04
 Iteration #         32
  pAp =   1.434809552491030E-004  rzold =   2.504835560780833E-005  alpha = 
  0.174576169808187     
 delta_qm =   0.160416E-03 delta_en =   0.444670E-01 tol =   0.100000E-04
 Iteration #         33
  pAp =   1.350244803119386E-004  rzold =   2.233440843238971E-005  alpha = 
  0.165410067720994     
 delta_qm =   0.128577E-03 delta_en =   0.285675E-01 tol =   0.100000E-04
 Iteration #         34
  pAp =   1.024469422884165E-004  rzold =   1.791883864656332E-005  alpha = 
  0.174908476976471     
 delta_qm =   0.138171E-03 delta_en =   0.329898E-01 tol =   0.100000E-04
 Iteration #         35
  pAp =   9.720776002918900E-005  rzold =   1.610327527425381E-005  alpha = 
  0.165658330872128     
 delta_qm =   0.110972E-03 delta_en =   0.212799E-01 tol =   0.100000E-04
 Iteration #         36
  pAp =   7.423784720850318E-005  rzold =   1.300187491638547E-005  alpha = 
  0.175138092028297     
 delta_qm =   0.119096E-03 delta_en =   0.245097E-01 tol =   0.100000E-04
 Iteration #         37
  pAp =   7.084381676685273E-005  rzold =   1.174788212821170E-005  alpha = 
  0.165827910809408     
 delta_qm =   0.957707E-04 delta_en =   0.158493E-01 tol =   0.100000E-04
 Iteration #         38
  pAp =   5.434549527382858E-005  rzold =   9.526419868518537E-006  alpha = 
  0.175293643392486     
 delta_qm =   0.102707E-03 delta_en =   0.182284E-01 tol =   0.100000E-04
 Iteration #         39
  pAp =   5.206132066845704E-005  rzold =   8.639165855531503E-006  alpha = 
  0.165942118728575     
 delta_qm =   0.826533E-04 delta_en =   0.118049E-01 tol =   0.100000E-04
 Iteration #         40
  pAp =   4.005716146695371E-005  rzold =   7.025948723690468E-006  alpha = 
  0.175398067820825     
 delta_qm =   0.886091E-04 delta_en =   0.135675E-01 tol =   0.100000E-04
 Iteration #         41
  pAp =   3.847290939434222E-005  rzold =   6.387222545129879E-006  alpha = 
  0.166018703697755     
 delta_qm =   0.713379E-04 delta_en =   0.879396E-02 tol =   0.100000E-04
 Iteration #         42
  pAp =   2.966148423264890E-005  rzold =   5.204646587429357E-006  alpha = 
  0.175468177742114     
 delta_qm =   0.764699E-04 delta_en =   0.101047E-01 tol =   0.100000E-04
 Iteration #         43
  pAp =   2.853781401407124E-005  rzold =   4.739282991916144E-006  alpha = 
  0.166070287989799     
 delta_qm =   0.615786E-04 delta_en =   0.655245E-02 tol =   0.100000E-04
 Iteration #         44
  pAp =   2.203156714043868E-005  rzold =   3.866884983462628E-006  alpha = 
  0.175515657093907     
 delta_qm =   0.660110E-04 delta_en =   0.752967E-02 tol =   0.100000E-04
 Iteration #         45
  pAp =   2.122179231619041E-005  rzold =   3.525056045315494E-006  alpha = 
  0.166105482175800     
 delta_qm =   0.531617E-04 delta_en =   0.488362E-02 tol =   0.100000E-04
 Iteration #         46
  pAp =   1.639857568803950E-005  rzold =   2.878743127479465E-006  alpha = 
  0.175548363604475     
 delta_qm =   0.569953E-04 delta_en =   0.561335E-02 tol =   0.100000E-04
 Iteration #         47
  pAp =   1.580856106142395E-005  rzold =   2.626276417605852E-006  alpha = 
  0.166130010656978     
 delta_qm =   0.459022E-04 delta_en =   0.364092E-02 tol =   0.100000E-04
 Iteration #         48
  pAp =   1.222345145763664E-005  rzold =   2.146089404024296E-006  alpha = 
  0.175571475164940     
 delta_qm =   0.492208E-04 delta_en =   0.418641E-02 tol =   0.100000E-04
 Iteration #         49
  pAp =   1.179033609919694E-005  rzold =   1.958936266571338E-006  alpha = 
  0.166147618701452     
 delta_qm =   0.396403E-04 delta_en =   0.271530E-02 tol =   0.100000E-04
 Iteration #         50
  pAp =   9.120655641686552E-006  rzold =   1.601480976714950E-006  alpha = 
  0.175588361147556     
 delta_qm =   0.425146E-04 delta_en =   0.312335E-02 tol =   0.100000E-04
 Iteration #         51
  pAp =   8.801109974666742E-006  rzold =   1.462398884011925E-006  alpha = 
  0.166160732932700     
 delta_qm =   0.342381E-04 delta_en =   0.202565E-02 tol =   0.100000E-04
 Iteration #         52
  pAp =   6.810584215765269E-006  rzold =   1.195946745234576E-006  alpha = 
  0.175601197686709     
 delta_qm =   0.367284E-04 delta_en =   0.233103E-02 tol =   0.100000E-04
 Iteration #         53
  pAp =   6.574023062926134E-006  rzold =   1.092411439454622E-006  alpha = 
  0.166170916803627     
 delta_qm =   0.295769E-04 delta_en =   0.151164E-02 tol =   0.100000E-04
 Iteration #         54
  pAp =   5.088523185835595E-006  rzold =   8.936026020423373E-007  alpha = 
  0.175611384562375     
 delta_qm =   0.317348E-04 delta_en =   0.174027E-02 tol =   0.100000E-04
 Iteration #         55
  pAp =   4.912986705666384E-006  rzold =   8.164360771423226E-007  alpha = 
  0.166179174920357     
 delta_qm =   0.255544E-04 delta_en =   0.112843E-02 tol =   0.100000E-04
 Iteration #         56
  pAp =   3.803625889485095E-006  rzold =   6.679920971195439E-007  alpha = 
  0.175619820804714     
 delta_qm =   0.274244E-04 delta_en =   0.129963E-02 tol =   0.100000E-04
 Iteration #         57
  pAp =   3.673159637147266E-006  rzold =   6.104282677086874E-007  alpha = 
  0.166186152525288     
 delta_qm =   0.220824E-04 delta_en =   0.842625E-03 tol =   0.100000E-04
 Iteration #         58
  pAp =   2.844258820809494E-006  rzold =   4.995288833391984E-007  alpha = 
  0.175627084175493     
 delta_qm =   0.237030E-04 delta_en =   0.970844E-03 tol =   0.100000E-04
 Iteration #         59
  pAp =   2.747177547587604E-006  rzold =   4.565596582177608E-007  alpha = 
  0.166192264718632     
 delta_qm =   0.190850E-04 delta_en =   0.629403E-03 tol =   0.100000E-04
 Iteration #         60
  pAp =   2.127567359620898E-006  rzold =   3.736722017630814E-007  alpha = 
  0.175633546958374     
 delta_qm =   0.204895E-04 delta_en =   0.725445E-03 tol =   0.100000E-04
 Iteration #         61
  pAp =   2.055265719591401E-006  rzold =   3.415805989738754E-007  alpha = 
  0.166197779546376     
 delta_qm =   0.164970E-04 delta_en =   0.470277E-03 tol =   0.100000E-04
 Iteration #         62
  pAp =   1.591934100594745E-006  rzold =   2.796064302137831E-007  alpha = 
  0.175639450219279     
 delta_qm =   0.177141E-04 delta_en =   0.542226E-03 tol =   0.100000E-04
 Iteration #         63
  pAp =   1.538051308986369E-006  rzold =   2.556285435688937E-007  alpha = 
  0.166202871175580     
 delta_qm =   0.142620E-04 delta_en =   0.351484E-03 tol =   0.100000E-04
 Iteration #         64
  pAp =   1.191471533764052E-006  rzold =   2.092759594705403E-007  alpha = 
  0.175644951255699     
 delta_qm =   0.153167E-04 delta_en =   0.405390E-03 tol =   0.100000E-04
 Iteration #         65
  pAp =   1.151293920337707E-006  rzold =   1.913538613646795E-007  alpha = 
  0.166207653827052     
 delta_qm =   0.123316E-04 delta_en =   0.262773E-03 tol =   0.100000E-04
 Iteration #         66
  pAp =   8.919722078004177E-007  rzold =   1.566750555266882E-007  alpha = 
  0.175650153846211     
 delta_qm =   0.132455E-04 delta_en =   0.303166E-03 tol =   0.100000E-04
 Iteration #         67
  pAp =   8.620004736665580E-007  rzold =   1.432749980526881E-007  alpha = 
  0.166212203391561     
 delta_qm =   0.106639E-04 delta_en =   0.196507E-03 tol =   0.100000E-04
 Iteration #         68
  pAp =   6.679166470691813E-007  rzold =   1.173229838072898E-007  alpha = 
  0.175655127510451     
 delta_qm =   0.114558E-04 delta_en =   0.226776E-03 tol =   0.100000E-04
 Iteration #         69
  pAp =   6.455496860655221E-007  rzold =   1.073010553494024E-007  alpha = 
  0.166216571188157     
 delta_qm =   0.922306E-05 delta_en =   0.146992E-03 tol =   0.100000E-04
 Iteration #         70
  pAp =   5.002557158741287E-007  rzold =   8.787487891284106E-008  alpha = 
  0.175659919765818     
 delta_qm =   0.990921E-05 delta_en =   0.169677E-03 tol =   0.100000E-04
 Iteration #         71
  pAp =   4.835582330088664E-007  rzold =   8.037743281680941E-008  alpha = 
  0.166220792719572     
 delta_qm =   0.797793E-05 delta_en =   0.109983E-03 tol =   0.100000E-04
 Iteration #         72
  pAp =   3.747633916608156E-007  rzold =   6.583264777249230E-008  alpha = 
  0.175664563928579     
 delta_qm =   0.857244E-05 delta_en =   0.126985E-03 tol =   0.100000E-04
 Iteration #         73
  pAp =   3.622944203216123E-007  rzold =   6.022235134179310E-008  alpha = 
  0.166224893246584     
 delta_qm =   0.690179E-05 delta_en =   0.823128E-04 tol =   0.100000E-04
 Iteration #         74
  pAp =   2.808113609640619E-007  rzold =   4.932987458067380E-008  alpha = 
  0.175669084083058     
 delta_qm =   0.741688E-05 delta_en =   0.950574E-04 tol =   0.100000E-04
 Iteration #         75
  pAp =   2.714973679906861E-007  rzold =   4.513070648315238E-008  alpha = 
  0.166228891341225     
 delta_qm =   0.597157E-05 delta_en =   0.616198E-04 tol =   0.100000E-04
 Iteration #         76
  pAp =   2.104564147662802E-007  rzold =   3.697161461155862E-008  alpha = 
  0.175673498251963     
 delta_qm =   0.641783E-05 delta_en =   0.711738E-04 tol =   0.100000E-04
 Iteration #         77
  pAp =   2.034972170615648E-007  rzold =   3.382791241963236E-008  alpha = 
  0.166232801156186     
 delta_qm =   0.516736E-05 delta_en =   0.461403E-04 tol =   0.100000E-04
 Iteration #         78
  pAp =   1.577602395476624E-007  rzold =   2.771497503330614E-008  alpha = 
  0.175677820424030     
 delta_qm =   0.555398E-05 delta_en =   0.533032E-04 tol =   0.100000E-04
 Iteration #         79
  pAp =   1.525591503004438E-007  rzold =   2.536091961334492E-008  alpha = 
  0.166236633878729     
 delta_qm =   0.447200E-05 delta_en =   0.345578E-04 tol =   0.100000E-04
 Iteration #         80
  pAp =   1.182821011493863E-007  rzold =   2.078004341054468E-008  alpha = 
  0.175682061855667     
 delta_qm =   0.480695E-05 delta_en =   0.399285E-04 tol =   0.100000E-04
 Iteration #         81
  pAp =   1.143940116840289E-007  rzold =   1.901690610738972E-008  alpha = 
  0.166240398666295     
 delta_qm =   0.387067E-05 delta_en =   0.258890E-04 tol =   0.100000E-04
 Iteration #         82
  pAp =   8.870028120756296E-008  rzold =   1.558341817480306E-008  alpha = 
  0.175686231911003     
 delta_qm =   0.416085E-05 delta_en =   0.299163E-04 tol =   0.100000E-04
 Iteration #         83
  pAp =   8.579304227607751E-008  rzold =   1.426258737847311E-008  alpha = 
  0.166244103252299     
 delta_qm =   0.335059E-05 delta_en =   0.193993E-04 tol =   0.100000E-04
 Iteration #         84
  pAp =   6.652946738568091E-008  rzold =   1.168858465239882E-008  alpha = 
  0.175690338607980     
 delta_qm =   0.360198E-05 delta_en =   0.224195E-04 tol =   0.100000E-04
 Iteration #         85
  pAp =   6.435514455159457E-008  rzold =   1.069889826204852E-008  alpha = 
  0.166247754341862     
 delta_qm =   0.290072E-05 delta_en =   0.145397E-04 tol =   0.100000E-04
 Iteration #         86
  pAp =   4.990969658733523E-008  rzold =   8.768853645936650E-009  alpha = 
  0.175694388976946     
 delta_qm =   0.311850E-05 delta_en =   0.168049E-04 tol =   0.100000E-04
 Iteration #         87
  pAp =   4.828316357308648E-008  rzold =   8.027141506438427E-009  alpha = 
  0.166251357873179     
 delta_qm =   0.251154E-05 delta_en =   0.108999E-04 tol =   0.100000E-04
 Iteration #         88
  pAp =   3.744868166959784E-008  rzold =   6.579673050729002E-009  alpha = 
  0.175698389299258     
 delta_qm =   0.270020E-05 delta_en =   0.125990E-04 tol =   0.100000E-04
 Iteration #         89
  pAp =   3.623167103818098E-008  rzold =   6.023693540675759E-009  alpha = 
  0.166254919192879     
 delta_qm =   0.217481E-05 delta_en =   0.817312E-05 tol =   0.100000E-04
 Charges are converged, EXIT

%%%% ELECTRONS %%%%%%%%%%%%%%%%%%%%%%%%%%%%%%%%%%%%%%%%%%%%%%%%%%%%%%%%%%%%%%%%%
 number of electrons        =         24
 total electronic charge    =     24.0000000
 number of spin components  =  1

%%%% BOUNDARY %%%%%%%%%%%%%%%%%%%%%%%%%%%%%%%%%%%%%%%%%%%%%%%%%%%%%%%%%%%%%%%%%%
 boundary mode              = electronic           
 boundary is built as a function of a smooth density
 function type              =  2 
 using the modified SCCS function with parameters 
 rhomax                     =      0.0050000 
 rhomin                     =      0.0001000 
 volume of the QM region    =    717.0745325 
 surface of the QM region   =    412.4199777 

%%%% DIELECTRIC %%%%%%%%%%%%%%%%%%%%%%%%%%%%%%%%%%%%%%%%%%%%%%%%%%%%%%%%%%%%%%%%%
 dielectric build on homogeneous background
 environment bulk permitt.  =    100.0000000 
 dielectric flags
 need gradient              =  F 
 need factor depend. sqrt   =  T 
 total dielectric charge    =      0.9823775
