
     Program PWSCF v.7.0 starts on 22Apr2022 at 20:17:22 

     This program is part of the open-source Quantum ESPRESSO suite
     for quantum simulation of materials; please cite
         "P. Giannozzi et al., J. Phys.:Condens. Matter 21 395502 (2009);
         "P. Giannozzi et al., J. Phys.:Condens. Matter 29 465901 (2017);
         "P. Giannozzi et al., J. Chem. Phys. 152 154105 (2020);
          URL http://www.quantum-espresso.org", 
     in publications or presentations arising from this work. More details at
     http://www.quantum-espresso.org/quote

     Parallel version (MPI), running on     1 processors

     MPI processes distributed on     1 nodes
     22835 MiB available memory on the printing compute node when the environment starts
 
     Reading input from charged.in

     Current dimensions of program PWSCF are:
     Max number of different atomic species (ntypx) = 10
     Max number of k-points (npk) =  40000
     Max angular momentum in pseudopotentials (lmaxx) =  4
 
     Reading input from environ.in:
     * using ionic solvent mode
     * setting boundary derivatives method to SSCS default
     
     file C.pbe-rrkjus.UPF: wavefunction(s)  2S 2P renormalized
     file H.pbe-rrkjus.UPF: wavefunction(s)  1S renormalized
     file N.pbe-rrkjus.UPF: wavefunction(s)  2S renormalized
     file O.pbe-rrkjus.UPF: wavefunction(s)  2S renormalized

     gamma-point specific algorithms are used

     Subspace diagonalization in iterative solution of the eigenvalue problem:
     a serial algorithm will be used

 
     G-vector sticks info
     --------------------
     sticks:   dense  smooth     PW     G-vecs:    dense   smooth      PW
     Sum        9549    3809    949               701475   177509   22119
 
     Using Slab Decomposition
 


     bravais-lattice index     =            1
     lattice parameter (alat)  =      20.0000  a.u.
     unit-cell volume          =    8000.0000 (a.u.)^3
     number of atoms/cell      =           10
     number of atomic types    =            4
     number of electrons       =        24.00
     number of Kohn-Sham states=           12
     kinetic-energy cutoff     =      30.0000  Ry
     charge density cutoff     =     300.0000  Ry
     scf convergence threshold =      5.0E-06
     mixing beta               =       0.7000
     number of iterations used =            8  plain     mixing
     Exchange-correlation= SLA  PW   PBE  PBE
                           (   1   4   3   4   0   0   0)

     ================================================================================
 
                                  Environ Setup Summary

     ================================================================================
 
     Please cite

          O. Andreussi, I. Dabo and N. Marzari, J. Chem. Phys. 136, 064102 (2012)

     in publications or presentations arising from this work.

     ================================================================================
 
     Parameters
     ==========

     compensation onset threshold      =               0.1000E+03
     static permittivity               =                   100.00

     Solvent Boundary
     ================

     solvent mode                      =                    ionic
     derivatives method                =                   lowmem
     numerical core for derivatives    =                      fft
     switching function adopted        =                     SCCS
     density limit for vacuum region   =               0.5000E-02
     density limit for bulk solvent    =               0.1000E-03
     soft-sphere radius mode           =                      uff
     soft-sphere softness              =                     0.50
     alpha                             =                     1.00

     Electrostatic Setup
     ===================

     electrostatic problem to solve    =              generalized
     numerical solver adopted          =                       cg
     type of auxiliary density adopted =                     none
     numerical core for poisson        =                      fft

     ================================================================================
 

     celldm(1)=  20.000000  celldm(2)=   0.000000  celldm(3)=   0.000000
     celldm(4)=   0.000000  celldm(5)=   0.000000  celldm(6)=   0.000000

     crystal axes: (cart. coord. in units of alat)
               a(1) = (   1.000000   0.000000   0.000000 )  
               a(2) = (   0.000000   1.000000   0.000000 )  
               a(3) = (   0.000000   0.000000   1.000000 )  

     reciprocal axes: (cart. coord. in units 2 pi/alat)
               b(1) = (  1.000000  0.000000  0.000000 )  
               b(2) = (  0.000000  1.000000  0.000000 )  
               b(3) = (  0.000000  0.000000  1.000000 )  


     PseudoPot. # 1 for C  read from file:
     MD5 check sum: c9ac5a99bc85b198593446162950cd17
     Pseudo is Ultrasoft, Zval =  4.0
     Generated by new atomic code, or converted to UPF format
     Using radial grid of  627 points,  4 beta functions with: 
                l(1) =   0
                l(2) =   0
                l(3) =   1
                l(4) =   1
     Q(r) pseudized with 0 coefficients 


     PseudoPot. # 2 for H  read from file:
     MD5 check sum: 2d52a7f45632fd764c17cc6affed14c8
     Pseudo is Ultrasoft, Zval =  1.0
     Generated by new atomic code, or converted to UPF format
     Using radial grid of 1061 points,  2 beta functions with: 
                l(1) =   0
                l(2) =   0
     Q(r) pseudized with 0 coefficients 


     PseudoPot. # 3 for N  read from file:
     MD5 check sum: 28c76d763763edb36c62a6ca2be9aebd
     Pseudo is Ultrasoft, Zval =  5.0
     Generated by new atomic code, or converted to UPF format
     Using radial grid of 1257 points,  4 beta functions with: 
                l(1) =   0
                l(2) =   0
                l(3) =   1
                l(4) =   1
     Q(r) pseudized with 0 coefficients 


     PseudoPot. # 4 for O  read from file:
     MD5 check sum: fadcf19ee70a498d3030e2e79cf929a4
     Pseudo is Ultrasoft, Zval =  6.0
     Generated by new atomic code, or converted to UPF format
     Using radial grid of 1269 points,  4 beta functions with: 
                l(1) =   0
                l(2) =   0
                l(3) =   1
                l(4) =   1
     Q(r) pseudized with 0 coefficients 


     atomic species   valence    mass     pseudopotential
        C              4.00    12.00000     C ( 1.00)
        H              1.00     1.00000     H ( 1.00)
        N              5.00    14.00000     N ( 1.00)
        O              6.00    16.00000     O ( 1.00)

     No symmetry found



   Cartesian axes

     site n.     atom                  positions (alat units)
         1           C   tau(   1) = (   0.0000000   0.0000000   0.0000000  )
         2           C   tau(   2) = (   0.0000000   0.0000000   0.1455089  )
         3           N   tau(   3) = (   0.1170969   0.0000000  -0.0545024  )
         4           H   tau(   4) = (   0.0476617  -0.0825466   0.1792090  )
         5           H   tau(   5) = (  -0.0953183  -0.0000030   0.1792090  )
         6           H   tau(   6) = (   0.0476566   0.0825496   0.1792090  )
         7           O   tau(   7) = (  -0.0984002  -0.0000019  -0.0641310  )
         8           H   tau(   8) = (   0.1263131  -0.0000015  -0.1475548  )
         9           H   tau(   9) = (   0.1944645   0.0000134  -0.0025716  )
        10           H   tau(  10) = (  -0.0770366  -0.0000045  -0.1522861  )

     number of k points=     1
                       cart. coord. in units 2pi/alat
        k(    1) = (   0.0000000   0.0000000   0.0000000), wk =   2.0000000

     Dense  grid:   350738 G-vectors     FFT dimensions: ( 120, 120, 120)

     Smooth grid:    88755 G-vectors     FFT dimensions: (  72,  72,  72)

     Estimated max dynamical RAM per process >     624.11 MB

     Initial potential from superposition of free atoms

     starting charge      24.4227, renormalised to      24.0000

     negative rho (up, down):  4.438E-04 0.000E+00
     Starting wfcs are   22 randomized atomic wfcs

     total cpu time spent up to now is        4.9 secs

     Self-consistent Calculation

     iteration #  1     ecut=    30.00 Ry     beta= 0.70
     Davidson diagonalization with overlap
     ethr =  1.00E-02,  avg # of iterations =  2.0

     negative rho (up, down):  1.234E-04 0.000E+00

     add environment contribution to local potential
     Polarization accuracy = 5.4E-06, # of iterations =  17

     total cpu time spent up to now is        8.3 secs

     total energy              =     -80.29562589 Ry
     estimated scf accuracy    <       3.64924908 Ry
     electrostatic embedding   =       0.00000000 Ry
     correction to one-el term =       0.00000000 Ry

     iteration #  2     ecut=    30.00 Ry     beta= 0.70
     Davidson diagonalization with overlap
     ethr =  1.00E-02,  avg # of iterations =  5.0

     negative rho (up, down):  6.007E-04 0.000E+00

     add environment contribution to local potential
     Polarization accuracy = 6.2E-06, # of iterations =  17

     total cpu time spent up to now is       12.5 secs

     total energy              =     -81.12511621 Ry
     estimated scf accuracy    <       1.21997961 Ry
     electrostatic embedding   =      -0.23189369 Ry
     correction to one-el term =      -5.92784509 Ry

     iteration #  3     ecut=    30.00 Ry     beta= 0.70
     Davidson diagonalization with overlap
     ethr =  5.08E-03,  avg # of iterations =  4.0

     negative rho (up, down):  2.220E-04 0.000E+00

     add environment contribution to local potential
     Polarization accuracy = 9.9E-06, # of iterations =  17

     total cpu time spent up to now is       16.8 secs

     total energy              =     -81.36290489 Ry
     estimated scf accuracy    <       0.12146851 Ry
     electrostatic embedding   =      -0.19196474 Ry
     correction to one-el term =      -5.29800797 Ry

     iteration #  4     ecut=    30.00 Ry     beta= 0.70
     Davidson diagonalization with overlap
     ethr =  5.06E-04,  avg # of iterations =  5.0

     negative rho (up, down):  1.137E-04 0.000E+00

     add environment contribution to local potential
     Polarization accuracy = 5.8E-06, # of iterations =  17

     total cpu time spent up to now is       20.2 secs

     total energy              =     -81.40299139 Ry
     estimated scf accuracy    <       0.01821925 Ry
     electrostatic embedding   =      -0.15441454 Ry
     correction to one-el term =      -4.89232186 Ry

     iteration #  5     ecut=    30.00 Ry     beta= 0.70
     Davidson diagonalization with overlap
     ethr =  7.59E-05,  avg # of iterations =  4.0

     negative rho (up, down):  7.553E-05 0.000E+00

     add environment contribution to local potential
     Polarization accuracy = 5.6E-06, # of iterations =  17

     total cpu time spent up to now is       24.1 secs

     total energy              =     -81.40731948 Ry
     estimated scf accuracy    <       0.00150414 Ry
     electrostatic embedding   =      -0.13730914 Ry
     correction to one-el term =      -4.47707888 Ry

     iteration #  6     ecut=    30.00 Ry     beta= 0.70
     Davidson diagonalization with overlap
     ethr =  6.27E-06,  avg # of iterations =  2.0

     negative rho (up, down):  1.051E-04 0.000E+00

     add environment contribution to local potential
     Polarization accuracy = 5.7E-06, # of iterations =  17

     total cpu time spent up to now is       27.9 secs

     total energy              =     -81.40771344 Ry
     estimated scf accuracy    <       0.00019683 Ry
     electrostatic embedding   =      -0.13644364 Ry
     correction to one-el term =      -4.43377639 Ry

     iteration #  7     ecut=    30.00 Ry     beta= 0.70
     Davidson diagonalization with overlap
     ethr =  8.20E-07,  avg # of iterations =  5.0

     negative rho (up, down):  2.493E-04 0.000E+00

     add environment contribution to local potential
     Polarization accuracy = 6.0E-06, # of iterations =  17

     total cpu time spent up to now is       31.8 secs

     total energy              =     -81.40777506 Ry
     estimated scf accuracy    <       0.00002056 Ry
     electrostatic embedding   =      -0.13601303 Ry
     correction to one-el term =      -4.40867616 Ry

     iteration #  8     ecut=    30.00 Ry     beta= 0.70
     Davidson diagonalization with overlap
     ethr =  8.57E-08,  avg # of iterations =  3.0

     negative rho (up, down):  2.705E-04 0.000E+00

     the potential shift due to the Gaussian-smeared nuclei is    -0.0668 ev

     total cpu time spent up to now is       33.1 secs

     End of self-consistent calculation

          k = 0.0000 0.0000 0.0000 ( 11060 PWs)   bands (ev):

   -28.9233 -22.9737 -18.4866 -15.9889 -14.5591 -13.2938 -11.5636 -10.8842
    -9.4234  -9.4231  -9.2465  -7.2644

     highest occupied level (ev):    -7.2644

!    total energy              =     -81.40778221 Ry
     estimated scf accuracy    <       0.00000111 Ry

     The total energy is the sum of the following terms:
     one-electron contribution =    -240.99567634 Ry
     hartree contribution      =     122.71462460 Ry
     xc contribution           =     -22.90350585 Ry
     ewald contribution        =      64.30784069 Ry
     electrostatic embedding   =      -0.13562099 Ry
     correction to one-el term =      -4.39544432 Ry

     convergence has been achieved in   8 iterations

     Forces acting on atoms (cartesian axes, Ry/au):

     atom    1 type  1   force =     0.22883657   -0.00001882    0.10183995
     atom    2 type  1   force =    -0.03260676   -0.00002355   -0.08278269
     atom    3 type  3   force =    -0.14589434   -0.00003404    0.04595689
     atom    4 type  2   force =     0.02062140   -0.03157300    0.00907647
     atom    5 type  2   force =    -0.03467308    0.00001691    0.01231428
     atom    6 type  2   force =     0.02062054    0.03161186    0.00907972
     atom    7 type  4   force =    -0.10325767   -0.00004659   -0.00493209
     atom    8 type  2   force =     0.00874727    0.00002204   -0.05986138
     atom    9 type  2   force =     0.04741442    0.00002356    0.03973422
     atom   10 type  2   force =    -0.00980836    0.00002164   -0.07042538

     Total force =     0.348777     Total SCF correction =     0.001835

 
     init_run     :      4.22s CPU      4.77s WALL (       1 calls)
     electrons    :     26.00s CPU     28.25s WALL (       1 calls)
     forces       :      2.26s CPU      2.36s WALL (       1 calls)

     Called by init_run:
     wfcinit      :      0.10s CPU      0.10s WALL (       1 calls)
     potinit      :      0.51s CPU      0.54s WALL (       1 calls)
     hinit0       :      3.07s CPU      3.43s WALL (       1 calls)

     Called by electrons:
     c_bands      :      1.57s CPU      1.64s WALL (       8 calls)
     sum_band     :      3.30s CPU      3.80s WALL (       8 calls)
     v_of_rho     :      3.38s CPU      3.79s WALL (       9 calls)
     newd         :      2.26s CPU      2.83s WALL (       9 calls)
     mix_rho      :      0.41s CPU      0.41s WALL (       8 calls)

     Called by c_bands:
     init_us_2    :      0.05s CPU      0.05s WALL (      17 calls)
     init_us_2:cp :      0.05s CPU      0.05s WALL (      17 calls)
     regterg      :      1.48s CPU      1.53s WALL (       8 calls)

     Called by *egterg:
     rdiaghg      :      0.01s CPU      0.01s WALL (      38 calls)
     h_psi        :      1.42s CPU      1.47s WALL (      39 calls)
     s_psi        :      0.03s CPU      0.03s WALL (      39 calls)
     g_psi        :      0.01s CPU      0.01s WALL (      30 calls)

     Called by h_psi:
     h_psi:calbec :      0.03s CPU      0.03s WALL (      39 calls)
     vloc_psi     :      1.34s CPU      1.39s WALL (      39 calls)
     add_vuspsi   :      0.03s CPU      0.04s WALL (      39 calls)

     General routines
     calbec       :      0.05s CPU      0.05s WALL (      51 calls)
     fft          :      1.62s CPU      1.87s WALL (      99 calls)
     ffts         :      0.05s CPU      0.05s WALL (      17 calls)
     fftw         :      1.12s CPU      1.17s WALL (     362 calls)
     interpolate  :      0.22s CPU      0.22s WALL (       9 calls)
 
     Parallel routines
 
     Environ routines
 
     PWSCF        :     32.54s CPU     35.49s WALL

 
   This run was terminated on:  20:17:58  22Apr2022            

=------------------------------------------------------------------------------=
   JOB DONE.
=------------------------------------------------------------------------------=

%%%% CELL %%%%%%%%%%%%%%%%%%%%%%%%%%%%%%%%%%%%%%%%%%%%%%%%%%%%%%%%%%%%%%%%%%%%%%

 cell label                 = system         

 cell volume                =    8000.000000

%%%% IONS %%%%%%%%%%%%%%%%%%%%%%%%%%%%%%%%%%%%%%%%%%%%%%%%%%%%%%%%%%%%%%%%%%%%%%

 total charge               =    -25.0000000
 center of charge           =      0.1036944    -0.0000075     0.0650154
 dipole                     =      0.0000000     0.0000000     0.0000000
 quadrupole (pc)            =    -79.2736207    -5.4513517  -105.9050187
 quadrupole (gauss)         =    -82.3986207    -8.5763517  -109.0300187

   i | type | coordinates
 -----------------------------------------------------------------------
   1 |    1 |                      0.0000000     0.0000000     0.0000000
   2 |    1 |                      0.0000000     0.0000000     2.9101782
   3 |    3 |                      2.3419379     0.0000000    -1.0900479
   4 |    2 |                      0.9532347    -1.6509323     3.5841800
   5 |    2 |                     -1.9063663    -0.0000596     3.5841809
   6 |    2 |                      0.9531315     1.6509919     3.5841800
   7 |    4 |                     -1.9680045    -0.0000375    -1.2826193
   8 |    2 |                      2.5262613    -0.0000303    -2.9510950
   9 |    2 |                      3.8892907     0.0002681    -0.0514326
  10 |    2 |                     -1.5407317    -0.0000890    -3.0457220

%%%% SYSTEM %%%%%%%%%%%%%%%%%%%%%%%%%%%%%%%%%%%%%%%%%%%%%%%%%%%%%%%%%%%%%%%%%%%%

 system is built from all present ionic types

 system defined dimension   =              0
 system defined axis        =              3

 system center              =      0.1036944    -0.0000075     0.0650154
 system width               =      4.0527608

%%%% IONS %%%%%%%%%%%%%%%%%%%%%%%%%%%%%%%%%%%%%%%%%%%%%%%%%%%%%%%%%%%%%%%%%%%%%%

 total charge               =    -25.0000000
 center of charge           =      0.1036944    -0.0000075     0.0650154
 dipole                     =      0.0000000     0.0000000     0.0000000
 quadrupole (pc)            =    -79.2736207    -5.4513517  -105.9050187
 quadrupole (gauss)         =    -82.3986207    -8.5763517  -109.0300187

   i | type | coordinates
 -----------------------------------------------------------------------
   1 |    1 |                      0.0000000     0.0000000     0.0000000
   2 |    1 |                      0.0000000     0.0000000     2.9101782
   3 |    3 |                      2.3419379     0.0000000    -1.0900479
   4 |    2 |                      0.9532347    -1.6509323     3.5841800
   5 |    2 |                     -1.9063663    -0.0000596     3.5841809
   6 |    2 |                      0.9531315     1.6509919     3.5841800
   7 |    4 |                     -1.9680045    -0.0000375    -1.2826193
   8 |    2 |                      2.5262613    -0.0000303    -2.9510950
   9 |    2 |                      3.8892907     0.0002681    -0.0514326
  10 |    2 |                     -1.5407317    -0.0000890    -3.0457220

%%%% SYSTEM %%%%%%%%%%%%%%%%%%%%%%%%%%%%%%%%%%%%%%%%%%%%%%%%%%%%%%%%%%%%%%%%%%%%

 system is built from all present ionic types

 system defined dimension   =              0
 system defined axis        =              3

 system center              =      0.1036944    -0.0000075     0.0650154
 system width               =      4.0527608

%%%% BOUNDARY %%%%%%%%%%%%%%%%%%%%%%%%%%%%%%%%%%%%%%%%%%%%%%%%%%%%%%%%%%%%%%%%%%

 boundary label             = solvent             
 boundary mode              = ionic               

 boundary is built from soft-spheres centered on ionic positions:
 solvent-dependent scaling  =      1.0000000
 softness parameter         =      0.5000000

 volume of the QM region    =    609.3920693

 surface of the QM region   =    383.1651428

%%%% CHARGES %%%%%%%%%%%%%%%%%%%%%%%%%%%%%%%%%%%%%%%%%%%%%%%%%%%%%%%%%%%%%%%%%%%

 total number of charges    =             10

 total charge               =    -25.0000000

%%%% CHARGES %%%%%%%%%%%%%%%%%%%%%%%%%%%%%%%%%%%%%%%%%%%%%%%%%%%%%%%%%%%%%%%%%%%

 total number of charges    =             10

 total charge               =    -25.0000000

%%%% CELL %%%%%%%%%%%%%%%%%%%%%%%%%%%%%%%%%%%%%%%%%%%%%%%%%%%%%%%%%%%%%%%%%%%%%%

 cell label                 = system         

 cell volume                =    8000.000000

%%%% ELECTRONS %%%%%%%%%%%%%%%%%%%%%%%%%%%%%%%%%%%%%%%%%%%%%%%%%%%%%%%%%%%%%%%%%

 number of electrons        =             24

 total electronic charge    =     24.0000000

%%%% ELECTRONS %%%%%%%%%%%%%%%%%%%%%%%%%%%%%%%%%%%%%%%%%%%%%%%%%%%%%%%%%%%%%%%%%

 number of electrons        =             24

 total electronic charge    =     24.0000000

%%%% CHARGES %%%%%%%%%%%%%%%%%%%%%%%%%%%%%%%%%%%%%%%%%%%%%%%%%%%%%%%%%%%%%%%%%%%

 total number of charges    =             34

 total charge               =     -1.0000000

%%%% CHARGES %%%%%%%%%%%%%%%%%%%%%%%%%%%%%%%%%%%%%%%%%%%%%%%%%%%%%%%%%%%%%%%%%%%

 total number of charges    =             34

 total charge               =     -1.0000000

%%%% DENSITY %%%%%%%%%%%%%%%%%%%%%%%%%%%%%%%%%%%%%%%%%%%%%%%%%%%%%%%%%%%%%%%%%%%

 density label              = dvtot                                             

 integral of density        =    0.000000000    

%%%% DENSITY %%%%%%%%%%%%%%%%%%%%%%%%%%%%%%%%%%%%%%%%%%%%%%%%%%%%%%%%%%%%%%%%%%%

 density label              = vreference                                        

 integral of density        =    0.000000000    

%%%% DENSITY %%%%%%%%%%%%%%%%%%%%%%%%%%%%%%%%%%%%%%%%%%%%%%%%%%%%%%%%%%%%%%%%%%%

 density label              = velectrostatic                                    

 integral of density        =    0.000000000    

%%%% CHARGES %%%%%%%%%%%%%%%%%%%%%%%%%%%%%%%%%%%%%%%%%%%%%%%%%%%%%%%%%%%%%%%%%%%

 total number of charges    =             34

 total charge               =     -1.0000000

%%%% ELECTRONS %%%%%%%%%%%%%%%%%%%%%%%%%%%%%%%%%%%%%%%%%%%%%%%%%%%%%%%%%%%%%%%%%

 number of electrons        =             24

 total electronic charge    =     24.0000000

%%%% ELECTRONS %%%%%%%%%%%%%%%%%%%%%%%%%%%%%%%%%%%%%%%%%%%%%%%%%%%%%%%%%%%%%%%%%

 number of electrons        =             24

 total electronic charge    =     24.0000000

%%%% CHARGES %%%%%%%%%%%%%%%%%%%%%%%%%%%%%%%%%%%%%%%%%%%%%%%%%%%%%%%%%%%%%%%%%%%

 total number of charges    =             34

 total charge               =     -1.0000000

%%%% CHARGES %%%%%%%%%%%%%%%%%%%%%%%%%%%%%%%%%%%%%%%%%%%%%%%%%%%%%%%%%%%%%%%%%%%

 total number of charges    =             34

 total charge               =     -1.0000000

%%%% DENSITY %%%%%%%%%%%%%%%%%%%%%%%%%%%%%%%%%%%%%%%%%%%%%%%%%%%%%%%%%%%%%%%%%%%

 density label              = vreference                                        

 integral of density        =  -0.6883053798E-12

%%%% COMPUTE ELECTROSTATIC POTENTIAL %%%%%%%%%%%%%%%%%%%%%%%%%%%%%%%%%%%%%%%%%%%

   i |      alpha     |       pAp      |      rzold     |    delta_qm    |    delta_en    |       tol
 ---------------------------------------------------------------------------------------------------------
   1 |   0.934426E+00 |   0.958063E+02 |   0.895239E+02 |   0.320778E-01 |   0.177809E+04 |   0.100000E-04
   2 |   0.921067E-01 |   0.611442E+03 |   0.563179E+02 |   0.437690E-02 |   0.331038E+02 |   0.100000E-04
   3 |   0.187333E+00 |   0.212332E+01 |   0.397769E+00 |   0.196790E-02 |   0.669188E+01 |   0.100000E-04
   4 |   0.150817E+00 |   0.310811E+00 |   0.468755E-01 |   0.143405E-02 |   0.355365E+01 |   0.100000E-04
   5 |   0.251139E+00 |   0.331083E-01 |   0.831479E-02 |   0.954176E-03 |   0.157326E+01 |   0.100000E-04
   6 |   0.350148E+00 |   0.841425E-02 |   0.294623E-02 |   0.495619E-03 |   0.424463E+00 |   0.100000E-04
   7 |   0.227035E+00 |   0.504692E-02 |   0.114583E-02 |   0.329546E-03 |   0.187662E+00 |   0.100000E-04
   8 |   0.251319E+00 |   0.191782E-02 |   0.481983E-03 |   0.240120E-03 |   0.996327E-01 |   0.100000E-04
   9 |   0.587554E+00 |   0.282764E-03 |   0.166139E-03 |   0.146748E-03 |   0.372126E-01 |   0.100000E-04
  10 |   0.392753E+00 |   0.344035E-03 |   0.135121E-03 |   0.713208E-04 |   0.878974E-02 |   0.100000E-04
  11 |   0.357336E+00 |   0.926430E-04 |   0.331047E-04 |   0.454508E-04 |   0.356967E-02 |   0.100000E-04
  12 |   0.340996E+00 |   0.171160E-04 |   0.583649E-05 |   0.292705E-04 |   0.148049E-02 |   0.100000E-04
  13 |   0.417108E+00 |   0.437619E-05 |   0.182534E-05 |   0.187556E-04 |   0.607863E-03 |   0.100000E-04
  14 |   0.362061E+00 |   0.283002E-05 |   0.102464E-05 |   0.116704E-04 |   0.235352E-03 |   0.100000E-04
  15 |   0.394135E+00 |   0.963664E-06 |   0.379813E-06 |   0.711661E-05 |   0.875164E-04 |   0.100000E-04
  16 |   0.478358E+00 |   0.236431E-06 |   0.113099E-06 |   0.389159E-05 |   0.261697E-04 |   0.100000E-04
  17 |   0.494575E+00 |   0.779835E-07 |   0.385687E-07 |   0.176210E-05 |   0.536546E-05 |   0.100000E-04

 Charges are converged, EXIT

%%%% DENSITY %%%%%%%%%%%%%%%%%%%%%%%%%%%%%%%%%%%%%%%%%%%%%%%%%%%%%%%%%%%%%%%%%%%

 density label              = velectrostatic                                    

 integral of density        =  -0.1049892683E-11

%%%% CHARGES %%%%%%%%%%%%%%%%%%%%%%%%%%%%%%%%%%%%%%%%%%%%%%%%%%%%%%%%%%%%%%%%%%%

 total number of charges    =             34

 total charge               =     -1.0000000

%%%% DENSITY %%%%%%%%%%%%%%%%%%%%%%%%%%%%%%%%%%%%%%%%%%%%%%%%%%%%%%%%%%%%%%%%%%%

 density label              = dvtot                                             

 integral of density        =  -0.1032297704E-11

%%%% ELECTRONS %%%%%%%%%%%%%%%%%%%%%%%%%%%%%%%%%%%%%%%%%%%%%%%%%%%%%%%%%%%%%%%%%

 number of electrons        =             24

 total electronic charge    =     24.0000000

%%%% ELECTRONS %%%%%%%%%%%%%%%%%%%%%%%%%%%%%%%%%%%%%%%%%%%%%%%%%%%%%%%%%%%%%%%%%

 number of electrons        =             24

 total electronic charge    =     24.0000000

%%%% CHARGES %%%%%%%%%%%%%%%%%%%%%%%%%%%%%%%%%%%%%%%%%%%%%%%%%%%%%%%%%%%%%%%%%%%

 total number of charges    =             34

 total charge               =     -1.0000000

%%%% CHARGES %%%%%%%%%%%%%%%%%%%%%%%%%%%%%%%%%%%%%%%%%%%%%%%%%%%%%%%%%%%%%%%%%%%

 total number of charges    =             34

 total charge               =     -1.0000000

%%%% DENSITY %%%%%%%%%%%%%%%%%%%%%%%%%%%%%%%%%%%%%%%%%%%%%%%%%%%%%%%%%%%%%%%%%%%

 density label              = vreference                                        

 integral of density        =  -0.1519771963E-13

%%%% COMPUTE ELECTROSTATIC POTENTIAL %%%%%%%%%%%%%%%%%%%%%%%%%%%%%%%%%%%%%%%%%%%

 Warning: Bad guess with residual norm =   0.176826E+04, reset to no guess

   i |      alpha     |       pAp      |      rzold     |    delta_qm    |    delta_en    |       tol
 ---------------------------------------------------------------------------------------------------------
   1 |   0.943896E+00 |   0.988158E+02 |   0.932719E+02 |   0.304545E-01 |   0.160267E+04 |   0.100000E-04
   2 |   0.915348E-01 |   0.555276E+03 |   0.508271E+02 |   0.388227E-02 |   0.260445E+02 |   0.100000E-04
   3 |   0.159279E+00 |   0.201392E+01 |   0.320777E+00 |   0.192343E-02 |   0.639285E+01 |   0.100000E-04
   4 |   0.150187E+00 |   0.283523E+00 |   0.425814E-01 |   0.145025E-02 |   0.363436E+01 |   0.100000E-04
   5 |   0.317677E+00 |   0.195445E-01 |   0.620886E-02 |   0.902965E-03 |   0.140892E+01 |   0.100000E-04
   6 |   0.330461E+00 |   0.847042E-02 |   0.279914E-02 |   0.467310E-03 |   0.377358E+00 |   0.100000E-04
   7 |   0.216502E+00 |   0.475119E-02 |   0.102864E-02 |   0.338864E-03 |   0.198425E+00 |   0.100000E-04
   8 |   0.310781E+00 |   0.141266E-02 |   0.439029E-03 |   0.240550E-03 |   0.999897E-01 |   0.100000E-04
   9 |   0.566047E+00 |   0.360273E-03 |   0.203931E-03 |   0.138337E-03 |   0.330689E-01 |   0.100000E-04
  10 |   0.359828E+00 |   0.377665E-03 |   0.135895E-03 |   0.651384E-04 |   0.733193E-02 |   0.100000E-04
  11 |   0.359894E+00 |   0.668158E-04 |   0.240466E-04 |   0.445956E-04 |   0.343659E-02 |   0.100000E-04
  12 |   0.374170E+00 |   0.130036E-04 |   0.486557E-05 |   0.280997E-04 |   0.136441E-02 |   0.100000E-04
  13 |   0.559413E+00 |   0.265113E-05 |   0.148308E-05 |   0.154748E-04 |   0.413805E-03 |   0.100000E-04
  14 |   0.463808E+00 |   0.133457E-05 |   0.618983E-06 |   0.893328E-05 |   0.137900E-03 |   0.100000E-04
  15 |   0.287858E+00 |   0.856492E-06 |   0.246548E-06 |   0.642563E-05 |   0.713470E-04 |   0.100000E-04
  16 |   0.326725E+00 |   0.366786E-06 |   0.119838E-06 |   0.369092E-05 |   0.235404E-04 |   0.100000E-04
  17 |   0.367226E+00 |   0.112930E-06 |   0.414707E-07 |   0.189069E-05 |   0.617706E-05 |   0.100000E-04

 Charges are converged, EXIT

%%%% DENSITY %%%%%%%%%%%%%%%%%%%%%%%%%%%%%%%%%%%%%%%%%%%%%%%%%%%%%%%%%%%%%%%%%%%

 density label              = velectrostatic                                    

 integral of density        =  -0.1973927195E-11

%%%% CHARGES %%%%%%%%%%%%%%%%%%%%%%%%%%%%%%%%%%%%%%%%%%%%%%%%%%%%%%%%%%%%%%%%%%%

 total number of charges    =             34

 total charge               =     -1.0000000

%%%% DENSITY %%%%%%%%%%%%%%%%%%%%%%%%%%%%%%%%%%%%%%%%%%%%%%%%%%%%%%%%%%%%%%%%%%%

 density label              = dvtot                                             

 integral of density        =  -0.6804330761E-12

%%%% ELECTRONS %%%%%%%%%%%%%%%%%%%%%%%%%%%%%%%%%%%%%%%%%%%%%%%%%%%%%%%%%%%%%%%%%

 number of electrons        =             24

 total electronic charge    =     24.0000000

%%%% ELECTRONS %%%%%%%%%%%%%%%%%%%%%%%%%%%%%%%%%%%%%%%%%%%%%%%%%%%%%%%%%%%%%%%%%

 number of electrons        =             24

 total electronic charge    =     24.0000000

%%%% CHARGES %%%%%%%%%%%%%%%%%%%%%%%%%%%%%%%%%%%%%%%%%%%%%%%%%%%%%%%%%%%%%%%%%%%

 total number of charges    =             34

 total charge               =     -1.0000000

%%%% CHARGES %%%%%%%%%%%%%%%%%%%%%%%%%%%%%%%%%%%%%%%%%%%%%%%%%%%%%%%%%%%%%%%%%%%

 total number of charges    =             34

 total charge               =     -1.0000000

%%%% DENSITY %%%%%%%%%%%%%%%%%%%%%%%%%%%%%%%%%%%%%%%%%%%%%%%%%%%%%%%%%%%%%%%%%%%

 density label              = vreference                                        

 integral of density        =  -0.5835661172E-13

%%%% COMPUTE ELECTROSTATIC POTENTIAL %%%%%%%%%%%%%%%%%%%%%%%%%%%%%%%%%%%%%%%%%%%

 Warning: Bad guess with residual norm =   0.141648E+04, reset to no guess

   i |      alpha     |       pAp      |      rzold     |    delta_qm    |    delta_en    |       tol
 ---------------------------------------------------------------------------------------------------------
   1 |   0.954389E+00 |   0.983222E+02 |   0.938376E+02 |   0.275180E-01 |   0.130851E+04 |   0.100000E-04
   2 |   0.904188E-01 |   0.465400E+03 |   0.420809E+02 |   0.363503E-02 |   0.228328E+02 |   0.100000E-04
   3 |   0.169579E+00 |   0.153551E+01 |   0.260390E+00 |   0.180928E-02 |   0.565662E+01 |   0.100000E-04
   4 |   0.148273E+00 |   0.252988E+00 |   0.375112E-01 |   0.136158E-02 |   0.320356E+01 |   0.100000E-04
   5 |   0.302592E+00 |   0.186361E-01 |   0.563914E-02 |   0.872426E-03 |   0.131523E+01 |   0.100000E-04
   6 |   0.370879E+00 |   0.634893E-02 |   0.235469E-02 |   0.436857E-03 |   0.329778E+00 |   0.100000E-04
   7 |   0.375391E+00 |   0.170407E-02 |   0.639693E-03 |   0.278883E-03 |   0.134397E+00 |   0.100000E-04
   8 |   0.420611E+00 |   0.587655E-03 |   0.247174E-03 |   0.194365E-03 |   0.652800E-01 |   0.100000E-04
   9 |   0.273268E+00 |   0.959174E-03 |   0.262112E-03 |   0.127420E-03 |   0.280557E-01 |   0.100000E-04
  10 |   0.298514E+00 |   0.459110E-03 |   0.137051E-03 |   0.634576E-04 |   0.695842E-02 |   0.100000E-04
  11 |   0.322833E+00 |   0.789946E-04 |   0.255021E-04 |   0.452540E-04 |   0.353881E-02 |   0.100000E-04
  12 |   0.326105E+00 |   0.174223E-04 |   0.568150E-05 |   0.299506E-04 |   0.155008E-02 |   0.100000E-04
  13 |   0.414574E+00 |   0.439378E-05 |   0.182154E-05 |   0.185155E-04 |   0.592402E-03 |   0.100000E-04
  14 |   0.392292E+00 |   0.267024E-05 |   0.104751E-05 |   0.113326E-04 |   0.221922E-03 |   0.100000E-04
  15 |   0.420027E+00 |   0.844464E-06 |   0.354698E-06 |   0.656649E-05 |   0.745093E-04 |   0.100000E-04
  16 |   0.412660E+00 |   0.255109E-06 |   0.105273E-06 |   0.386766E-05 |   0.258488E-04 |   0.100000E-04
  17 |   0.272890E+00 |   0.184658E-06 |   0.503913E-07 |   0.239817E-05 |   0.993814E-05 |   0.100000E-04

 Charges are converged, EXIT

%%%% DENSITY %%%%%%%%%%%%%%%%%%%%%%%%%%%%%%%%%%%%%%%%%%%%%%%%%%%%%%%%%%%%%%%%%%%

 density label              = velectrostatic                                    

 integral of density        =   0.2671772268E-12

%%%% CHARGES %%%%%%%%%%%%%%%%%%%%%%%%%%%%%%%%%%%%%%%%%%%%%%%%%%%%%%%%%%%%%%%%%%%

 total number of charges    =             34

 total charge               =     -1.0000000

%%%% DENSITY %%%%%%%%%%%%%%%%%%%%%%%%%%%%%%%%%%%%%%%%%%%%%%%%%%%%%%%%%%%%%%%%%%%

 density label              = dvtot                                             

 integral of density        =   0.1280601140E-12

%%%% ELECTRONS %%%%%%%%%%%%%%%%%%%%%%%%%%%%%%%%%%%%%%%%%%%%%%%%%%%%%%%%%%%%%%%%%

 number of electrons        =             24

 total electronic charge    =     24.0000000

%%%% ELECTRONS %%%%%%%%%%%%%%%%%%%%%%%%%%%%%%%%%%%%%%%%%%%%%%%%%%%%%%%%%%%%%%%%%

 number of electrons        =             24

 total electronic charge    =     24.0000000

%%%% CHARGES %%%%%%%%%%%%%%%%%%%%%%%%%%%%%%%%%%%%%%%%%%%%%%%%%%%%%%%%%%%%%%%%%%%

 total number of charges    =             34

 total charge               =     -1.0000000

%%%% CHARGES %%%%%%%%%%%%%%%%%%%%%%%%%%%%%%%%%%%%%%%%%%%%%%%%%%%%%%%%%%%%%%%%%%%

 total number of charges    =             34

 total charge               =     -1.0000000

%%%% DENSITY %%%%%%%%%%%%%%%%%%%%%%%%%%%%%%%%%%%%%%%%%%%%%%%%%%%%%%%%%%%%%%%%%%%

 density label              = vreference                                        

 integral of density        =  -0.2289526593E-12

%%%% COMPUTE ELECTROSTATIC POTENTIAL %%%%%%%%%%%%%%%%%%%%%%%%%%%%%%%%%%%%%%%%%%%

 Warning: Bad guess with residual norm =   0.121941E+04, reset to no guess

   i |      alpha     |       pAp      |      rzold     |    delta_qm    |    delta_en    |       tol
 ---------------------------------------------------------------------------------------------------------
   1 |   0.960292E+00 |   0.975276E+02 |   0.936550E+02 |   0.256673E-01 |   0.113842E+04 |   0.100000E-04
   2 |   0.902198E-01 |   0.404552E+03 |   0.364986E+02 |   0.369061E-02 |   0.235364E+02 |   0.100000E-04
   3 |   0.168441E+00 |   0.164726E+01 |   0.277466E+00 |   0.176809E-02 |   0.540200E+01 |   0.100000E-04
   4 |   0.146955E+00 |   0.270391E+00 |   0.397352E-01 |   0.131704E-02 |   0.299738E+01 |   0.100000E-04
   5 |   0.293237E+00 |   0.189560E-01 |   0.555860E-02 |   0.862105E-03 |   0.128429E+01 |   0.100000E-04
   6 |   0.372973E+00 |   0.590224E-02 |   0.220137E-02 |   0.446913E-03 |   0.345135E+00 |   0.100000E-04
   7 |   0.326476E+00 |   0.216644E-02 |   0.707292E-03 |   0.295552E-03 |   0.150943E+00 |   0.100000E-04
   8 |   0.241026E+00 |   0.155775E-02 |   0.375459E-03 |   0.223494E-03 |   0.863127E-01 |   0.100000E-04
   9 |   0.454348E+00 |   0.484968E-03 |   0.220344E-03 |   0.132089E-03 |   0.301495E-01 |   0.100000E-04
  10 |   0.373933E+00 |   0.322926E-03 |   0.120753E-03 |   0.621696E-04 |   0.667883E-02 |   0.100000E-04
  11 |   0.325588E+00 |   0.762179E-04 |   0.248156E-04 |   0.444198E-04 |   0.340955E-02 |   0.100000E-04
  12 |   0.323527E+00 |   0.173286E-04 |   0.560628E-05 |   0.293185E-04 |   0.148535E-02 |   0.100000E-04
  13 |   0.421484E+00 |   0.408135E-05 |   0.172022E-05 |   0.181486E-04 |   0.569156E-03 |   0.100000E-04
  14 |   0.386045E+00 |   0.260956E-05 |   0.100741E-05 |   0.111886E-04 |   0.216319E-03 |   0.100000E-04
  15 |   0.418828E+00 |   0.849034E-06 |   0.355599E-06 |   0.638847E-05 |   0.705241E-04 |   0.100000E-04
  16 |   0.452679E+00 |   0.215643E-06 |   0.976171E-07 |   0.357273E-05 |   0.220569E-04 |   0.100000E-04
  17 |   0.442359E+00 |   0.733601E-07 |   0.324515E-07 |   0.183225E-05 |   0.580111E-05 |   0.100000E-04

 Charges are converged, EXIT

%%%% DENSITY %%%%%%%%%%%%%%%%%%%%%%%%%%%%%%%%%%%%%%%%%%%%%%%%%%%%%%%%%%%%%%%%%%%

 density label              = velectrostatic                                    

 integral of density        =  -0.6617258182E-12

%%%% CHARGES %%%%%%%%%%%%%%%%%%%%%%%%%%%%%%%%%%%%%%%%%%%%%%%%%%%%%%%%%%%%%%%%%%%

 total number of charges    =             34

 total charge               =     -1.0000000

%%%% DENSITY %%%%%%%%%%%%%%%%%%%%%%%%%%%%%%%%%%%%%%%%%%%%%%%%%%%%%%%%%%%%%%%%%%%

 density label              = dvtot                                             

 integral of density        =  -0.1901627004E-12

%%%% ELECTRONS %%%%%%%%%%%%%%%%%%%%%%%%%%%%%%%%%%%%%%%%%%%%%%%%%%%%%%%%%%%%%%%%%

 number of electrons        =             24

 total electronic charge    =     24.0000000

%%%% ELECTRONS %%%%%%%%%%%%%%%%%%%%%%%%%%%%%%%%%%%%%%%%%%%%%%%%%%%%%%%%%%%%%%%%%

 number of electrons        =             24

 total electronic charge    =     24.0000000

%%%% CHARGES %%%%%%%%%%%%%%%%%%%%%%%%%%%%%%%%%%%%%%%%%%%%%%%%%%%%%%%%%%%%%%%%%%%

 total number of charges    =             34

 total charge               =     -1.0000000

%%%% CHARGES %%%%%%%%%%%%%%%%%%%%%%%%%%%%%%%%%%%%%%%%%%%%%%%%%%%%%%%%%%%%%%%%%%%

 total number of charges    =             34

 total charge               =     -1.0000000

%%%% DENSITY %%%%%%%%%%%%%%%%%%%%%%%%%%%%%%%%%%%%%%%%%%%%%%%%%%%%%%%%%%%%%%%%%%%

 density label              = vreference                                        

 integral of density        =   0.1637537842E-12

%%%% COMPUTE ELECTROSTATIC POTENTIAL %%%%%%%%%%%%%%%%%%%%%%%%%%%%%%%%%%%%%%%%%%%

 Warning: Bad guess with residual norm =   0.120707E+04, reset to no guess

   i |      alpha     |       pAp      |      rzold     |    delta_qm    |    delta_en    |       tol
 ---------------------------------------------------------------------------------------------------------
   1 |   0.960638E+00 |   0.974887E+02 |   0.936513E+02 |   0.255452E-01 |   0.112762E+04 |   0.100000E-04
   2 |   0.902405E-01 |   0.400485E+03 |   0.361399E+02 |   0.372561E-02 |   0.239849E+02 |   0.100000E-04
   3 |   0.168672E+00 |   0.168648E+01 |   0.284463E+00 |   0.177112E-02 |   0.542052E+01 |   0.100000E-04
   4 |   0.146544E+00 |   0.275493E+00 |   0.403718E-01 |   0.131945E-02 |   0.300837E+01 |   0.100000E-04
   5 |   0.290808E+00 |   0.194085E-01 |   0.564415E-02 |   0.865925E-03 |   0.129570E+01 |   0.100000E-04
   6 |   0.377829E+00 |   0.582020E-02 |   0.219904E-02 |   0.446816E-03 |   0.344985E+00 |   0.100000E-04
   7 |   0.344017E+00 |   0.201482E-02 |   0.693132E-03 |   0.289948E-03 |   0.145272E+00 |   0.100000E-04
   8 |   0.255921E+00 |   0.131497E-02 |   0.336527E-03 |   0.220612E-03 |   0.841010E-01 |   0.100000E-04
   9 |   0.406813E+00 |   0.580133E-03 |   0.236006E-03 |   0.133181E-03 |   0.306498E-01 |   0.100000E-04
  10 |   0.368048E+00 |   0.336975E-03 |   0.124023E-03 |   0.624859E-04 |   0.674696E-02 |   0.100000E-04
  11 |   0.327302E+00 |   0.772244E-04 |   0.252757E-04 |   0.444376E-04 |   0.341228E-02 |   0.100000E-04
  12 |   0.326741E+00 |   0.170888E-04 |   0.558361E-05 |   0.292525E-04 |   0.147867E-02 |   0.100000E-04
  13 |   0.418792E+00 |   0.411819E-05 |   0.172467E-05 |   0.182277E-04 |   0.574125E-03 |   0.100000E-04
  14 |   0.383971E+00 |   0.264168E-05 |   0.101433E-05 |   0.111955E-04 |   0.216586E-03 |   0.100000E-04
  15 |   0.419151E+00 |   0.853676E-06 |   0.357820E-06 |   0.641857E-05 |   0.711902E-04 |   0.100000E-04
  16 |   0.454613E+00 |   0.215183E-06 |   0.978253E-07 |   0.357620E-05 |   0.220998E-04 |   0.100000E-04
  17 |   0.454188E+00 |   0.710353E-07 |   0.322634E-07 |   0.180124E-05 |   0.560643E-05 |   0.100000E-04

 Charges are converged, EXIT

%%%% DENSITY %%%%%%%%%%%%%%%%%%%%%%%%%%%%%%%%%%%%%%%%%%%%%%%%%%%%%%%%%%%%%%%%%%%

 density label              = velectrostatic                                    

 integral of density        =  -0.3868510450E-12

%%%% CHARGES %%%%%%%%%%%%%%%%%%%%%%%%%%%%%%%%%%%%%%%%%%%%%%%%%%%%%%%%%%%%%%%%%%%

 total number of charges    =             34

 total charge               =     -1.0000000

%%%% DENSITY %%%%%%%%%%%%%%%%%%%%%%%%%%%%%%%%%%%%%%%%%%%%%%%%%%%%%%%%%%%%%%%%%%%

 density label              = dvtot                                             

 integral of density        =   0.1157962615E-12

%%%% ELECTRONS %%%%%%%%%%%%%%%%%%%%%%%%%%%%%%%%%%%%%%%%%%%%%%%%%%%%%%%%%%%%%%%%%

 number of electrons        =             24

 total electronic charge    =     24.0000000

%%%% ELECTRONS %%%%%%%%%%%%%%%%%%%%%%%%%%%%%%%%%%%%%%%%%%%%%%%%%%%%%%%%%%%%%%%%%

 number of electrons        =             24

 total electronic charge    =     24.0000000

%%%% CHARGES %%%%%%%%%%%%%%%%%%%%%%%%%%%%%%%%%%%%%%%%%%%%%%%%%%%%%%%%%%%%%%%%%%%

 total number of charges    =             34

 total charge               =     -1.0000000

%%%% CHARGES %%%%%%%%%%%%%%%%%%%%%%%%%%%%%%%%%%%%%%%%%%%%%%%%%%%%%%%%%%%%%%%%%%%

 total number of charges    =             34

 total charge               =     -1.0000000

%%%% DENSITY %%%%%%%%%%%%%%%%%%%%%%%%%%%%%%%%%%%%%%%%%%%%%%%%%%%%%%%%%%%%%%%%%%%

 density label              = vreference                                        

 integral of density        =  -0.4415891521E-12

%%%% COMPUTE ELECTROSTATIC POTENTIAL %%%%%%%%%%%%%%%%%%%%%%%%%%%%%%%%%%%%%%%%%%%

 Warning: Bad guess with residual norm =   0.119968E+04, reset to no guess

   i |      alpha     |       pAp      |      rzold     |    delta_qm    |    delta_en    |       tol
 ---------------------------------------------------------------------------------------------------------
   1 |   0.960841E+00 |   0.974554E+02 |   0.936391E+02 |   0.254717E-01 |   0.112114E+04 |   0.100000E-04
   2 |   0.902468E-01 |   0.398048E+03 |   0.359226E+02 |   0.375415E-02 |   0.243538E+02 |   0.100000E-04
   3 |   0.169380E+00 |   0.170845E+01 |   0.289377E+00 |   0.177360E-02 |   0.543570E+01 |   0.100000E-04
   4 |   0.146127E+00 |   0.279653E+00 |   0.408649E-01 |   0.132064E-02 |   0.301378E+01 |   0.100000E-04
   5 |   0.289021E+00 |   0.197251E-01 |   0.570095E-02 |   0.868643E-03 |   0.130384E+01 |   0.100000E-04
   6 |   0.378878E+00 |   0.581684E-02 |   0.220387E-02 |   0.448898E-03 |   0.348208E+00 |   0.100000E-04
   7 |   0.347354E+00 |   0.200545E-02 |   0.696602E-03 |   0.289628E-03 |   0.144952E+00 |   0.100000E-04
   8 |   0.259732E+00 |   0.127404E-02 |   0.330908E-03 |   0.220430E-03 |   0.839621E-01 |   0.100000E-04
   9 |   0.397323E+00 |   0.603109E-03 |   0.239629E-03 |   0.133798E-03 |   0.309345E-01 |   0.100000E-04
  10 |   0.368207E+00 |   0.339816E-03 |   0.125123E-03 |   0.626971E-04 |   0.679265E-02 |   0.100000E-04
  11 |   0.327860E+00 |   0.779209E-04 |   0.255472E-04 |   0.444994E-04 |   0.342179E-02 |   0.100000E-04
  12 |   0.327668E+00 |   0.170666E-04 |   0.559218E-05 |   0.292401E-04 |   0.147741E-02 |   0.100000E-04
  13 |   0.419420E+00 |   0.411303E-05 |   0.172509E-05 |   0.182619E-04 |   0.576281E-03 |   0.100000E-04
  14 |   0.381893E+00 |   0.266384E-05 |   0.101730E-05 |   0.112217E-04 |   0.217599E-03 |   0.100000E-04
  15 |   0.417581E+00 |   0.865622E-06 |   0.361467E-06 |   0.643952E-05 |   0.716558E-04 |   0.100000E-04
  16 |   0.453515E+00 |   0.217781E-06 |   0.987672E-07 |   0.359583E-05 |   0.223431E-04 |   0.100000E-04
  17 |   0.452214E+00 |   0.720284E-07 |   0.325723E-07 |   0.181549E-05 |   0.569549E-05 |   0.100000E-04

 Charges are converged, EXIT

%%%% DENSITY %%%%%%%%%%%%%%%%%%%%%%%%%%%%%%%%%%%%%%%%%%%%%%%%%%%%%%%%%%%%%%%%%%%

 density label              = velectrostatic                                    

 integral of density        =  -0.3394815293E-13

%%%% CHARGES %%%%%%%%%%%%%%%%%%%%%%%%%%%%%%%%%%%%%%%%%%%%%%%%%%%%%%%%%%%%%%%%%%%

 total number of charges    =             34

 total charge               =     -1.0000000

%%%% DENSITY %%%%%%%%%%%%%%%%%%%%%%%%%%%%%%%%%%%%%%%%%%%%%%%%%%%%%%%%%%%%%%%%%%%

 density label              = dvtot                                             

 integral of density        =  -0.2154655055E-14

%%%% ELECTRONS %%%%%%%%%%%%%%%%%%%%%%%%%%%%%%%%%%%%%%%%%%%%%%%%%%%%%%%%%%%%%%%%%

 number of electrons        =             24

 total electronic charge    =     24.0000000

%%%% ELECTRONS %%%%%%%%%%%%%%%%%%%%%%%%%%%%%%%%%%%%%%%%%%%%%%%%%%%%%%%%%%%%%%%%%

 number of electrons        =             24

 total electronic charge    =     24.0000000

%%%% CHARGES %%%%%%%%%%%%%%%%%%%%%%%%%%%%%%%%%%%%%%%%%%%%%%%%%%%%%%%%%%%%%%%%%%%

 total number of charges    =             34

 total charge               =     -1.0000000

%%%% CHARGES %%%%%%%%%%%%%%%%%%%%%%%%%%%%%%%%%%%%%%%%%%%%%%%%%%%%%%%%%%%%%%%%%%%

 total number of charges    =             34

 total charge               =     -1.0000000

%%%% DENSITY %%%%%%%%%%%%%%%%%%%%%%%%%%%%%%%%%%%%%%%%%%%%%%%%%%%%%%%%%%%%%%%%%%%

 density label              = vreference                                        

 integral of density        =  -0.7728468071E-12

%%%% COMPUTE ELECTROSTATIC POTENTIAL %%%%%%%%%%%%%%%%%%%%%%%%%%%%%%%%%%%%%%%%%%%

 Warning: Bad guess with residual norm =   0.119520E+04, reset to no guess

   i |      alpha     |       pAp      |      rzold     |    delta_qm    |    delta_en    |       tol
 ---------------------------------------------------------------------------------------------------------
   1 |   0.960986E+00 |   0.974662E+02 |   0.936636E+02 |   0.254273E-01 |   0.111724E+04 |   0.100000E-04
   2 |   0.902441E-01 |   0.396633E+03 |   0.357938E+02 |   0.375961E-02 |   0.244248E+02 |   0.100000E-04
   3 |   0.169489E+00 |   0.171229E+01 |   0.290214E+00 |   0.177403E-02 |   0.543830E+01 |   0.100000E-04
   4 |   0.146042E+00 |   0.280975E+00 |   0.410342E-01 |   0.132024E-02 |   0.301198E+01 |   0.100000E-04
   5 |   0.288848E+00 |   0.197461E-01 |   0.570361E-02 |   0.868897E-03 |   0.130461E+01 |   0.100000E-04
   6 |   0.378492E+00 |   0.582287E-02 |   0.220391E-02 |   0.449868E-03 |   0.349714E+00 |   0.100000E-04
   7 |   0.344441E+00 |   0.203682E-02 |   0.701566E-03 |   0.291016E-03 |   0.146345E+00 |   0.100000E-04
   8 |   0.254960E+00 |   0.133201E-02 |   0.339609E-03 |   0.221532E-03 |   0.848040E-01 |   0.100000E-04
   9 |   0.407007E+00 |   0.581279E-03 |   0.236584E-03 |   0.133968E-03 |   0.310131E-01 |   0.100000E-04
  10 |   0.370179E+00 |   0.337399E-03 |   0.124898E-03 |   0.627230E-04 |   0.679825E-02 |   0.100000E-04
  11 |   0.327919E+00 |   0.780255E-04 |   0.255860E-04 |   0.445161E-04 |   0.342435E-02 |   0.100000E-04
  12 |   0.327688E+00 |   0.170784E-04 |   0.559637E-05 |   0.292403E-04 |   0.147744E-02 |   0.100000E-04
  13 |   0.419859E+00 |   0.410740E-05 |   0.172453E-05 |   0.182653E-04 |   0.576495E-03 |   0.100000E-04
  14 |   0.381451E+00 |   0.266704E-05 |   0.101734E-05 |   0.112285E-04 |   0.217866E-03 |   0.100000E-04
  15 |   0.416796E+00 |   0.870355E-06 |   0.362760E-06 |   0.644235E-05 |   0.717187E-04 |   0.100000E-04
  16 |   0.451441E+00 |   0.219694E-06 |   0.991790E-07 |   0.361034E-05 |   0.225237E-04 |   0.100000E-04
  17 |   0.434003E+00 |   0.765948E-07 |   0.332424E-07 |   0.186971E-05 |   0.604074E-05 |   0.100000E-04

 Charges are converged, EXIT

%%%% DENSITY %%%%%%%%%%%%%%%%%%%%%%%%%%%%%%%%%%%%%%%%%%%%%%%%%%%%%%%%%%%%%%%%%%%

 density label              = velectrostatic                                    

 integral of density        =   0.4036277485E-12

%%%% CHARGES %%%%%%%%%%%%%%%%%%%%%%%%%%%%%%%%%%%%%%%%%%%%%%%%%%%%%%%%%%%%%%%%%%%

 total number of charges    =             34

 total charge               =     -1.0000000

%%%% DENSITY %%%%%%%%%%%%%%%%%%%%%%%%%%%%%%%%%%%%%%%%%%%%%%%%%%%%%%%%%%%%%%%%%%%

 density label              = dvtot                                             

 integral of density        =   0.8440018232E-12

%%%% ELECTRONS %%%%%%%%%%%%%%%%%%%%%%%%%%%%%%%%%%%%%%%%%%%%%%%%%%%%%%%%%%%%%%%%%

 number of electrons        =             24

 total electronic charge    =     24.0000000

%%%% ELECTRONS %%%%%%%%%%%%%%%%%%%%%%%%%%%%%%%%%%%%%%%%%%%%%%%%%%%%%%%%%%%%%%%%%

 number of electrons        =             24

 total electronic charge    =     24.0000000

%%%% CHARGES %%%%%%%%%%%%%%%%%%%%%%%%%%%%%%%%%%%%%%%%%%%%%%%%%%%%%%%%%%%%%%%%%%%

 total number of charges    =             34

 total charge               =     -1.0000000

%%%% CHARGES %%%%%%%%%%%%%%%%%%%%%%%%%%%%%%%%%%%%%%%%%%%%%%%%%%%%%%%%%%%%%%%%%%%

 total number of charges    =             34

 total charge               =     -1.0000000

%%%% DENSITY %%%%%%%%%%%%%%%%%%%%%%%%%%%%%%%%%%%%%%%%%%%%%%%%%%%%%%%%%%%%%%%%%%%

 density label              = dvtot                                             

 integral of density        =   0.8440018232E-12

%%%% DENSITY %%%%%%%%%%%%%%%%%%%%%%%%%%%%%%%%%%%%%%%%%%%%%%%%%%%%%%%%%%%%%%%%%%%

 density label              = vreference                                        

 integral of density        =  -0.7728468071E-12

%%%% DENSITY %%%%%%%%%%%%%%%%%%%%%%%%%%%%%%%%%%%%%%%%%%%%%%%%%%%%%%%%%%%%%%%%%%%

 density label              = velectrostatic                                    

 integral of density        =   0.4036277485E-12

%%%% CHARGES %%%%%%%%%%%%%%%%%%%%%%%%%%%%%%%%%%%%%%%%%%%%%%%%%%%%%%%%%%%%%%%%%%%

 total number of charges    =             34

 total charge               =     -1.0000000
