
     Program PWSCF v.6.1 (svn rev. 13547M) starts on 21Jul2017 at 18:20:22 

     This program is part of the open-source Quantum ESPRESSO suite
     for quantum simulation of materials; please cite
         "P. Giannozzi et al., J. Phys.:Condens. Matter 21 395502 (2009);
          URL http://www.quantum-espresso.org", 
     in publications or presentations arising from this work. More details at
     http://www.quantum-espresso.org/quote

     Serial version
     Reading input from pw.in

     Current dimensions of program PWSCF are:
     Max number of different atomic species (ntypx) = 10
     Max number of k-points (npk) =  40000
     Max angular momentum in pseudopotentials (lmaxx) =  3
               file H.pbe-rrkjus.UPF: wavefunction(s)  1S renormalized
               file O.pbe-rrkjus.UPF: wavefunction(s)  2S renormalized

     gamma-point specific algorithms are used

     G-vector sticks info
     --------------------
     sticks:   dense  smooth     PW     G-vecs:    dense   smooth      PW
     Sum        9549    3809    949               701475   177509   22119



     bravais-lattice index     =            1
     lattice parameter (alat)  =      20.0000  a.u.
     unit-cell volume          =    8000.0000 (a.u.)^3
     number of atoms/cell      =            3
     number of atomic types    =            2
     number of electrons       =         8.00
     number of Kohn-Sham states=            4
     kinetic-energy cutoff     =      30.0000  Ry
     charge density cutoff     =     300.0000  Ry
     convergence threshold     =      5.0E-03
     mixing beta               =       0.7000
     number of iterations used =            8  plain     mixing
     Exchange-correlation      =  SLA  PW   PBE  PBE ( 1  4  3  4 0 0)


     Environ Module
     ==============

     Plese cite
         O. Andreussi, I. Dabo and N. Marzari, J. Chem. Phys. 136, 064102 (2012)         
     in publications or presentations arising from this work.

     compensation onset threshold      =               0.1000E+03 
     static permittivity               =                   100.00 
     epsilon calculation mode          =                    ionic 

     Electrostatic Setup
     -------------------
     electrostatic problem to solve    = generalized              
     numerical solver adopted          = cg                       
     type of auxiliary density adopted = none                     
     required accuracy on potential    =                   0.0001 
     required accuracy on aux. charge  =                   0.0000 
     type of core tool for poisson     = fft                      
     type of core tool for s(r) deriv  = analytic                 



     celldm(1)=  20.000000  celldm(2)=   0.000000  celldm(3)=   0.000000
     celldm(4)=   0.000000  celldm(5)=   0.000000  celldm(6)=   0.000000

     crystal axes: (cart. coord. in units of alat)
               a(1) = (   1.000000   0.000000   0.000000 )  
               a(2) = (   0.000000   1.000000   0.000000 )  
               a(3) = (   0.000000   0.000000   1.000000 )  

     reciprocal axes: (cart. coord. in units 2 pi/alat)
               b(1) = (  1.000000  0.000000  0.000000 )  
               b(2) = (  0.000000  1.000000  0.000000 )  
               b(3) = (  0.000000  0.000000  1.000000 )  


     PseudoPot. # 1 for H  read from file:
     /Users/oliviero/PWSCF/espresso/Environ/tests/../..//pseudo/H.pbe-rrkjus.UPF
     MD5 check sum: 7cc9d459525c9a0585f487a71c3c9563
     Pseudo is Ultrasoft, Zval =  1.0
     Generated by new atomic code, or converted to UPF format
     Using radial grid of 1061 points,  2 beta functions with: 
                l(1) =   0
                l(2) =   0
     Q(r) pseudized with 0 coefficients 


     PseudoPot. # 2 for O  read from file:
     /Users/oliviero/PWSCF/espresso/Environ/tests/../..//pseudo/O.pbe-rrkjus.UPF
     MD5 check sum: 390ba29e75625707450f3bd3f0eb6be9
     Pseudo is Ultrasoft, Zval =  6.0
     Generated by new atomic code, or converted to UPF format
     Using radial grid of 1269 points,  4 beta functions with: 
                l(1) =   0
                l(2) =   0
                l(3) =   1
                l(4) =   1
     Q(r) pseudized with 0 coefficients 


     atomic species   valence    mass     pseudopotential
        H              1.00     1.00000     H ( 1.00)
        O              6.00    16.00000     O ( 1.00)

     No symmetry found



   Cartesian axes

     site n.     atom                  positions (alat units)
         1           O   tau(   1) = (   0.5895000   0.6025000   0.5750000  )
         2           H   tau(   2) = (   0.6725000   0.5610000   0.5750000  )
         3           H   tau(   3) = (   0.5280000   0.5330000   0.5750000  )

     number of k points=     1
                       cart. coord. in units 2pi/alat
        k(    1) = (   0.0000000   0.0000000   0.0000000), wk =   2.0000000

     Dense  grid:   350738 G-vectors     FFT dimensions: ( 120, 120, 120)

     Smooth grid:    88755 G-vectors     FFT dimensions: (  72,  72,  72)

     Estimated max dynamical RAM per process >     506.03MB

     Initial potential from superposition of free atoms
     Check: negative starting charge=   -0.000775

     starting charge    7.80759, renormalised to    8.00000

     negative rho (up, down):  7.936E-04 0.000E+00
     Starting wfc are    6 randomized atomic wfcs

     total cpu time spent up to now is       37.1 secs

     Self-consistent Calculation

     iteration #  1     ecut=    30.00 Ry     beta= 0.70
     Davidson diagonalization with overlap
     ethr =  1.00E-02,  avg # of iterations =  2.0

     negative rho (up, down):  2.595E-04 0.000E+00

     add environment contribution to local potential
     polarization accuracy = 5.5E-06, # of iterations =  11

     total cpu time spent up to now is       44.9 secs

     total energy              =     -34.06236055 Ry
     Harris-Foulkes estimate   =     -34.58697711 Ry
     estimated scf accuracy    <       0.68458994 Ry
     electrostatic embedding   =       0.00000000 Ry
     correction to one-el term =       0.00000000 Ry

     iteration #  2     ecut=    30.00 Ry     beta= 0.70
     Davidson diagonalization with overlap
     ethr =  8.56E-03,  avg # of iterations =  2.0

     negative rho (up, down):  2.758E-03 0.000E+00

     add environment contribution to local potential
     polarization accuracy = 9.0E-05, # of iterations =  10

     total cpu time spent up to now is       52.9 secs

     total energy              =     -34.21925538 Ry
     Harris-Foulkes estimate   =     -33.96128144 Ry
     estimated scf accuracy    <       0.37523333 Ry
     electrostatic embedding   =      -0.04577431 Ry
     correction to one-el term =      -0.40487701 Ry

     iteration #  3     ecut=    30.00 Ry     beta= 0.70
     Davidson diagonalization with overlap
     ethr =  4.69E-03,  avg # of iterations =  2.0

     negative rho (up, down):  2.251E-04 0.000E+00

     add environment contribution to local potential
     polarization accuracy = 8.5E-05, # of iterations =  10

     total cpu time spent up to now is       60.5 secs

     total energy              =     -34.30047384 Ry
     Harris-Foulkes estimate   =     -33.95075872 Ry
     estimated scf accuracy    <       0.01712556 Ry
     electrostatic embedding   =      -0.04298122 Ry
     correction to one-el term =      -0.31629041 Ry

     iteration #  4     ecut=    30.00 Ry     beta= 0.70
     Davidson diagonalization with overlap
     ethr =  2.14E-04,  avg # of iterations =  2.0

     negative rho (up, down):  2.169E-04 0.000E+00

     total cpu time spent up to now is       64.0 secs

     End of self-consistent calculation

          k = 0.0000 0.0000 0.0000 ( 11060 PWs)   bands (ev):

   -24.8448 -12.5878  -9.1894  -7.2037

     highest occupied level (ev):    -7.2037

!    total energy              =     -34.30871550 Ry
     Harris-Foulkes estimate   =     -34.30302025 Ry
     estimated scf accuracy    <       0.00017597 Ry

     The total energy is the sum of the following terms:

     one-electron contribution =     -63.92599360 Ry
     hartree contribution      =      33.46109608 Ry
     xc contribution           =      -8.39545661 Ry
     ewald contribution        =       4.55735774 Ry
     electrostatic embedding   =      -0.04697263 Ry
     correction to one-el term =       0.04125352 Ry

     convergence has been achieved in   4 iterations

     Forces acting on atoms (cartesian axes, Ry/au):

     atom    1 type  2   force =     0.00019273   -0.00149695   -0.00000116
     atom    2 type  1   force =    -0.00361570    0.00003354    0.00000035
     atom    3 type  1   force =     0.00342297    0.00146340    0.00000081

     Total force =     0.005405     Total SCF correction =     0.031214
     SCF correction compared to forces is large: reduce conv_thr to get better values

     Writing output data file pwscf.save

     init_run     :     36.10s CPU     36.96s WALL (       1 calls)
     electrons    :     25.08s CPU     27.01s WALL (       1 calls)
     forces       :     25.56s CPU     26.03s WALL (       1 calls)

     Called by init_run:
     wfcinit      :      0.09s CPU      0.10s WALL (       1 calls)
     potinit      :      2.16s CPU      2.26s WALL (       1 calls)

     Called by electrons:
     c_bands      :      0.67s CPU      0.68s WALL (       4 calls)
     sum_band     :      4.23s CPU      4.29s WALL (       4 calls)
     v_of_rho     :      7.43s CPU      7.91s WALL (       5 calls)
     newd         :      2.44s CPU      2.95s WALL (       5 calls)
     mix_rho      :      0.58s CPU      0.65s WALL (       4 calls)

     Called by c_bands:
     init_us_2    :      0.07s CPU      0.09s WALL (       9 calls)
     regterg      :      0.58s CPU      0.57s WALL (       4 calls)

     Called by sum_band:
     sum_band:bec :      0.00s CPU      0.00s WALL (       4 calls)
     addusdens    :      3.07s CPU      3.11s WALL (       4 calls)

     Called by *egterg:
     h_psi        :      0.59s CPU      0.59s WALL (      13 calls)
     s_psi        :      0.01s CPU      0.01s WALL (      13 calls)
     g_psi        :      0.01s CPU      0.01s WALL (       8 calls)
     rdiaghg      :      0.00s CPU      0.00s WALL (      12 calls)

     Called by h_psi:
     h_psi:pot    :      0.58s CPU      0.57s WALL (      13 calls)
     h_psi:calbec :      0.01s CPU      0.01s WALL (      13 calls)
     vloc_psi     :      0.56s CPU      0.56s WALL (      13 calls)
     add_vuspsi   :      0.01s CPU      0.01s WALL (      13 calls)

     General routines
     calbec       :      0.01s CPU      0.01s WALL (      21 calls)
     fft          :      9.65s CPU      9.70s WALL (     159 calls)
     ffts         :      0.09s CPU      0.09s WALL (       9 calls)
     fftw         :      0.39s CPU      0.39s WALL (      62 calls)
     interpolate  :      0.75s CPU      0.82s WALL (       9 calls)


     Environ routines
     calc_eelect  :      0.41s CPU      0.42s WALL (       8 calls)
     calc_velect  :     10.36s CPU     11.22s WALL (       6 calls)
     dielectric   :      0.43s CPU      0.48s WALL (       2 calls)

     PWSCF        :  1m27.01s CPU     1m30.44s WALL


   This run was terminated on:  18:21:53  21Jul2017            

=------------------------------------------------------------------------------=
   JOB DONE.
=------------------------------------------------------------------------------=

%%%% IONS %%%%%%%%%%%%%%%%%%%%%%%%%%%%%%%%%%%%%%%%%%%%%%%%%%%%%%%%%%%%%%%%%%%%%%
 number of ions             =          3
 total ionic charge         =     -8.0000000
 ionic center of charge     =      0.5921875     0.5886250     0.5750000
 ion   1 type =  2 coordinates =      0.5895000     0.6025000     0.5750000
 ion   2 type =  1 coordinates =      0.6725000     0.5610000     0.5750000
 ion   3 type =  1 coordinates =      0.5280000     0.5330000     0.5750000

%%%% SYSTEM %%%%%%%%%%%%%%%%%%%%%%%%%%%%%%%%%%%%%%%%%%%%%%%%%%%%%%%%%%%%%%%%%%%%
 system is built from all present ionic types
 system defined dimension   =  0 
 system defined axis        =  3 
 system center              =      0.5921875     0.5886250     0.5750000 
 system width               =      0.1209428 

%%%% BOUNDARY %%%%%%%%%%%%%%%%%%%%%%%%%%%%%%%%%%%%%%%%%%%%%%%%%%%%%%%%%%%%%%%%%%
 boundary mode              = ionic                
 boundary is built from soft-spheres centered on ionic positions
 solvent-dependent scaling  =      1.0000000 
 softness parameter         =      0.5000000 

%%%% DIELECTRIC %%%%%%%%%%%%%%%%%%%%%%%%%%%%%%%%%%%%%%%%%%%%%%%%%%%%%%%%%%%%%%%%%
 dielectric build on homogeneous background
 environment bulk permitt.  =    100.0000000 
 dielectric flags
 need gradient              =  F 
 need factor depend. sqrt   =  T 
 need gradient of logarithm =  T 

%%%% ELECTRONS %%%%%%%%%%%%%%%%%%%%%%%%%%%%%%%%%%%%%%%%%%%%%%%%%%%%%%%%%%%%%%%%%
 number of electrons        =          8
 total electronic charge    =      8.0000000
 number of spin components  =  1

%%%% COMPUTE ELECTROSTATIC POTENTIAL %%%%%%%%%%%%%%%%%%%%%%%%%%%%%%%%%%%%%%%%%%%
 Iteration #          1
  pAp =  27.173815101752453  rzold =  26.174768537649385  alpha =  0.9632349539303873
 delta_qm =   0.129966E-01 delta_en =   0.291878E+03 tol =   0.100000E-03
 Iteration #          2
  pAp =  74.96110531167402  rzold =  7.632238012758087  alpha =  0.1018159748448838
 delta_qm =   0.339747E-02 delta_en =   0.199460E+02 tol =   0.100000E-03
 Iteration #          3
  pAp =  2.0708113446491816  rzold =  0.33946563566615107  alpha =  0.16392880816656927
 delta_qm =   0.915432E-03 delta_en =   0.144809E+01 tol =   0.100000E-03
 Iteration #          4
  pAp =  0.0407742479297456  rzold =  0.009745076770116622  alpha =  0.23900077291204677
 delta_qm =   0.516273E-03 delta_en =   0.460578E+00 tol =   0.100000E-03
 Iteration #          5
  pAp =  0.0012833713842472397  rzold =  0.0007972917483075843  alpha =  0.6212478773439655
 delta_qm =   0.129595E-03 delta_en =   0.290214E-01 tol =   0.100000E-03
 Iteration #          6
  pAp =  0.000301604280969604  rzold =  0.00010461242366683221  alpha =  0.3468532453535537
 delta_qm =   0.747084E-04 delta_en =   0.964457E-02 tol =   0.100000E-03
 Iteration #          7
  pAp =  0.0000159774723394307  rzold =  0.000010540696772773496  alpha =  0.6597224234749685
 delta_qm =   0.462189E-04 delta_en =   0.369134E-02 tol =   0.100000E-03
 Iteration #          8
  pAp =  0.000009527966890209108  rzold =  0.0000063286290088899056  alpha =  0.664216100015332
 delta_qm =   0.221767E-04 delta_en =   0.849840E-03 tol =   0.100000E-03
 Iteration #          9
  pAp =  0.000008200273788288037  rzold =  0.0000021740808171519753  alpha =  0.26512295482829923
 delta_qm =   0.154924E-04 delta_en =   0.414744E-03 tol =   0.100000E-03
 Iteration #         10
  pAp =  0.0000023517441387643423  rzold =  7.839772733981043E-7  alpha =  0.33335993506930695
 delta_qm =   0.827136E-05 delta_en =   0.118222E-03 tol =   0.100000E-03
 Iteration #         11
  pAp =  2.1610291313158555E-7  rzold =  1.3166974876975885E-7  alpha =  0.6092918733103095
 delta_qm =   0.178427E-05 delta_en =   0.550130E-05 tol =   0.100000E-03
 Charges are converged, exit!

%%%% ELECTRONS %%%%%%%%%%%%%%%%%%%%%%%%%%%%%%%%%%%%%%%%%%%%%%%%%%%%%%%%%%%%%%%%%
 number of electrons        =          8
 total electronic charge    =      8.0000000
 number of spin components  =  1

%%%% COMPUTE ELECTROSTATIC POTENTIAL %%%%%%%%%%%%%%%%%%%%%%%%%%%%%%%%%%%%%%%%%%%
 Warning: bad guess with residual norm =   0.288175E+01, reset to no guess
 Iteration #          1
  pAp =  29.538622191369047  rzold =  28.59321306317175  alpha =  0.967994135878364
 delta_qm =   0.126986E-01 delta_en =   0.278649E+03 tol =   0.100000E-03
 Iteration #          2
  pAp =  78.5231859386493  rzold =  7.72729684454811  alpha =  0.09840783651577126
 delta_qm =   0.297380E-02 delta_en =   0.152816E+02 tol =   0.100000E-03
 Iteration #          3
  pAp =  1.3770105494364657  rzold =  0.2350819556714854  alpha =  0.17071906658063837
 delta_qm =   0.869531E-03 delta_en =   0.130651E+01 tol =   0.100000E-03
 Iteration #          4
  pAp =  0.030821725969916468  rzold =  0.00745063642951697  alpha =  0.2417332642821223
 delta_qm =   0.520715E-03 delta_en =   0.468538E+00 tol =   0.100000E-03
 Iteration #          5
  pAp =  0.001158600434560049  rzold =  0.0007325855096351278  alpha =  0.6323021188174418
 delta_qm =   0.132454E-03 delta_en =   0.303162E-01 tol =   0.100000E-03
 Iteration #          6
  pAp =  0.0002457091070251827  rzold =  0.00008581517727517847  alpha =  0.34925517541514356
 delta_qm =   0.864506E-04 delta_en =   0.129146E-01 tol =   0.100000E-03
 Iteration #          7
  pAp =  0.000015629139590554467  rzold =  0.000013296038003683199  alpha =  0.8507210474797162
 delta_qm =   0.471310E-04 delta_en =   0.383846E-02 tol =   0.100000E-03
 Iteration #          8
  pAp =  0.000017300412944669226  rzold =  0.000009184561192601103  alpha =  0.5308868188277055
 delta_qm =   0.223685E-04 delta_en =   0.864607E-03 tol =   0.100000E-03
 Iteration #          9
  pAp =  0.000008599535407582773  rzold =  0.000002068430397958531  alpha =  0.24052815645536624
 delta_qm =   0.158733E-04 delta_en =   0.435392E-03 tol =   0.100000E-03
 Iteration #         10
  pAp =  0.000001699970884871269  rzold =  6.695386596648099E-7  alpha =  0.3938530157329788
 delta_qm =   0.722829E-05 delta_en =   0.902849E-04 tol =   0.100000E-03
 Charges are converged, exit!

%%%% ELECTRONS %%%%%%%%%%%%%%%%%%%%%%%%%%%%%%%%%%%%%%%%%%%%%%%%%%%%%%%%%%%%%%%%%
 number of electrons        =          8
 total electronic charge    =      8.0000000
 number of spin components  =  1

%%%% COMPUTE ELECTROSTATIC POTENTIAL %%%%%%%%%%%%%%%%%%%%%%%%%%%%%%%%%%%%%%%%%%%
 Warning: bad guess with residual norm =   0.195524E+02, reset to no guess
 Iteration #          1
  pAp =  29.132693841235373  rzold =  28.445498325700157  alpha =  0.9764115354632075
 delta_qm =   0.107673E-01 delta_en =   0.200336E+03 tol =   0.100000E-03
 Iteration #          2
  pAp =  46.99363814105198  rzold =  4.958696734141473  alpha =  0.10551846867565103
 delta_qm =   0.329109E-02 delta_en =   0.187164E+02 tol =   0.100000E-03
 Iteration #          3
  pAp =  2.0223559150234625  rzold =  0.316439327780908  alpha =  0.1564706417056351
 delta_qm =   0.863320E-03 delta_en =   0.128792E+01 tol =   0.100000E-03
 Iteration #          4
  pAp =  0.038823001884609416  rzold =  0.009088184593712944  alpha =  0.2340927839821621
 delta_qm =   0.488125E-03 delta_en =   0.411724E+00 tol =   0.100000E-03
 Iteration #          5
  pAp =  0.0010087240925214023  rzold =  0.0006528955939705076  alpha =  0.6472489343825749
 delta_qm =   0.136403E-03 delta_en =   0.321507E-01 tol =   0.100000E-03
 Iteration #          6
  pAp =  0.00025894883721894803  rzold =  0.0000916153293403219  alpha =  0.3537970292674407
 delta_qm =   0.893257E-04 delta_en =   0.137878E-01 tol =   0.100000E-03
 Iteration #          7
  pAp =  0.000017498633264590615  rzold =  0.000013663234049092152  alpha =  0.7808172125499887
 delta_qm =   0.495817E-04 delta_en =   0.424803E-02 tol =   0.100000E-03
 Iteration #          8
  pAp =  0.000017748393824481744  rzold =  0.00000949962425547273  alpha =  0.5352385319717865
 delta_qm =   0.230812E-04 delta_en =   0.920575E-03 tol =   0.100000E-03
 Iteration #          9
  pAp =  0.00001940674423443898  rzold =  0.000003957782206520066  alpha =  0.20393849471652398
 delta_qm =   0.159642E-04 delta_en =   0.440389E-03 tol =   0.100000E-03
 Iteration #         10
  pAp =  0.0000010388106723468357  rzold =  5.247290611104908E-7  alpha =  0.5051248269572027
 delta_qm =   0.700559E-05 delta_en =   0.848072E-04 tol =   0.100000E-03
 Charges are converged, exit!

%%%% ELECTRONS %%%%%%%%%%%%%%%%%%%%%%%%%%%%%%%%%%%%%%%%%%%%%%%%%%%%%%%%%%%%%%%%%
 number of electrons        =          8
 total electronic charge    =      8.0000000
 number of spin components  =  1
