
     Program PWSCF v.6.1 (svn rev. 13369) starts on 31Jan2018 at 21:57:56 

     This program is part of the open-source Quantum ESPRESSO suite
     for quantum simulation of materials; please cite
         "P. Giannozzi et al., J. Phys.:Condens. Matter 21 395502 (2009);
          URL http://www.quantum-espresso.org", 
     in publications or presentations arising from this work. More details at
     http://www.quantum-espresso.org/quote

     Parallel version (MPI), running on     1 processors
     Reading input from neutral.in

     Current dimensions of program PWSCF are:
     Max number of different atomic species (ntypx) = 10
     Max number of k-points (npk) =  40000
     Max angular momentum in pseudopotentials (lmaxx) =  3
               file H.pbe-rrkjus.UPF: wavefunction(s)  1S renormalized
               file O.pbe-rrkjus.UPF: wavefunction(s)  2S renormalized

     gamma-point specific algorithms are used

     Subspace diagonalization in iterative solution of the eigenvalue problem:
     a serial algorithm will be used

 
     G-vector sticks info
     --------------------
     sticks:   dense  smooth     PW     G-vecs:    dense   smooth      PW
     Sum        9549    3809    949               701475   177509   22119
 


     bravais-lattice index     =            1
     lattice parameter (alat)  =      20.0000  a.u.
     unit-cell volume          =    8000.0000 (a.u.)^3
     number of atoms/cell      =            3
     number of atomic types    =            2
     number of electrons       =         8.00
     number of Kohn-Sham states=            4
     kinetic-energy cutoff     =      30.0000  Ry
     charge density cutoff     =     300.0000  Ry
     convergence threshold     =      5.0E-03
     mixing beta               =       0.7000
     number of iterations used =            8  plain     mixing
     Exchange-correlation      =  SLA  PW   PBE  PBE ( 1  4  3  4 0 0)
 

     Environ Module
     ==============

     Plese cite
         O. Andreussi, I. Dabo and N. Marzari, J. Chem. Phys. 136, 064102 (2012)         
     in publications or presentations arising from this work.

     compensation onset threshold      =               0.1000E+03 
     static permittivity               =                   100.00 
     epsilon calculation mode          =               electronic 

     Electrostatic Setup
     -------------------
     electrostatic problem to solve    = generalized              
     numerical solver adopted          = cg                       
     type of auxiliary density adopted = none                     
     type of core tool for poisson     = fft                      
     type of core tool for s(r) deriv  = analytic                 



     celldm(1)=  20.000000  celldm(2)=   0.000000  celldm(3)=   0.000000
     celldm(4)=   0.000000  celldm(5)=   0.000000  celldm(6)=   0.000000

     crystal axes: (cart. coord. in units of alat)
               a(1) = (   1.000000   0.000000   0.000000 )  
               a(2) = (   0.000000   1.000000   0.000000 )  
               a(3) = (   0.000000   0.000000   1.000000 )  

     reciprocal axes: (cart. coord. in units 2 pi/alat)
               b(1) = (  1.000000  0.000000  0.000000 )  
               b(2) = (  0.000000  1.000000  0.000000 )  
               b(3) = (  0.000000  0.000000  1.000000 )  


     PseudoPot. # 1 for H  read from file:
     /home/fnattino/Programs/qe-6.1/Environ/tests/../..//pseudo/H.pbe-rrkjus.UPF
     MD5 check sum: 7cc9d459525c9a0585f487a71c3c9563
     Pseudo is Ultrasoft, Zval =  1.0
     Generated by new atomic code, or converted to UPF format
     Using radial grid of 1061 points,  2 beta functions with: 
                l(1) =   0
                l(2) =   0
     Q(r) pseudized with 0 coefficients 


     PseudoPot. # 2 for O  read from file:
     /home/fnattino/Programs/qe-6.1/Environ/tests/../..//pseudo/O.pbe-rrkjus.UPF
     MD5 check sum: 390ba29e75625707450f3bd3f0eb6be9
     Pseudo is Ultrasoft, Zval =  6.0
     Generated by new atomic code, or converted to UPF format
     Using radial grid of 1269 points,  4 beta functions with: 
                l(1) =   0
                l(2) =   0
                l(3) =   1
                l(4) =   1
     Q(r) pseudized with 0 coefficients 


     atomic species   valence    mass     pseudopotential
        H              1.00     1.00000     H ( 1.00)
        O              6.00    16.00000     O ( 1.00)

     No symmetry found



   Cartesian axes

     site n.     atom                  positions (alat units)
         1           O   tau(   1) = (   0.5895000   0.6025000   0.5750000  )
         2           H   tau(   2) = (   0.6725000   0.5610000   0.5750000  )
         3           H   tau(   3) = (   0.5280000   0.5330000   0.5750000  )

     number of k points=     1
                       cart. coord. in units 2pi/alat
        k(    1) = (   0.0000000   0.0000000   0.0000000), wk =   2.0000000

     Dense  grid:   350738 G-vectors     FFT dimensions: ( 120, 120, 120)

     Smooth grid:    88755 G-vectors     FFT dimensions: (  72,  72,  72)

     Estimated max dynamical RAM per process >     270.62MB

     Initial potential from superposition of free atoms
     Check: negative starting charge=   -0.000775

     starting charge    7.80759, renormalised to    8.00000

     negative rho (up, down):  7.936E-04 0.000E+00
     Starting wfc are    6 randomized atomic wfcs

     total cpu time spent up to now is        2.7 secs

     per-process dynamical memory:   585.9 Mb

     Self-consistent Calculation

     iteration #  1     ecut=    30.00 Ry     beta=0.70
     Davidson diagonalization with overlap
     ethr =  1.00E-02,  avg # of iterations =  2.0

     negative rho (up, down):  2.595E-04 0.000E+00

     add environment contribution to local potential
     polarization accuracy = 2.3E-06, # of iterations =  11

     total cpu time spent up to now is        5.6 secs

     total energy              =     -34.06236055 Ry
     Harris-Foulkes estimate   =     -34.58697711 Ry
     estimated scf accuracy    <       0.68458994 Ry
     electrostatic embedding   =       0.00000000 Ry
     correction to one-el term =       0.00000000 Ry

     iteration #  2     ecut=    30.00 Ry     beta=0.70
     Davidson diagonalization with overlap
     ethr =  8.56E-03,  avg # of iterations =  2.0

     negative rho (up, down):  2.656E-03 0.000E+00

     add environment contribution to local potential
     polarization accuracy = 5.4E-06, # of iterations =  12

     total cpu time spent up to now is        8.8 secs

     total energy              =     -34.20821800 Ry
     Harris-Foulkes estimate   =     -33.94013142 Ry
     estimated scf accuracy    <       0.35519133 Ry
     electrostatic embedding   =      -0.03785646 Ry
     correction to one-el term =      -0.41330099 Ry

     iteration #  3     ecut=    30.00 Ry     beta=0.70
     Davidson diagonalization with overlap
     ethr =  4.44E-03,  avg # of iterations =  2.0

     negative rho (up, down):  2.205E-04 0.000E+00

     add environment contribution to local potential
     polarization accuracy = 5.2E-06, # of iterations =  13

     total cpu time spent up to now is       11.8 secs

     total energy              =     -34.29046802 Ry
     Harris-Foulkes estimate   =     -33.97795053 Ry
     estimated scf accuracy    <       0.01537480 Ry
     electrostatic embedding   =      -0.02889742 Ry
     correction to one-el term =      -0.29226895 Ry

     iteration #  4     ecut=    30.00 Ry     beta=0.70
     Davidson diagonalization with overlap
     ethr =  1.92E-04,  avg # of iterations =  2.0

     negative rho (up, down):  2.142E-04 0.000E+00

     total cpu time spent up to now is       13.1 secs

     End of self-consistent calculation

          k = 0.0000 0.0000 0.0000 ( 11060 PWs)   bands (ev):

   -24.5417 -12.3152  -8.7692  -6.7994

     highest occupied level (ev):    -6.7994

!    total energy              =     -34.29562463 Ry
     Harris-Foulkes estimate   =     -34.17196653 Ry
     estimated scf accuracy    <       0.00017514 Ry

     The total energy is the sum of the following terms:

     one-electron contribution =     -63.79214484 Ry
     hartree contribution      =      33.45946664 Ry
     xc contribution           =      -8.39660685 Ry
     ewald contribution        =       4.55735774 Ry
     electrostatic embedding   =      -0.03350774 Ry
     correction to one-el term =      -0.09018959 Ry

     convergence has been achieved in   4 iterations

     Forces acting on atoms (cartesian axes, Ry/au):

     atom    1 type  2   force =     0.00237534   -0.01240007   -0.00001440
     atom    2 type  1   force =    -0.00871856    0.00471823    0.00000691
     atom    3 type  1   force =     0.00634322    0.00768184    0.00000749

     Total force =     0.018892     Total SCF correction =     0.022982
     SCF correction compared to forces is large: reduce conv_thr to get better values

     Writing output data file pwscf.save
 
     init_run     :      2.47s CPU      2.63s WALL (       1 calls)
     electrons    :      9.73s CPU     10.50s WALL (       1 calls)
     forces       :      0.33s CPU      0.36s WALL (       1 calls)

     Called by init_run:
     wfcinit      :      0.03s CPU      0.03s WALL (       1 calls)
     potinit      :      1.36s CPU      1.42s WALL (       1 calls)

     Called by electrons:
     c_bands      :      0.20s CPU      0.20s WALL (       4 calls)
     sum_band     :      0.91s CPU      1.02s WALL (       4 calls)
     v_of_rho     :      2.46s CPU      2.57s WALL (       5 calls)
     newd         :      0.51s CPU      0.61s WALL (       5 calls)
     mix_rho      :      0.19s CPU      0.19s WALL (       4 calls)

     Called by c_bands:
     init_us_2    :      0.02s CPU      0.02s WALL (       9 calls)
     regterg      :      0.18s CPU      0.19s WALL (       4 calls)

     Called by sum_band:
     sum_band:bec :      0.00s CPU      0.00s WALL (       4 calls)
     addusdens    :      0.52s CPU      0.62s WALL (       4 calls)

     Called by *egterg:
     h_psi        :      0.19s CPU      0.19s WALL (      13 calls)
     s_psi        :      0.01s CPU      0.00s WALL (      13 calls)
     g_psi        :      0.00s CPU      0.00s WALL (       8 calls)
     rdiaghg      :      0.00s CPU      0.00s WALL (      12 calls)

     Called by h_psi:
     h_psi:pot    :      0.18s CPU      0.19s WALL (      13 calls)
     h_psi:calbec :      0.00s CPU      0.00s WALL (      13 calls)
     vloc_psi     :      0.18s CPU      0.18s WALL (      13 calls)
     add_vuspsi   :      0.00s CPU      0.00s WALL (      13 calls)

     General routines
     calbec       :      0.00s CPU      0.01s WALL (      21 calls)
     fft          :      4.58s CPU      4.77s WALL (     215 calls)
     ffts         :      0.04s CPU      0.03s WALL (       9 calls)
     fftw         :      0.15s CPU      0.14s WALL (      62 calls)
     interpolate  :      0.26s CPU      0.29s WALL (       9 calls)
     davcio       :      0.00s CPU      0.00s WALL (       1 calls)
 
     Parallel routines
     fft_scatter  :      1.20s CPU      1.30s WALL (     286 calls)
 
     Environ routines
     calc_eelect  :      0.02s CPU      0.01s WALL (       8 calls)
     calc_velect  :      3.23s CPU      3.64s WALL (       6 calls)
     dielectric   :      0.27s CPU      0.27s WALL (       6 calls)
     calc_felect  :      0.05s CPU      0.05s WALL (       1 calls)
 
     PWSCF        :    12.66s CPU        13.65s WALL

 
   This run was terminated on:  21:58: 9  31Jan2018            

=------------------------------------------------------------------------------=
   JOB DONE.
=------------------------------------------------------------------------------=

%%%% IONS %%%%%%%%%%%%%%%%%%%%%%%%%%%%%%%%%%%%%%%%%%%%%%%%%%%%%%%%%%%%%%%%%%%%%%
 number of ions             =          3
 ionic center of charge     =      0.5921875     0.5886250     0.5750000
 total ionic charge         =     -8.0000000
 ionic dipole               =      0.0000000     0.0000000     0.0000000
 ionic quadrupole (pc)      =     -4.2453875    -2.0049500     0.0000000
 ionic quadrupole (gauss)   =     -5.2453875    -3.0049500    -1.0000000
 ion   1 type =  2 coordinates =     11.7900000    12.0500000    11.5000000
 ion   2 type =  1 coordinates =     13.4500000    11.2200000    11.5000000
 ion   3 type =  1 coordinates =     10.5600000    10.6600000    11.5000000

%%%% SYSTEM %%%%%%%%%%%%%%%%%%%%%%%%%%%%%%%%%%%%%%%%%%%%%%%%%%%%%%%%%%%%%%%%%%%%
 system is built from all present ionic types
 system defined dimension   =  0 
 system defined axis        =  3 
 system center              =      0.5921875     0.5886250     0.5750000 
 system width               =      0.0849363 

%%%% ELECTRONS %%%%%%%%%%%%%%%%%%%%%%%%%%%%%%%%%%%%%%%%%%%%%%%%%%%%%%%%%%%%%%%%%
 number of electrons        =          7
 total electronic charge    =      8.0000000
 number of spin components  =  1

%%%% BOUNDARY %%%%%%%%%%%%%%%%%%%%%%%%%%%%%%%%%%%%%%%%%%%%%%%%%%%%%%%%%%%%%%%%%%
 boundary mode              = electronic           
 boundary is built as a function of a smooth density
 function type              =  2 
 using the modified SCCS function with parameters 
 rhomax                     =      0.0050000 
 rhomin                     =      0.0001000 
 volume of the QM region    =    925.9497833 
 surface of the QM region   =    444.2662167 

%%%% DIELECTRIC %%%%%%%%%%%%%%%%%%%%%%%%%%%%%%%%%%%%%%%%%%%%%%%%%%%%%%%%%%%%%%%%%
 dielectric build on homogeneous background
 environment bulk permitt.  =    100.0000000 
 dielectric flags
 need gradient              =  F 
 need factor depend. sqrt   =  T 
 total dielectric charge    =      0.0000000

%%%% ELECTRONS %%%%%%%%%%%%%%%%%%%%%%%%%%%%%%%%%%%%%%%%%%%%%%%%%%%%%%%%%%%%%%%%%
 number of electrons        =          7
 total electronic charge    =      8.0000000
 number of spin components  =  1

%%%% BOUNDARY %%%%%%%%%%%%%%%%%%%%%%%%%%%%%%%%%%%%%%%%%%%%%%%%%%%%%%%%%%%%%%%%%%
 boundary mode              = electronic           
 boundary is built as a function of a smooth density
 function type              =  2 
 using the modified SCCS function with parameters 
 rhomax                     =      0.0050000 
 rhomin                     =      0.0001000 
 volume of the QM region    =    306.9268418 
 surface of the QM region   =    219.1546597 

%%%% DIELECTRIC %%%%%%%%%%%%%%%%%%%%%%%%%%%%%%%%%%%%%%%%%%%%%%%%%%%%%%%%%%%%%%%%%
 dielectric build on homogeneous background
 environment bulk permitt.  =    100.0000000 
 dielectric flags
 need gradient              =  F 
 need factor depend. sqrt   =  T 
 total dielectric charge    =      0.0000000

%%%% COMPUTE ELECTROSTATIC POTENTIAL %%%%%%%%%%%%%%%%%%%%%%%%%%%%%%%%%%%%%%%%%%%
 Iteration #          1
  pAp =    26.7240113349720       rzold =    26.1622024736709       alpha = 
  0.978977375280265     
 delta_qm =   0.832724E-02 delta_en =   0.119825E+03 tol =   0.100000E-04
 Iteration #          2
  pAp =    26.7070375634133       rzold =    3.36932118260749       alpha = 
  0.126158551827673     
 delta_qm =   0.276282E-02 delta_en =   0.131901E+02 tol =   0.100000E-04
 Iteration #          3
  pAp =    1.66084871118345       rzold =   0.235698291288184       alpha = 
  0.141914365649978     
 delta_qm =   0.788670E-03 delta_en =   0.107482E+01 tol =   0.100000E-04
 Iteration #          4
  pAp =   3.307114949231408E-002  rzold =   8.575399290717467E-003  alpha = 
  0.259301518766695     
 delta_qm =   0.436589E-03 delta_en =   0.329375E+00 tol =   0.100000E-04
 Iteration #          5
  pAp =   1.208055238307122E-003  rzold =   7.160170679443997E-004  alpha = 
  0.592702258340250     
 delta_qm =   0.126505E-03 delta_en =   0.276541E-01 tol =   0.100000E-04
 Iteration #          6
  pAp =   2.196878463508180E-004  rzold =   8.600578801409350E-005  alpha = 
  0.391490878729593     
 delta_qm =   0.716146E-04 delta_en =   0.886232E-02 tol =   0.100000E-04
 Iteration #          7
  pAp =   6.787982503923447E-006  rzold =   7.230075961587192E-006  alpha = 
   1.06512884460268     
 delta_qm =   0.330558E-04 delta_en =   0.188816E-02 tol =   0.100000E-04
 Iteration #          8
  pAp =   9.694934973228060E-006  rzold =   4.265639619325752E-006  alpha = 
  0.439986408480824     
 delta_qm =   0.176526E-04 delta_en =   0.538472E-03 tol =   0.100000E-04
 Iteration #          9
  pAp =   6.747667009047457E-006  rzold =   1.942166141517710E-006  alpha = 
  0.287827798691548     
 delta_qm =   0.957677E-05 delta_en =   0.158483E-03 tol =   0.100000E-04
 Iteration #         10
  pAp =   1.207006713904851E-006  rzold =   3.878621633890672E-007  alpha = 
  0.321342175582664     
 delta_qm =   0.502009E-05 delta_en =   0.435479E-04 tol =   0.100000E-04
 Iteration #         11
  pAp =   1.176056321789514E-007  rzold =   7.273621442605663E-008  alpha = 
  0.618475604258303     
 delta_qm =   0.115808E-05 delta_en =   0.231752E-05 tol =   0.100000E-04
 Charges are converged, EXIT

%%%% ELECTRONS %%%%%%%%%%%%%%%%%%%%%%%%%%%%%%%%%%%%%%%%%%%%%%%%%%%%%%%%%%%%%%%%%
 number of electrons        =          8
 total electronic charge    =      8.0000000
 number of spin components  =  1

%%%% BOUNDARY %%%%%%%%%%%%%%%%%%%%%%%%%%%%%%%%%%%%%%%%%%%%%%%%%%%%%%%%%%%%%%%%%%
 boundary mode              = electronic           
 boundary is built as a function of a smooth density
 function type              =  2 
 using the modified SCCS function with parameters 
 rhomax                     =      0.0050000 
 rhomin                     =      0.0001000 
 volume of the QM region    =    332.8673029 
 surface of the QM region   =    231.8875336 

%%%% DIELECTRIC %%%%%%%%%%%%%%%%%%%%%%%%%%%%%%%%%%%%%%%%%%%%%%%%%%%%%%%%%%%%%%%%%
 dielectric build on homogeneous background
 environment bulk permitt.  =    100.0000000 
 dielectric flags
 need gradient              =  F 
 need factor depend. sqrt   =  T 
 total dielectric charge    =     -0.0000051

%%%% COMPUTE ELECTROSTATIC POTENTIAL %%%%%%%%%%%%%%%%%%%%%%%%%%%%%%%%%%%%%%%%%%%
 Warning: bad guess with residual norm =   0.184626E+03, reset to no guess
 Iteration #          1
  pAp =    28.9426707396274       rzold =    28.5284844294689       alpha = 
  0.985689423278015     
 delta_qm =   0.102050E-01 delta_en =   0.179958E+03 tol =   0.100000E-04
 Iteration #          2
  pAp =    19.8540074484776       rzold =    2.50856777647074       alpha = 
  0.126350701891325     
 delta_qm =   0.321020E-02 delta_en =   0.178077E+02 tol =   0.100000E-04
 Iteration #          3
  pAp =    1.15882078791851       rzold =   0.165128659488733       alpha = 
  0.142497149870205     
 delta_qm =   0.100495E-02 delta_en =   0.174515E+01 tol =   0.100000E-04
 Iteration #          4
  pAp =   2.955095129447721E-002  rzold =   7.208355095283964E-003  alpha = 
  0.243929713918588     
 delta_qm =   0.590694E-03 delta_en =   0.602933E+00 tol =   0.100000E-04
 Iteration #          5
  pAp =   9.751005775826726E-004  rzold =   5.919384389667178E-004  alpha = 
  0.607053726123479     
 delta_qm =   0.208460E-03 delta_en =   0.750914E-01 tol =   0.100000E-04
 Iteration #          6
  pAp =   1.789966167521709E-004  rzold =   6.809094401830402E-005  alpha = 
  0.380403525238575     
 delta_qm =   0.146215E-03 delta_en =   0.369424E-01 tol =   0.100000E-04
 Iteration #          7
  pAp =   1.165998948401307E-005  rzold =   1.033757310232007E-005  alpha = 
  0.886585113691041     
 delta_qm =   0.750026E-04 delta_en =   0.972068E-02 tol =   0.100000E-04
 Iteration #          8
  pAp =   1.879910543498169E-005  rzold =   8.790886630852334E-006  alpha = 
  0.467622603706137     
 delta_qm =   0.282831E-04 delta_en =   0.138229E-02 tol =   0.100000E-04
 Iteration #          9
  pAp =   3.313662476632889E-006  rzold =   1.458998019494699E-006  alpha = 
  0.440297715830500     
 delta_qm =   0.145635E-04 delta_en =   0.366503E-03 tol =   0.100000E-04
 Iteration #         10
  pAp =   2.427849579274451E-006  rzold =   5.467683506932208E-007  alpha = 
  0.225206847805052     
 delta_qm =   0.919085E-05 delta_en =   0.145967E-03 tol =   0.100000E-04
 Iteration #         11
  pAp =   1.506305283926173E-007  rzold =   9.244607253972740E-008  alpha = 
  0.613727333537379     
 delta_qm =   0.268045E-05 delta_en =   0.124153E-04 tol =   0.100000E-04
 Iteration #         12
  pAp =   1.281974371674262E-008  rzold =   6.093027121996161E-009  alpha = 
  0.475284627885240     
 delta_qm =   0.177037E-05 delta_en =   0.541594E-05 tol =   0.100000E-04
 Charges are converged, EXIT

%%%% ELECTRONS %%%%%%%%%%%%%%%%%%%%%%%%%%%%%%%%%%%%%%%%%%%%%%%%%%%%%%%%%%%%%%%%%
 number of electrons        =          8
 total electronic charge    =      8.0000000
 number of spin components  =  1

%%%% BOUNDARY %%%%%%%%%%%%%%%%%%%%%%%%%%%%%%%%%%%%%%%%%%%%%%%%%%%%%%%%%%%%%%%%%%
 boundary mode              = electronic           
 boundary is built as a function of a smooth density
 function type              =  2 
 using the modified SCCS function with parameters 
 rhomax                     =      0.0050000 
 rhomin                     =      0.0001000 
 volume of the QM region    =    295.4308570 
 surface of the QM region   =    214.3069521 

%%%% DIELECTRIC %%%%%%%%%%%%%%%%%%%%%%%%%%%%%%%%%%%%%%%%%%%%%%%%%%%%%%%%%%%%%%%%%
 dielectric build on homogeneous background
 environment bulk permitt.  =    100.0000000 
 dielectric flags
 need gradient              =  F 
 need factor depend. sqrt   =  T 
 total dielectric charge    =      0.0000706

%%%% COMPUTE ELECTROSTATIC POTENTIAL %%%%%%%%%%%%%%%%%%%%%%%%%%%%%%%%%%%%%%%%%%%
 Warning: bad guess with residual norm =   0.200797E+03, reset to no guess
 Iteration #          1
  pAp =    28.8382696996044       rzold =    28.4041423666229       alpha = 
  0.984946137979028     
 delta_qm =   0.106345E-01 delta_en =   0.195426E+03 tol =   0.100000E-04
 Iteration #          2
  pAp =    19.4713561984349       rzold =    2.55647855825199       alpha = 
  0.131294324452731     
 delta_qm =   0.257407E-02 delta_en =   0.114495E+02 tol =   0.100000E-04
 Iteration #          3
  pAp =    1.53269393685985       rzold =   0.177438428851514       alpha = 
  0.115768989870898     
 delta_qm =   0.921760E-03 delta_en =   0.146818E+01 tol =   0.100000E-04
 Iteration #          4
  pAp =   5.371364364166486E-002  rzold =   1.104033228420585E-002  alpha = 
  0.205540557960623     
 delta_qm =   0.538563E-03 delta_en =   0.501206E+00 tol =   0.100000E-04
 Iteration #          5
  pAp =   1.189937876037765E-003  rzold =   7.000849133614032E-004  alpha = 
  0.588337364041671     
 delta_qm =   0.190546E-03 delta_en =   0.627401E-01 tol =   0.100000E-04
 Iteration #          6
  pAp =   4.247210013481235E-004  rzold =   1.403017725979450E-004  alpha = 
  0.330338674453601     
 delta_qm =   0.132110E-03 delta_en =   0.301591E-01 tol =   0.100000E-04
 Iteration #          7
  pAp =   2.156053844887868E-005  rzold =   1.387888317886391E-005  alpha = 
  0.643716909564739     
 delta_qm =   0.897996E-04 delta_en =   0.139345E-01 tol =   0.100000E-04
 Iteration #          8
  pAp =   1.975971875936541E-005  rzold =   1.242377295951910E-005  alpha = 
  0.628742398149299     
 delta_qm =   0.350283E-04 delta_en =   0.212023E-02 tol =   0.100000E-04
 Iteration #          9
  pAp =   1.132981828975418E-005  rzold =   3.988090553074214E-006  alpha = 
  0.351999515886388     
 delta_qm =   0.224321E-04 delta_en =   0.869532E-03 tol =   0.100000E-04
 Iteration #         10
  pAp =   9.119238532313700E-006  rzold =   2.029267709858048E-006  alpha = 
  0.222526003971429     
 delta_qm =   0.148705E-04 delta_en =   0.382115E-03 tol =   0.100000E-04
 Iteration #         11
  pAp =   3.060552400491746E-007  rzold =   2.160368472599077E-007  alpha = 
  0.705875342063075     
 delta_qm =   0.463527E-05 delta_en =   0.371274E-04 tol =   0.100000E-04
 Iteration #         12
  pAp =   7.731040128189383E-008  rzold =   3.258161101612650E-008  alpha = 
  0.421438907001989     
 delta_qm =   0.298377E-05 delta_en =   0.153842E-04 tol =   0.100000E-04
 Iteration #         13
  pAp =   1.229956914729412E-008  rzold =   7.386392667237231E-009  alpha = 
  0.600540765191131     
 delta_qm =   0.172879E-05 delta_en =   0.516449E-05 tol =   0.100000E-04
 Charges are converged, EXIT

%%%% ELECTRONS %%%%%%%%%%%%%%%%%%%%%%%%%%%%%%%%%%%%%%%%%%%%%%%%%%%%%%%%%%%%%%%%%
 number of electrons        =          8
 total electronic charge    =      8.0000000
 number of spin components  =  1

%%%% BOUNDARY %%%%%%%%%%%%%%%%%%%%%%%%%%%%%%%%%%%%%%%%%%%%%%%%%%%%%%%%%%%%%%%%%%
 boundary mode              = electronic           
 boundary is built as a function of a smooth density
 function type              =  2 
 using the modified SCCS function with parameters 
 rhomax                     =      0.0050000 
 rhomin                     =      0.0001000 
 volume of the QM region    =    295.4308570 
 surface of the QM region   =    214.3069521 

%%%% DIELECTRIC %%%%%%%%%%%%%%%%%%%%%%%%%%%%%%%%%%%%%%%%%%%%%%%%%%%%%%%%%%%%%%%%%
 dielectric build on homogeneous background
 environment bulk permitt.  =    100.0000000 
 dielectric flags
 need gradient              =  F 
 need factor depend. sqrt   =  T 
 total dielectric charge    =      0.0000731
