
     Program PWSCF v.6.4.1 starts on 24Apr2019 at 15: 8: 7 

     This program is part of the open-source Quantum ESPRESSO suite
     for quantum simulation of materials; please cite
         "P. Giannozzi et al., J. Phys.:Condens. Matter 21 395502 (2009);
         "P. Giannozzi et al., J. Phys.:Condens. Matter 29 465901 (2017);
          URL http://www.quantum-espresso.org", 
     in publications or presentations arising from this work. More details at
     http://www.quantum-espresso.org/quote

     Parallel version (MPI), running on     1 processors

     MPI processes distributed on     1 nodes
     Reading input from neutral.in

     Current dimensions of program PWSCF are:
     Max number of different atomic species (ntypx) = 10
     Max number of k-points (npk) =  40000
     Max angular momentum in pseudopotentials (lmaxx) =  3
               file H.pbe-rrkjus.UPF: wavefunction(s)  1S renormalized
               file O.pbe-rrkjus.UPF: wavefunction(s)  2S renormalized

     gamma-point specific algorithms are used

     Subspace diagonalization in iterative solution of the eigenvalue problem:
     a serial algorithm will be used

 
     G-vector sticks info
     --------------------
     sticks:   dense  smooth     PW     G-vecs:    dense   smooth      PW
     Sum        9549    3809    949               701475   177509   22119
 


     bravais-lattice index     =            1
     lattice parameter (alat)  =      20.0000  a.u.
     unit-cell volume          =    8000.0000 (a.u.)^3
     number of atoms/cell      =            3
     number of atomic types    =            2
     number of electrons       =         8.00
     number of Kohn-Sham states=            4
     kinetic-energy cutoff     =      30.0000  Ry
     charge density cutoff     =     300.0000  Ry
     convergence threshold     =      5.0E-03
     mixing beta               =       0.7000
     number of iterations used =            8  plain     mixing
     Exchange-correlation      = SLA PW PBE PBE ( 1  4  3  4 0 0)
 

     Environ Module
     ==============

     Plese cite
         O. Andreussi, I. Dabo and N. Marzari, J. Chem. Phys. 136, 064102 (2012)         
     in publications or presentations arising from this work.

     compensation onset threshold      =               0.1000E+03 
     static permittivity               =                   100.00 
     epsilon calculation mode          =                    ionic 

     Electrostatic Setup
     -------------------
     electrostatic problem to solve    = generalized              
     numerical solver adopted          = iterative                
     type of auxiliary density adopted = full                     
     type of core tool for poisson     = fft                      
     type of core tool for s(r) deriv  = analytic                 



     celldm(1)=  20.000000  celldm(2)=   0.000000  celldm(3)=   0.000000
     celldm(4)=   0.000000  celldm(5)=   0.000000  celldm(6)=   0.000000

     crystal axes: (cart. coord. in units of alat)
               a(1) = (   1.000000   0.000000   0.000000 )  
               a(2) = (   0.000000   1.000000   0.000000 )  
               a(3) = (   0.000000   0.000000   1.000000 )  

     reciprocal axes: (cart. coord. in units 2 pi/alat)
               b(1) = (  1.000000  0.000000  0.000000 )  
               b(2) = (  0.000000  1.000000  0.000000 )  
               b(3) = (  0.000000  0.000000  1.000000 )  


     PseudoPot. # 1 for H  read from file:
     /home/fnattino/Programs/quantumespresso/q-e-qe-6.4.1-develop/Environ/tests/../..//pseudo/H.pbe-rrkjus.UPF
     MD5 check sum: 2d52a7f45632fd764c17cc6affed14c8
     Pseudo is Ultrasoft, Zval =  1.0
     Generated by new atomic code, or converted to UPF format
     Using radial grid of 1061 points,  2 beta functions with: 
                l(1) =   0
                l(2) =   0
     Q(r) pseudized with 0 coefficients 


     PseudoPot. # 2 for O  read from file:
     /home/fnattino/Programs/quantumespresso/q-e-qe-6.4.1-develop/Environ/tests/../..//pseudo/O.pbe-rrkjus.UPF
     MD5 check sum: fadcf19ee70a498d3030e2e79cf929a4
     Pseudo is Ultrasoft, Zval =  6.0
     Generated by new atomic code, or converted to UPF format
     Using radial grid of 1269 points,  4 beta functions with: 
                l(1) =   0
                l(2) =   0
                l(3) =   1
                l(4) =   1
     Q(r) pseudized with 0 coefficients 


     atomic species   valence    mass     pseudopotential
        H              1.00     1.00000     H ( 1.00)
        O              6.00    16.00000     O ( 1.00)

     No symmetry found



   Cartesian axes

     site n.     atom                  positions (alat units)
         1           O   tau(   1) = (   0.5895000   0.6025000   0.5750000  )
         2           H   tau(   2) = (   0.6725000   0.5610000   0.5750000  )
         3           H   tau(   3) = (   0.5280000   0.5330000   0.5750000  )

     number of k points=     1
                       cart. coord. in units 2pi/alat
        k(    1) = (   0.0000000   0.0000000   0.0000000), wk =   2.0000000

     Dense  grid:   350738 G-vectors     FFT dimensions: ( 120, 120, 120)

     Smooth grid:    88755 G-vectors     FFT dimensions: (  72,  72,  72)

     Estimated max dynamical RAM per process >     548.70 MB

     Initial potential from superposition of free atoms

     starting charge    7.80759, renormalised to    8.00000

     negative rho (up, down):  7.936E-04 0.000E+00
     Starting wfcs are    6 randomized atomic wfcs

     total cpu time spent up to now is        3.9 secs

     Self-consistent Calculation

     iteration #  1     ecut=    30.00 Ry     beta= 0.70
     Davidson diagonalization with overlap
     ethr =  1.00E-02,  avg # of iterations =  2.0

     negative rho (up, down):  2.595E-04 0.000E+00

     add environment contribution to local potential
     polarization accuracy = 7.0E-06, # of iterations =  17

     total cpu time spent up to now is        8.2 secs

     total energy              =     -34.06237118 Ry
     Harris-Foulkes estimate   =     -34.58698941 Ry
     estimated scf accuracy    <       0.68459185 Ry
     electrostatic embedding   =       0.00000000 Ry
     correction to one-el term =       0.00000000 Ry

     iteration #  2     ecut=    30.00 Ry     beta= 0.70
     Davidson diagonalization with overlap
     ethr =  8.56E-03,  avg # of iterations =  2.0

     negative rho (up, down):  2.759E-03 0.000E+00

     add environment contribution to local potential
     polarization accuracy = 6.3E-06, # of iterations =  13

     total cpu time spent up to now is       11.9 secs

     total energy              =     -34.21443823 Ry
     Harris-Foulkes estimate   =     -33.92292405 Ry
     estimated scf accuracy    <       0.37537414 Ry
     electrostatic embedding   =      -0.05051306 Ry
     correction to one-el term =      -0.43374612 Ry

     iteration #  3     ecut=    30.00 Ry     beta= 0.70
     Davidson diagonalization with overlap
     ethr =  4.69E-03,  avg # of iterations =  2.0

     negative rho (up, down):  2.251E-04 0.000E+00

     add environment contribution to local potential
     polarization accuracy = 9.1E-06, # of iterations =  11

     total cpu time spent up to now is       15.2 secs

     total energy              =     -34.30136025 Ry
     Harris-Foulkes estimate   =     -33.90801479 Ry
     estimated scf accuracy    <       0.01714369 Ry
     electrostatic embedding   =      -0.04206758 Ry
     correction to one-el term =      -0.36084420 Ry

     iteration #  4     ecut=    30.00 Ry     beta= 0.70
     Davidson diagonalization with overlap
     ethr =  2.14E-04,  avg # of iterations =  2.0

     negative rho (up, down):  2.169E-04 0.000E+00

     the potential shift due to the Gaussian-smeared nuclei is    -0.0214 ev

     total cpu time spent up to now is       16.1 secs

     End of self-consistent calculation

          k = 0.0000 0.0000 0.0000 ( 11060 PWs)   bands (ev):

   -24.7763 -12.5194  -9.1202  -7.1347

     highest occupied level (ev):    -7.1347

!    total energy              =     -34.30868376 Ry
     Harris-Foulkes estimate   =     -34.26248257 Ry
     estimated scf accuracy    <       0.00017407 Ry

     The total energy is the sum of the following terms:

     one-electron contribution =     -63.88501865 Ry
     hartree contribution      =      33.46059380 Ry
     xc contribution           =      -8.39539296 Ry
     ewald contribution        =       4.55735774 Ry
     electrostatic embedding   =      -0.04692250 Ry
     correction to one-el term =       0.00069881 Ry

     convergence has been achieved in   4 iterations

     Forces acting on atoms (cartesian axes, Ry/au):

     atom    1 type  2   force =     0.00029203   -0.00187094   -0.00000108
     atom    2 type  1   force =    -0.00365621    0.00022525    0.00000029
     atom    3 type  1   force =     0.00336418    0.00164568    0.00000079

     Total force =     0.005570     Total SCF correction =     0.030913
     SCF correction compared to forces is large: reduce conv_thr to get better values

     Writing output data file pwscf.save/
 
     init_run     :      3.14s CPU      3.55s WALL (       1 calls)
     electrons    :     10.86s CPU     12.22s WALL (       1 calls)
     forces       :      2.03s CPU      2.16s WALL (       1 calls)

     Called by init_run:
     wfcinit      :      0.04s CPU      0.04s WALL (       1 calls)
     potinit      :      0.71s CPU      0.79s WALL (       1 calls)
     hinit0       :      2.16s CPU      2.30s WALL (       1 calls)

     Called by electrons:
     c_bands      :      0.28s CPU      0.29s WALL (       4 calls)
     sum_band     :      0.69s CPU      0.91s WALL (       4 calls)
     v_of_rho     :      2.24s CPU      2.42s WALL (       5 calls)
     newd         :      0.65s CPU      0.98s WALL (       5 calls)
     mix_rho      :      0.16s CPU      0.17s WALL (       4 calls)

     Called by c_bands:
     init_us_2    :      0.02s CPU      0.02s WALL (       9 calls)
     regterg      :      0.26s CPU      0.27s WALL (       4 calls)

     Called by sum_band:
     sum_band:bec :      0.00s CPU      0.00s WALL (       4 calls)
     addusdens    :      0.51s CPU      0.72s WALL (       4 calls)

     Called by *egterg:
     h_psi        :      0.28s CPU      0.28s WALL (      13 calls)
     s_psi        :      0.00s CPU      0.00s WALL (      13 calls)
     g_psi        :      0.00s CPU      0.00s WALL (       8 calls)
     rdiaghg      :      0.00s CPU      0.00s WALL (      12 calls)

     Called by h_psi:
     h_psi:pot    :      0.28s CPU      0.28s WALL (      13 calls)
     h_psi:calbec :      0.01s CPU      0.00s WALL (      13 calls)
     vloc_psi     :      0.26s CPU      0.28s WALL (      13 calls)
     add_vuspsi   :      0.00s CPU      0.00s WALL (      13 calls)

     General routines
     calbec       :      0.01s CPU      0.01s WALL (      21 calls)
     fft          :      4.26s CPU      4.40s WALL (     248 calls)
     ffts         :      0.04s CPU      0.03s WALL (       9 calls)
     fftw         :      0.24s CPU      0.25s WALL (      62 calls)
     interpolate  :      0.16s CPU      0.16s WALL (       5 calls)
 
     Parallel routines
 
     Environ routines
     calc_eelect  :      0.01s CPU      0.01s WALL (       8 calls)
     calc_velect  :      6.78s CPU      7.42s WALL (       6 calls)
     dielectric   :      0.08s CPU      0.09s WALL (       2 calls)
     calc_felect  :      0.04s CPU      0.04s WALL (       1 calls)
 
     PWSCF        :     16.37s CPU     18.29s WALL

 
   This run was terminated on:  15: 8:25  24Apr2019            

=------------------------------------------------------------------------------=
   JOB DONE.
=------------------------------------------------------------------------------=

%%%% IONS %%%%%%%%%%%%%%%%%%%%%%%%%%%%%%%%%%%%%%%%%%%%%%%%%%%%%%%%%%%%%%%%%%%%%%
 number of ions             =          3
 ionic center of charge     =      0.5921875     0.5886250     0.5750000
 total ionic charge         =     -8.0000000
 ionic dipole               =      0.0000000     0.0000000     0.0000000
 ionic quadrupole (pc)      =     -4.2453875    -2.0049500     0.0000000
 ionic quadrupole (gauss)   =     -5.2453875    -3.0049500    -1.0000000
 ion   1 type =  2 coordinates =     11.7900000    12.0500000    11.5000000
 ion   2 type =  1 coordinates =     13.4500000    11.2200000    11.5000000
 ion   3 type =  1 coordinates =     10.5600000    10.6600000    11.5000000

%%%% SYSTEM %%%%%%%%%%%%%%%%%%%%%%%%%%%%%%%%%%%%%%%%%%%%%%%%%%%%%%%%%%%%%%%%%%%%
 system is built from all present ionic types
 system defined dimension   =  0 
 system defined axis        =  3 
 system center              =      0.5921875     0.5886250     0.5750000 
 system width               =      0.0849363 

%%%% BOUNDARY %%%%%%%%%%%%%%%%%%%%%%%%%%%%%%%%%%%%%%%%%%%%%%%%%%%%%%%%%%%%%%%%%%
 boundary label             = solvent              
 boundary mode              = ionic                
 boundary is built from soft-spheres centered on ionic positions
 solvent-dependent scaling  =      1.0000000 
 softness parameter         =      0.5000000 
 volume of the QM region    =    211.8920528 
 surface of the QM region   =    173.6178424 

%%%% DIELECTRIC %%%%%%%%%%%%%%%%%%%%%%%%%%%%%%%%%%%%%%%%%%%%%%%%%%%%%%%%%%%%%%%%%
 dielectric build on homogeneous background
 environment bulk permitt.  =    100.0000000 
 dielectric flags
 need gradient              =  F 
 need factor depend. sqrt   =  F 
 total dielectric charge    =      0.0000000

%%%% ELECTRONS %%%%%%%%%%%%%%%%%%%%%%%%%%%%%%%%%%%%%%%%%%%%%%%%%%%%%%%%%%%%%%%%%
 number of electrons        =          8
 total electronic charge    =      8.0000000

%%%% DENSITY %%%%%%%%%%%%%%%%%%%%%%%%%%%%%%%%%%%%%%%%%%%%%%%%%%%%%%%%%%%%%%%%%%%
 density label              = vreference                                                                      
 integral of density        =      0.000000000    

%%%% DENSITY %%%%%%%%%%%%%%%%%%%%%%%%%%%%%%%%%%%%%%%%%%%%%%%%%%%%%%%%%%%%%%%%%%%
 density label              = velectrostatic                                                                  
 integral of density        =      0.000000000    

%%%% CHARGES %%%%%%%%%%%%%%%%%%%%%%%%%%%%%%%%%%%%%%%%%%%%%%%%%%%%%%%%%%%%%%%%%%%
 total number of charges    =         11
 total charge               =     -0.0000000

%%%% ELECTRONS %%%%%%%%%%%%%%%%%%%%%%%%%%%%%%%%%%%%%%%%%%%%%%%%%%%%%%%%%%%%%%%%%
 number of electrons        =          8
 total electronic charge    =      8.0000000

%%%% DENSITY %%%%%%%%%%%%%%%%%%%%%%%%%%%%%%%%%%%%%%%%%%%%%%%%%%%%%%%%%%%%%%%%%%%
 density label              = vreference                                                                      
 integral of density        =     0.7973868479E-13

%%%% COMPUTE ELECTROSTATIC POTENTIAL %%%%%%%%%%%%%%%%%%%%%%%%%%%%%%%%%%%%%%%%%%%
 Starting from polarization: rhoiter =      0.000000 jellium =      0.000000
 Iteration #          1
 delta_qm =   0.242083E-02 delta_en =   0.101268E+02 tol =   0.100000E-04
 Iteration #          2
 delta_qm =   0.151453E-02 delta_en =   0.396368E+01 tol =   0.100000E-04
 Iteration #          3
 delta_qm =   0.685364E-03 delta_en =   0.811682E+00 tol =   0.100000E-04
 Iteration #          4
 delta_qm =   0.457067E-03 delta_en =   0.360997E+00 tol =   0.100000E-04
 Iteration #          5
 delta_qm =   0.250603E-03 delta_en =   0.108521E+00 tol =   0.100000E-04
 Iteration #          6
 delta_qm =   0.167112E-03 delta_en =   0.482569E-01 tol =   0.100000E-04
 Iteration #          7
 delta_qm =   0.110782E-03 delta_en =   0.212070E-01 tol =   0.100000E-04
 Iteration #          8
 delta_qm =   0.631156E-04 delta_en =   0.688362E-02 tol =   0.100000E-04
 Iteration #          9
 delta_qm =   0.448072E-04 delta_en =   0.346929E-02 tol =   0.100000E-04
 Iteration #         10
 delta_qm =   0.315796E-04 delta_en =   0.172328E-02 tol =   0.100000E-04
 Iteration #         11
 delta_qm =   0.186952E-04 delta_en =   0.603951E-03 tol =   0.100000E-04
 Iteration #         12
 delta_qm =   0.132080E-04 delta_en =   0.301452E-03 tol =   0.100000E-04
 Iteration #         13
 delta_qm =   0.976230E-05 delta_en =   0.164683E-03 tol =   0.100000E-04
 Iteration #         14
 delta_qm =   0.605549E-05 delta_en =   0.633640E-04 tol =   0.100000E-04
 Iteration #         15
 delta_qm =   0.412637E-05 delta_en =   0.294226E-04 tol =   0.100000E-04
 Iteration #         16
 delta_qm =   0.310863E-05 delta_en =   0.166987E-04 tol =   0.100000E-04
 Iteration #         17
 delta_qm =   0.201954E-05 delta_en =   0.704775E-05 tol =   0.100000E-04
 Charges are converged, EXIT

%%%% DENSITY %%%%%%%%%%%%%%%%%%%%%%%%%%%%%%%%%%%%%%%%%%%%%%%%%%%%%%%%%%%%%%%%%%%
 density label              = velectrostatic                                                                  
 integral of density        =     0.4848796262E-13

%%%% CHARGES %%%%%%%%%%%%%%%%%%%%%%%%%%%%%%%%%%%%%%%%%%%%%%%%%%%%%%%%%%%%%%%%%%%
 total number of charges    =         11
 total charge               =      0.0000000

%%%% ELECTRONS %%%%%%%%%%%%%%%%%%%%%%%%%%%%%%%%%%%%%%%%%%%%%%%%%%%%%%%%%%%%%%%%%
 number of electrons        =          8
 total electronic charge    =      8.0000000

%%%% DENSITY %%%%%%%%%%%%%%%%%%%%%%%%%%%%%%%%%%%%%%%%%%%%%%%%%%%%%%%%%%%%%%%%%%%
 density label              = vreference                                                                      
 integral of density        =     0.7118585556E-13

%%%% COMPUTE ELECTROSTATIC POTENTIAL %%%%%%%%%%%%%%%%%%%%%%%%%%%%%%%%%%%%%%%%%%%
 Starting from polarization: rhoiter =      0.452150 jellium =      0.000000
 Iteration #          1
 delta_qm =   0.325432E-03 delta_en =   0.183006E+00 tol =   0.100000E-04
 Iteration #          2
 delta_qm =   0.188028E-03 delta_en =   0.610929E-01 tol =   0.100000E-04
 Iteration #          3
 delta_qm =   0.123178E-03 delta_en =   0.262188E-01 tol =   0.100000E-04
 Iteration #          4
 delta_qm =   0.841570E-04 delta_en =   0.122384E-01 tol =   0.100000E-04
 Iteration #          5
 delta_qm =   0.484972E-04 delta_en =   0.406421E-02 tol =   0.100000E-04
 Iteration #          6
 delta_qm =   0.348238E-04 delta_en =   0.209554E-02 tol =   0.100000E-04
 Iteration #          7
 delta_qm =   0.225633E-04 delta_en =   0.879733E-03 tol =   0.100000E-04
 Iteration #          8
 delta_qm =   0.127242E-04 delta_en =   0.279770E-03 tol =   0.100000E-04
 Iteration #          9
 delta_qm =   0.927482E-05 delta_en =   0.148647E-03 tol =   0.100000E-04
 Iteration #         10
 delta_qm =   0.636925E-05 delta_en =   0.701003E-04 tol =   0.100000E-04
 Iteration #         11
 delta_qm =   0.365923E-05 delta_en =   0.231379E-04 tol =   0.100000E-04
 Iteration #         12
 delta_qm =   0.262587E-05 delta_en =   0.119149E-04 tol =   0.100000E-04
 Iteration #         13
 delta_qm =   0.191646E-05 delta_en =   0.634661E-05 tol =   0.100000E-04
 Charges are converged, EXIT

%%%% DENSITY %%%%%%%%%%%%%%%%%%%%%%%%%%%%%%%%%%%%%%%%%%%%%%%%%%%%%%%%%%%%%%%%%%%
 density label              = velectrostatic                                                                  
 integral of density        =     0.1901359728E-12

%%%% CHARGES %%%%%%%%%%%%%%%%%%%%%%%%%%%%%%%%%%%%%%%%%%%%%%%%%%%%%%%%%%%%%%%%%%%
 total number of charges    =         11
 total charge               =     -0.0000000

%%%% ELECTRONS %%%%%%%%%%%%%%%%%%%%%%%%%%%%%%%%%%%%%%%%%%%%%%%%%%%%%%%%%%%%%%%%%
 number of electrons        =          8
 total electronic charge    =      8.0000000

%%%% DENSITY %%%%%%%%%%%%%%%%%%%%%%%%%%%%%%%%%%%%%%%%%%%%%%%%%%%%%%%%%%%%%%%%%%%
 density label              = vreference                                                                      
 integral of density        =     0.1344767918E-12

%%%% COMPUTE ELECTROSTATIC POTENTIAL %%%%%%%%%%%%%%%%%%%%%%%%%%%%%%%%%%%%%%%%%%%
 Starting from polarization: rhoiter =      0.485307 jellium =      0.000000
 Iteration #          1
 delta_qm =   0.498434E-03 delta_en =   0.429299E+00 tol =   0.100000E-04
 Iteration #          2
 delta_qm =   0.326589E-03 delta_en =   0.184309E+00 tol =   0.100000E-04
 Iteration #          3
 delta_qm =   0.121117E-03 delta_en =   0.253486E-01 tol =   0.100000E-04
 Iteration #          4
 delta_qm =   0.783851E-04 delta_en =   0.106172E-01 tol =   0.100000E-04
 Iteration #          5
 delta_qm =   0.400580E-04 delta_en =   0.277282E-02 tol =   0.100000E-04
 Iteration #          6
 delta_qm =   0.239093E-04 delta_en =   0.987820E-03 tol =   0.100000E-04
 Iteration #          7
 delta_qm =   0.154878E-04 delta_en =   0.414501E-03 tol =   0.100000E-04
 Iteration #          8
 delta_qm =   0.852979E-05 delta_en =   0.125725E-03 tol =   0.100000E-04
 Iteration #          9
 delta_qm =   0.579485E-05 delta_en =   0.580267E-04 tol =   0.100000E-04
 Iteration #         10
 delta_qm =   0.398864E-05 delta_en =   0.274912E-04 tol =   0.100000E-04
 Iteration #         11
 delta_qm =   0.230101E-05 delta_en =   0.914911E-05 tol =   0.100000E-04
 Charges are converged, EXIT

%%%% DENSITY %%%%%%%%%%%%%%%%%%%%%%%%%%%%%%%%%%%%%%%%%%%%%%%%%%%%%%%%%%%%%%%%%%%
 density label              = velectrostatic                                                                  
 integral of density        =     0.1512534953E-12

%%%% CHARGES %%%%%%%%%%%%%%%%%%%%%%%%%%%%%%%%%%%%%%%%%%%%%%%%%%%%%%%%%%%%%%%%%%%
 total number of charges    =         11
 total charge               =      0.0000000

%%%% ELECTRONS %%%%%%%%%%%%%%%%%%%%%%%%%%%%%%%%%%%%%%%%%%%%%%%%%%%%%%%%%%%%%%%%%
 number of electrons        =          8
 total electronic charge    =      8.0000000

%%%% DENSITY %%%%%%%%%%%%%%%%%%%%%%%%%%%%%%%%%%%%%%%%%%%%%%%%%%%%%%%%%%%%%%%%%%%
 density label              = vreference                                                                      
 integral of density        =     0.1344767918E-12

%%%% DENSITY %%%%%%%%%%%%%%%%%%%%%%%%%%%%%%%%%%%%%%%%%%%%%%%%%%%%%%%%%%%%%%%%%%%
 density label              = velectrostatic                                                                  
 integral of density        =     0.1512534953E-12

%%%% CHARGES %%%%%%%%%%%%%%%%%%%%%%%%%%%%%%%%%%%%%%%%%%%%%%%%%%%%%%%%%%%%%%%%%%%
 total number of charges    =         11
 total charge               =      0.0000000
