
     Program PWSCF v.6.4.1 starts on 24Apr2019 at 15:14:28 

     This program is part of the open-source Quantum ESPRESSO suite
     for quantum simulation of materials; please cite
         "P. Giannozzi et al., J. Phys.:Condens. Matter 21 395502 (2009);
         "P. Giannozzi et al., J. Phys.:Condens. Matter 29 465901 (2017);
          URL http://www.quantum-espresso.org", 
     in publications or presentations arising from this work. More details at
     http://www.quantum-espresso.org/quote

     Parallel version (MPI), running on     1 processors

     MPI processes distributed on     1 nodes
     Reading input from neutral.in

     Current dimensions of program PWSCF are:
     Max number of different atomic species (ntypx) = 10
     Max number of k-points (npk) =  40000
     Max angular momentum in pseudopotentials (lmaxx) =  3
               file H.pbe-rrkjus.UPF: wavefunction(s)  1S renormalized
               file O.pbe-rrkjus.UPF: wavefunction(s)  2S renormalized

     gamma-point specific algorithms are used

     Subspace diagonalization in iterative solution of the eigenvalue problem:
     a serial algorithm will be used

 
     G-vector sticks info
     --------------------
     sticks:   dense  smooth     PW     G-vecs:    dense   smooth      PW
     Sum        9549    3809    949               701475   177509   22119
 


     bravais-lattice index     =            1
     lattice parameter (alat)  =      20.0000  a.u.
     unit-cell volume          =    8000.0000 (a.u.)^3
     number of atoms/cell      =            3
     number of atomic types    =            2
     number of electrons       =         8.00
     number of Kohn-Sham states=            4
     kinetic-energy cutoff     =      30.0000  Ry
     charge density cutoff     =     300.0000  Ry
     convergence threshold     =      5.0E-03
     mixing beta               =       0.7000
     number of iterations used =            8  plain     mixing
     Exchange-correlation      = SLA PW PBE PBE ( 1  4  3  4 0 0)
 

     Environ Module
     ==============

     Plese cite
         O. Andreussi, I. Dabo and N. Marzari, J. Chem. Phys. 136, 064102 (2012)         
     in publications or presentations arising from this work.

     compensation onset threshold      =               0.1000E+03 
     static permittivity               =                   100.00 
     epsilon calculation mode          =                   system 

     Electrostatic Setup
     -------------------
     electrostatic problem to solve    = generalized              
     numerical solver adopted          = iterative                
     type of auxiliary density adopted = full                     
     type of core tool for poisson     = fft                      
     type of core tool for s(r) deriv  = analytic                 



     celldm(1)=  20.000000  celldm(2)=   0.000000  celldm(3)=   0.000000
     celldm(4)=   0.000000  celldm(5)=   0.000000  celldm(6)=   0.000000

     crystal axes: (cart. coord. in units of alat)
               a(1) = (   1.000000   0.000000   0.000000 )  
               a(2) = (   0.000000   1.000000   0.000000 )  
               a(3) = (   0.000000   0.000000   1.000000 )  

     reciprocal axes: (cart. coord. in units 2 pi/alat)
               b(1) = (  1.000000  0.000000  0.000000 )  
               b(2) = (  0.000000  1.000000  0.000000 )  
               b(3) = (  0.000000  0.000000  1.000000 )  


     PseudoPot. # 1 for H  read from file:
     /home/fnattino/Programs/quantumespresso/q-e-qe-6.4.1-develop/Environ/tests/../..//pseudo/H.pbe-rrkjus.UPF
     MD5 check sum: 2d52a7f45632fd764c17cc6affed14c8
     Pseudo is Ultrasoft, Zval =  1.0
     Generated by new atomic code, or converted to UPF format
     Using radial grid of 1061 points,  2 beta functions with: 
                l(1) =   0
                l(2) =   0
     Q(r) pseudized with 0 coefficients 


     PseudoPot. # 2 for O  read from file:
     /home/fnattino/Programs/quantumespresso/q-e-qe-6.4.1-develop/Environ/tests/../..//pseudo/O.pbe-rrkjus.UPF
     MD5 check sum: fadcf19ee70a498d3030e2e79cf929a4
     Pseudo is Ultrasoft, Zval =  6.0
     Generated by new atomic code, or converted to UPF format
     Using radial grid of 1269 points,  4 beta functions with: 
                l(1) =   0
                l(2) =   0
                l(3) =   1
                l(4) =   1
     Q(r) pseudized with 0 coefficients 


     atomic species   valence    mass     pseudopotential
        H              1.00     1.00000     H ( 1.00)
        O              6.00    16.00000     O ( 1.00)

     No symmetry found



   Cartesian axes

     site n.     atom                  positions (alat units)
         1           O   tau(   1) = (   0.5895000   0.6025000   0.5750000  )
         2           H   tau(   2) = (   0.6725000   0.5610000   0.5750000  )
         3           H   tau(   3) = (   0.5280000   0.5330000   0.5750000  )

     number of k points=     1
                       cart. coord. in units 2pi/alat
        k(    1) = (   0.0000000   0.0000000   0.0000000), wk =   2.0000000

     Dense  grid:   350738 G-vectors     FFT dimensions: ( 120, 120, 120)

     Smooth grid:    88755 G-vectors     FFT dimensions: (  72,  72,  72)

     Estimated max dynamical RAM per process >     548.70 MB

     Initial potential from superposition of free atoms

     starting charge    7.80759, renormalised to    8.00000

     negative rho (up, down):  7.936E-04 0.000E+00
     Starting wfcs are    6 randomized atomic wfcs

     total cpu time spent up to now is        2.9 secs

     Self-consistent Calculation

     iteration #  1     ecut=    30.00 Ry     beta= 0.70
     Davidson diagonalization with overlap
     ethr =  1.00E-02,  avg # of iterations =  2.0

     negative rho (up, down):  2.595E-04 0.000E+00

     add environment contribution to local potential
     polarization accuracy = 7.3E-06, # of iterations =  16

     total cpu time spent up to now is        7.4 secs

     total energy              =     -34.06237118 Ry
     Harris-Foulkes estimate   =     -34.58698941 Ry
     estimated scf accuracy    <       0.68459185 Ry
     electrostatic embedding   =       0.00000000 Ry
     correction to one-el term =       0.00000000 Ry

     iteration #  2     ecut=    30.00 Ry     beta= 0.70
     Davidson diagonalization with overlap
     ethr =  8.56E-03,  avg # of iterations =  2.0

     negative rho (up, down):  3.134E-03 0.000E+00

     add environment contribution to local potential
     polarization accuracy = 8.4E-06, # of iterations =  11

     total cpu time spent up to now is       11.2 secs

     total energy              =     -34.16928229 Ry
     Harris-Foulkes estimate   =     -34.27206160 Ry
     estimated scf accuracy    <       0.45102892 Ry
     electrostatic embedding   =      -0.00754752 Ry
     correction to one-el term =      -0.11561122 Ry

     iteration #  3     ecut=    30.00 Ry     beta= 0.70
     Davidson diagonalization with overlap
     ethr =  5.64E-03,  avg # of iterations =  2.0

     negative rho (up, down):  3.006E-04 0.000E+00

     add environment contribution to local potential
     polarization accuracy = 6.4E-06, # of iterations =   9

     total cpu time spent up to now is       14.9 secs

     total energy              =     -34.26966665 Ry
     Harris-Foulkes estimate   =     -34.20097000 Ry
     estimated scf accuracy    <       0.01693115 Ry
     electrostatic embedding   =      -0.00475398 Ry
     correction to one-el term =      -0.07316134 Ry

     iteration #  4     ecut=    30.00 Ry     beta= 0.70
     Davidson diagonalization with overlap
     ethr =  2.12E-04,  avg # of iterations =  2.0

     negative rho (up, down):  2.166E-04 0.000E+00

     the potential shift due to the Gaussian-smeared nuclei is    -0.0214 ev

     total cpu time spent up to now is       15.9 secs

     End of self-consistent calculation

          k = 0.0000 0.0000 0.0000 ( 11060 PWs)   bands (ev):

   -24.9534 -12.8255  -9.0485  -7.0320

     highest occupied level (ev):    -7.0320

!    total energy              =     -34.27351488 Ry
     Harris-Foulkes estimate   =     -34.26545486 Ry
     estimated scf accuracy    <       0.00019295 Ry

     The total energy is the sum of the following terms:

     one-electron contribution =     -63.76004113 Ry
     hartree contribution      =      33.31574083 Ry
     xc contribution           =      -8.37844862 Ry
     ewald contribution        =       4.55735774 Ry
     electrostatic embedding   =      -0.00533608 Ry
     correction to one-el term =      -0.00278762 Ry

     convergence has been achieved in   4 iterations

     Forces acting on atoms (cartesian axes, Ry/au):

     atom    1 type  2   force =     0.00238074   -0.01240216   -0.00000219
     atom    2 type  1   force =    -0.01105407    0.00425901    0.00000113
     atom    3 type  1   force =     0.00867334    0.00814314    0.00000106

     Total force =     0.021008     Total SCF correction =     0.023550
     SCF correction compared to forces is large: reduce conv_thr to get better values

     Writing output data file pwscf.save/
 
     init_run     :      2.25s CPU      2.53s WALL (       1 calls)
     electrons    :     11.58s CPU     13.04s WALL (       1 calls)
     forces       :      0.63s CPU      0.75s WALL (       1 calls)

     Called by init_run:
     wfcinit      :      0.04s CPU      0.04s WALL (       1 calls)
     potinit      :      0.65s CPU      0.69s WALL (       1 calls)
     hinit0       :      1.31s CPU      1.37s WALL (       1 calls)

     Called by electrons:
     c_bands      :      0.36s CPU      0.36s WALL (       4 calls)
     sum_band     :      0.86s CPU      1.08s WALL (       4 calls)
     v_of_rho     :      2.34s CPU      2.56s WALL (       5 calls)
     newd         :      0.68s CPU      1.04s WALL (       5 calls)
     mix_rho      :      0.21s CPU      0.22s WALL (       4 calls)

     Called by c_bands:
     init_us_2    :      0.02s CPU      0.02s WALL (       9 calls)
     regterg      :      0.34s CPU      0.34s WALL (       4 calls)

     Called by sum_band:
     sum_band:bec :      0.00s CPU      0.00s WALL (       4 calls)
     addusdens    :      0.63s CPU      0.85s WALL (       4 calls)

     Called by *egterg:
     h_psi        :      0.35s CPU      0.36s WALL (      13 calls)
     s_psi        :      0.01s CPU      0.00s WALL (      13 calls)
     g_psi        :      0.01s CPU      0.00s WALL (       8 calls)
     rdiaghg      :      0.01s CPU      0.00s WALL (      12 calls)

     Called by h_psi:
     h_psi:pot    :      0.34s CPU      0.35s WALL (      13 calls)
     h_psi:calbec :      0.00s CPU      0.00s WALL (      13 calls)
     vloc_psi     :      0.34s CPU      0.35s WALL (      13 calls)
     add_vuspsi   :      0.00s CPU      0.00s WALL (      13 calls)

     General routines
     calbec       :      0.00s CPU      0.01s WALL (      21 calls)
     fft          :      4.72s CPU      4.83s WALL (     228 calls)
     ffts         :      0.03s CPU      0.04s WALL (       9 calls)
     fftw         :      0.32s CPU      0.32s WALL (      62 calls)
     interpolate  :      0.16s CPU      0.17s WALL (       5 calls)
 
     Parallel routines
 
     Environ routines
     calc_eelect  :      0.00s CPU      0.01s WALL (       8 calls)
     calc_velect  :      6.93s CPU      7.61s WALL (       6 calls)
     dielectric   :      0.08s CPU      0.09s WALL (       2 calls)
     calc_felect  :      0.06s CPU      0.06s WALL (       1 calls)
 
     PWSCF        :     14.82s CPU     16.72s WALL

 
   This run was terminated on:  15:14:44  24Apr2019            

=------------------------------------------------------------------------------=
   JOB DONE.
=------------------------------------------------------------------------------=

%%%% IONS %%%%%%%%%%%%%%%%%%%%%%%%%%%%%%%%%%%%%%%%%%%%%%%%%%%%%%%%%%%%%%%%%%%%%%
 number of ions             =          3
 ionic center of charge     =      0.5921875     0.5886250     0.5750000
 total ionic charge         =     -8.0000000
 ionic dipole               =      0.0000000     0.0000000     0.0000000
 ionic quadrupole (pc)      =     -4.2453875    -2.0049500     0.0000000
 ionic quadrupole (gauss)   =     -5.2453875    -3.0049500    -1.0000000
 ion   1 type =  2 coordinates =     11.7900000    12.0500000    11.5000000
 ion   2 type =  1 coordinates =     13.4500000    11.2200000    11.5000000
 ion   3 type =  1 coordinates =     10.5600000    10.6600000    11.5000000

%%%% SYSTEM %%%%%%%%%%%%%%%%%%%%%%%%%%%%%%%%%%%%%%%%%%%%%%%%%%%%%%%%%%%%%%%%%%%%
 system is built from all present ionic types
 system defined dimension   =  0 
 system defined axis        =  3 
 system center              =      0.5921875     0.5886250     0.5750000 
 system width               =      0.0849363 

%%%% BOUNDARY %%%%%%%%%%%%%%%%%%%%%%%%%%%%%%%%%%%%%%%%%%%%%%%%%%%%%%%%%%%%%%%%%%
 boundary label             = solvent              
 boundary mode              = system               
 boundary is built as an analytic function centered on system position
 center of the boundary     =      0.5921875     0.5886250     0.5750000 
 distance from the center   =      6.0000000 
 spread of the interface    =      0.5000000 
 dimensionality             =  0 
 axis                       =  3 
 volume of the QM region    =    914.2034622 
 surface of the QM region   =    453.9601384 

%%%% DIELECTRIC %%%%%%%%%%%%%%%%%%%%%%%%%%%%%%%%%%%%%%%%%%%%%%%%%%%%%%%%%%%%%%%%%
 dielectric build on homogeneous background
 environment bulk permitt.  =    100.0000000 
 dielectric flags
 need gradient              =  F 
 need factor depend. sqrt   =  F 
 total dielectric charge    =      0.0000000

%%%% ELECTRONS %%%%%%%%%%%%%%%%%%%%%%%%%%%%%%%%%%%%%%%%%%%%%%%%%%%%%%%%%%%%%%%%%
 number of electrons        =          8
 total electronic charge    =      8.0000000

%%%% DENSITY %%%%%%%%%%%%%%%%%%%%%%%%%%%%%%%%%%%%%%%%%%%%%%%%%%%%%%%%%%%%%%%%%%%
 density label              = vreference                                                                      
 integral of density        =      0.000000000    

%%%% DENSITY %%%%%%%%%%%%%%%%%%%%%%%%%%%%%%%%%%%%%%%%%%%%%%%%%%%%%%%%%%%%%%%%%%%
 density label              = velectrostatic                                                                  
 integral of density        =      0.000000000    

%%%% CHARGES %%%%%%%%%%%%%%%%%%%%%%%%%%%%%%%%%%%%%%%%%%%%%%%%%%%%%%%%%%%%%%%%%%%
 total number of charges    =         11
 total charge               =     -0.0000000

%%%% ELECTRONS %%%%%%%%%%%%%%%%%%%%%%%%%%%%%%%%%%%%%%%%%%%%%%%%%%%%%%%%%%%%%%%%%
 number of electrons        =          8
 total electronic charge    =      8.0000000

%%%% DENSITY %%%%%%%%%%%%%%%%%%%%%%%%%%%%%%%%%%%%%%%%%%%%%%%%%%%%%%%%%%%%%%%%%%%
 density label              = vreference                                                                      
 integral of density        =     0.7973868479E-13

%%%% COMPUTE ELECTROSTATIC POTENTIAL %%%%%%%%%%%%%%%%%%%%%%%%%%%%%%%%%%%%%%%%%%%
 Starting from polarization: rhoiter =      0.000000 jellium =      0.000000
 Iteration #          1
 delta_qm =   0.633855E-03 delta_en =   0.694263E+00 tol =   0.100000E-04
 Iteration #          2
 delta_qm =   0.351567E-03 delta_en =   0.213580E+00 tol =   0.100000E-04
 Iteration #          3
 delta_qm =   0.262959E-03 delta_en =   0.119486E+00 tol =   0.100000E-04
 Iteration #          4
 delta_qm =   0.182833E-03 delta_en =   0.577635E-01 tol =   0.100000E-04
 Iteration #          5
 delta_qm =   0.115701E-03 delta_en =   0.231321E-01 tol =   0.100000E-04
 Iteration #          6
 delta_qm =   0.844431E-04 delta_en =   0.123217E-01 tol =   0.100000E-04
 Iteration #          7
 delta_qm =   0.575103E-04 delta_en =   0.571525E-02 tol =   0.100000E-04
 Iteration #          8
 delta_qm =   0.367042E-04 delta_en =   0.232796E-02 tol =   0.100000E-04
 Iteration #          9
 delta_qm =   0.271598E-04 delta_en =   0.127467E-02 tol =   0.100000E-04
 Iteration #         10
 delta_qm =   0.184733E-04 delta_en =   0.589700E-03 tol =   0.100000E-04
 Iteration #         11
 delta_qm =   0.126429E-04 delta_en =   0.276206E-03 tol =   0.100000E-04
 Iteration #         12
 delta_qm =   0.922978E-05 delta_en =   0.147206E-03 tol =   0.100000E-04
 Iteration #         13
 delta_qm =   0.610408E-05 delta_en =   0.643849E-04 tol =   0.100000E-04
 Iteration #         14
 delta_qm =   0.445187E-05 delta_en =   0.342474E-04 tol =   0.100000E-04
 Iteration #         15
 delta_qm =   0.326617E-05 delta_en =   0.184341E-04 tol =   0.100000E-04
 Iteration #         16
 delta_qm =   0.205774E-05 delta_en =   0.731687E-05 tol =   0.100000E-04
 Charges are converged, EXIT

%%%% DENSITY %%%%%%%%%%%%%%%%%%%%%%%%%%%%%%%%%%%%%%%%%%%%%%%%%%%%%%%%%%%%%%%%%%%
 density label              = velectrostatic                                                                  
 integral of density        =     0.1401348173E-13

%%%% CHARGES %%%%%%%%%%%%%%%%%%%%%%%%%%%%%%%%%%%%%%%%%%%%%%%%%%%%%%%%%%%%%%%%%%%
 total number of charges    =         11
 total charge               =      0.0000000

%%%% ELECTRONS %%%%%%%%%%%%%%%%%%%%%%%%%%%%%%%%%%%%%%%%%%%%%%%%%%%%%%%%%%%%%%%%%
 number of electrons        =          8
 total electronic charge    =      8.0000000

%%%% DENSITY %%%%%%%%%%%%%%%%%%%%%%%%%%%%%%%%%%%%%%%%%%%%%%%%%%%%%%%%%%%%%%%%%%%
 density label              = vreference                                                                      
 integral of density        =     0.1199369822E-12

%%%% COMPUTE ELECTROSTATIC POTENTIAL %%%%%%%%%%%%%%%%%%%%%%%%%%%%%%%%%%%%%%%%%%%
 Starting from polarization: rhoiter =      0.170175 jellium =      0.000000
 Iteration #          1
 delta_qm =   0.168043E-03 delta_en =   0.487960E-01 tol =   0.100000E-04
 Iteration #          2
 delta_qm =   0.957986E-04 delta_en =   0.158585E-01 tol =   0.100000E-04
 Iteration #          3
 delta_qm =   0.650366E-04 delta_en =   0.730902E-02 tol =   0.100000E-04
 Iteration #          4
 delta_qm =   0.410913E-04 delta_en =   0.291772E-02 tol =   0.100000E-04
 Iteration #          5
 delta_qm =   0.258118E-04 delta_en =   0.115127E-02 tol =   0.100000E-04
 Iteration #          6
 delta_qm =   0.180970E-04 delta_en =   0.565920E-03 tol =   0.100000E-04
 Iteration #          7
 delta_qm =   0.115220E-04 delta_en =   0.229403E-03 tol =   0.100000E-04
 Iteration #          8
 delta_qm =   0.701377E-05 delta_en =   0.850055E-04 tol =   0.100000E-04
 Iteration #          9
 delta_qm =   0.554101E-05 delta_en =   0.530545E-04 tol =   0.100000E-04
 Iteration #         10
 delta_qm =   0.348221E-05 delta_en =   0.209534E-04 tol =   0.100000E-04
 Iteration #         11
 delta_qm =   0.220184E-05 delta_en =   0.837754E-05 tol =   0.100000E-04
 Charges are converged, EXIT

%%%% DENSITY %%%%%%%%%%%%%%%%%%%%%%%%%%%%%%%%%%%%%%%%%%%%%%%%%%%%%%%%%%%%%%%%%%%
 density label              = velectrostatic                                                                  
 integral of density        =    -0.5085643840E-13

%%%% CHARGES %%%%%%%%%%%%%%%%%%%%%%%%%%%%%%%%%%%%%%%%%%%%%%%%%%%%%%%%%%%%%%%%%%%
 total number of charges    =         11
 total charge               =     -0.0000000

%%%% ELECTRONS %%%%%%%%%%%%%%%%%%%%%%%%%%%%%%%%%%%%%%%%%%%%%%%%%%%%%%%%%%%%%%%%%
 number of electrons        =          8
 total electronic charge    =      8.0000000

%%%% DENSITY %%%%%%%%%%%%%%%%%%%%%%%%%%%%%%%%%%%%%%%%%%%%%%%%%%%%%%%%%%%%%%%%%%%
 density label              = vreference                                                                      
 integral of density        =     0.1046076805E-13

%%%% COMPUTE ELECTROSTATIC POTENTIAL %%%%%%%%%%%%%%%%%%%%%%%%%%%%%%%%%%%%%%%%%%%
 Starting from polarization: rhoiter =      0.109570 jellium =      0.000000
 Iteration #          1
 delta_qm =   0.201996E-03 delta_en =   0.705064E-01 tol =   0.100000E-04
 Iteration #          2
 delta_qm =   0.122662E-03 delta_en =   0.259994E-01 tol =   0.100000E-04
 Iteration #          3
 delta_qm =   0.662933E-04 delta_en =   0.759421E-02 tol =   0.100000E-04
 Iteration #          4
 delta_qm =   0.353832E-04 delta_en =   0.216341E-02 tol =   0.100000E-04
 Iteration #          5
 delta_qm =   0.225429E-04 delta_en =   0.878140E-03 tol =   0.100000E-04
 Iteration #          6
 delta_qm =   0.952509E-05 delta_en =   0.156777E-03 tol =   0.100000E-04
 Iteration #          7
 delta_qm =   0.602033E-05 delta_en =   0.626303E-04 tol =   0.100000E-04
 Iteration #          8
 delta_qm =   0.317305E-05 delta_en =   0.173979E-04 tol =   0.100000E-04
 Iteration #          9
 delta_qm =   0.191818E-05 delta_en =   0.635803E-05 tol =   0.100000E-04
 Charges are converged, EXIT

%%%% DENSITY %%%%%%%%%%%%%%%%%%%%%%%%%%%%%%%%%%%%%%%%%%%%%%%%%%%%%%%%%%%%%%%%%%%
 density label              = velectrostatic                                                                  
 integral of density        =     0.2039520816E-12

%%%% CHARGES %%%%%%%%%%%%%%%%%%%%%%%%%%%%%%%%%%%%%%%%%%%%%%%%%%%%%%%%%%%%%%%%%%%
 total number of charges    =         11
 total charge               =     -0.0000000

%%%% ELECTRONS %%%%%%%%%%%%%%%%%%%%%%%%%%%%%%%%%%%%%%%%%%%%%%%%%%%%%%%%%%%%%%%%%
 number of electrons        =          8
 total electronic charge    =      8.0000000

%%%% DENSITY %%%%%%%%%%%%%%%%%%%%%%%%%%%%%%%%%%%%%%%%%%%%%%%%%%%%%%%%%%%%%%%%%%%
 density label              = vreference                                                                      
 integral of density        =     0.1046076805E-13

%%%% DENSITY %%%%%%%%%%%%%%%%%%%%%%%%%%%%%%%%%%%%%%%%%%%%%%%%%%%%%%%%%%%%%%%%%%%
 density label              = velectrostatic                                                                  
 integral of density        =     0.2039520816E-12

%%%% CHARGES %%%%%%%%%%%%%%%%%%%%%%%%%%%%%%%%%%%%%%%%%%%%%%%%%%%%%%%%%%%%%%%%%%%
 total number of charges    =         11
 total charge               =     -0.0000000
