
     Program PWSCF v.6.7MaX starts on  1Oct2021 at 20:28: 0 

     This program is part of the open-source Quantum ESPRESSO suite
     for quantum simulation of materials; please cite
         "P. Giannozzi et al., J. Phys.:Condens. Matter 21 395502 (2009);
         "P. Giannozzi et al., J. Phys.:Condens. Matter 29 465901 (2017);
          URL http://www.quantum-espresso.org", 
     in publications or presentations arising from this work. More details at
     http://www.quantum-espresso.org/quote

     Parallel version (MPI), running on     1 processors

     MPI processes distributed on     1 nodes
     Reading input from charged.in

     Current dimensions of program PWSCF are:
     Max number of different atomic species (ntypx) = 10
     Max number of k-points (npk) =  40000
     Max angular momentum in pseudopotentials (lmaxx) =  3

     Reading input from environ.in

     ================================================================================

     Reading ENVIRON namelist

     Reading BOUNDARY namelist

     Checking boundary derivatives
     derivatives               = chain          ! SCCS default

     Reading ELECTROSTATIC namelist

     Setting up electrostatic problem
     problem                   = generalized    
     solver                    = cg             

     Checking PBC correction
     pbc_correction            = none           ! default

     ================================================================================
 
     file C.pbe-rrkjus.UPF: wavefunction(s)  2S 2P renormalized
     file H.pbe-rrkjus.UPF: wavefunction(s)  1S renormalized
     file N.pbe-rrkjus.UPF: wavefunction(s)  2S renormalized
     file O.pbe-rrkjus.UPF: wavefunction(s)  2S renormalized

     gamma-point specific algorithms are used

     Subspace diagonalization in iterative solution of the eigenvalue problem:
     a serial algorithm will be used

 
     G-vector sticks info
     --------------------
     sticks:   dense  smooth     PW     G-vecs:    dense   smooth      PW
     Sum        9549    3809    949               701475   177509   22119
 


     bravais-lattice index     =            1
     lattice parameter (alat)  =      20.0000  a.u.
     unit-cell volume          =    8000.0000 (a.u.)^3
     number of atoms/cell      =           10
     number of atomic types    =            4
     number of electrons       =        24.00
     number of Kohn-Sham states=           12
     kinetic-energy cutoff     =      30.0000  Ry
     charge density cutoff     =     300.0000  Ry
     scf convergence threshold =      5.0E-06
     mixing beta               =       0.7000
     number of iterations used =            8  plain     mixing
     Exchange-correlation= SLA  PW   PBE  PBE
                           (   1   4   3   4   0   0   0)
 

     Environ Module
     ==============

     Please cite
         O. Andreussi, I. Dabo and N. Marzari, J. Chem. Phys. 136, 064102 (2012)         
     in publications or presentations arising from this work.

     compensation onset threshold      =               0.1000E+03
     static permittivity               =                   100.00
     epsilon calculation mode          =                   system

     Electrostatic Setup
     -------------------
     electrostatic problem to solve    = generalized             
     numerical solver adopted          = cg                      
     type of auxiliary density adopted = none                    
     type of core tool for poisson     = fft                     



     celldm(1)=  20.000000  celldm(2)=   0.000000  celldm(3)=   0.000000
     celldm(4)=   0.000000  celldm(5)=   0.000000  celldm(6)=   0.000000

     crystal axes: (cart. coord. in units of alat)
               a(1) = (   1.000000   0.000000   0.000000 )  
               a(2) = (   0.000000   1.000000   0.000000 )  
               a(3) = (   0.000000   0.000000   1.000000 )  

     reciprocal axes: (cart. coord. in units 2 pi/alat)
               b(1) = (  1.000000  0.000000  0.000000 )  
               b(2) = (  0.000000  1.000000  0.000000 )  
               b(3) = (  0.000000  0.000000  1.000000 )  


     PseudoPot. # 1 for C  read from file:
     /home/simplogic86/Work/QE1/Environ/tests/../..//pseudo/C.pbe-rrkjus.UPF
     MD5 check sum: c9ac5a99bc85b198593446162950cd17
     Pseudo is Ultrasoft, Zval =  4.0
     Generated by new atomic code, or converted to UPF format
     Using radial grid of  627 points,  4 beta functions with: 
                l(1) =   0
                l(2) =   0
                l(3) =   1
                l(4) =   1
     Q(r) pseudized with 0 coefficients 


     PseudoPot. # 2 for H  read from file:
     /home/simplogic86/Work/QE1/Environ/tests/../..//pseudo/H.pbe-rrkjus.UPF
     MD5 check sum: 2d52a7f45632fd764c17cc6affed14c8
     Pseudo is Ultrasoft, Zval =  1.0
     Generated by new atomic code, or converted to UPF format
     Using radial grid of 1061 points,  2 beta functions with: 
                l(1) =   0
                l(2) =   0
     Q(r) pseudized with 0 coefficients 


     PseudoPot. # 3 for N  read from file:
     /home/simplogic86/Work/QE1/Environ/tests/../..//pseudo/N.pbe-rrkjus.UPF
     MD5 check sum: 28c76d763763edb36c62a6ca2be9aebd
     Pseudo is Ultrasoft, Zval =  5.0
     Generated by new atomic code, or converted to UPF format
     Using radial grid of 1257 points,  4 beta functions with: 
                l(1) =   0
                l(2) =   0
                l(3) =   1
                l(4) =   1
     Q(r) pseudized with 0 coefficients 


     PseudoPot. # 4 for O  read from file:
     /home/simplogic86/Work/QE1/Environ/tests/../..//pseudo/O.pbe-rrkjus.UPF
     MD5 check sum: fadcf19ee70a498d3030e2e79cf929a4
     Pseudo is Ultrasoft, Zval =  6.0
     Generated by new atomic code, or converted to UPF format
     Using radial grid of 1269 points,  4 beta functions with: 
                l(1) =   0
                l(2) =   0
                l(3) =   1
                l(4) =   1
     Q(r) pseudized with 0 coefficients 


     atomic species   valence    mass     pseudopotential
        C              4.00    12.00000     C ( 1.00)
        H              1.00     1.00000     H ( 1.00)
        N              5.00    14.00000     N ( 1.00)
        O              6.00    16.00000     O ( 1.00)

     No symmetry found



   Cartesian axes

     site n.     atom                  positions (alat units)
         1           C   tau(   1) = (   0.0000000   0.0000000   0.0000000  )
         2           C   tau(   2) = (   0.0000000   0.0000000   0.1455089  )
         3           N   tau(   3) = (   0.1170969   0.0000000  -0.0545024  )
         4           H   tau(   4) = (   0.0476617  -0.0825466   0.1792090  )
         5           H   tau(   5) = (  -0.0953183  -0.0000030   0.1792090  )
         6           H   tau(   6) = (   0.0476566   0.0825496   0.1792090  )
         7           O   tau(   7) = (  -0.0984002  -0.0000019  -0.0641310  )
         8           H   tau(   8) = (   0.1263131  -0.0000015  -0.1475548  )
         9           H   tau(   9) = (   0.1944645   0.0000134  -0.0025716  )
        10           H   tau(  10) = (  -0.0770366  -0.0000045  -0.1522861  )

     number of k points=     1
                       cart. coord. in units 2pi/alat
        k(    1) = (   0.0000000   0.0000000   0.0000000), wk =   2.0000000

     Dense  grid:   350738 G-vectors     FFT dimensions: ( 120, 120, 120)

     Smooth grid:    88755 G-vectors     FFT dimensions: (  72,  72,  72)

     Estimated max dynamical RAM per process >     624.11 MB

     Initial potential from superposition of free atoms

     starting charge   24.42266, renormalised to   24.00000

     negative rho (up, down):  4.438E-04 0.000E+00
     Starting wfcs are   22 randomized atomic wfcs

     total cpu time spent up to now is        5.4 secs

     Self-consistent Calculation

     iteration #  1     ecut=    30.00 Ry     beta= 0.70
     Davidson diagonalization with overlap
     ethr =  1.00E-02,  avg # of iterations =  2.0

     negative rho (up, down):  1.234E-04 0.000E+00

     add environment contribution to local potential
     Polarization accuracy = 5.5E-06, # of iterations =  13

     total cpu time spent up to now is        9.0 secs

     total energy              =     -80.29562589 Ry
     estimated scf accuracy    <       3.64924908 Ry
     electrostatic embedding   =       0.00000000 Ry
     correction to one-el term =       0.00000000 Ry

     iteration #  2     ecut=    30.00 Ry     beta= 0.70
     Davidson diagonalization with overlap
     ethr =  1.00E-02,  avg # of iterations =  5.0

     negative rho (up, down):  6.338E-04 0.000E+00

     add environment contribution to local potential
     Polarization accuracy = 8.6E-06, # of iterations =  13

     total cpu time spent up to now is       13.3 secs

     total energy              =     -81.11811632 Ry
     estimated scf accuracy    <       1.32122971 Ry
     electrostatic embedding   =      -0.27437776 Ry
     correction to one-el term =      -5.04308397 Ry

     iteration #  3     ecut=    30.00 Ry     beta= 0.70
     Davidson diagonalization with overlap
     ethr =  5.51E-03,  avg # of iterations =  4.0

     negative rho (up, down):  2.812E-04 0.000E+00

     add environment contribution to local potential
     Polarization accuracy = 7.4E-06, # of iterations =  13

     total cpu time spent up to now is       17.0 secs

     total energy              =     -81.39299336 Ry
     estimated scf accuracy    <       0.16227394 Ry
     electrostatic embedding   =      -0.23913480 Ry
     correction to one-el term =      -4.57982577 Ry

     iteration #  4     ecut=    30.00 Ry     beta= 0.70
     Davidson diagonalization with overlap
     ethr =  6.76E-04,  avg # of iterations =  4.0

     negative rho (up, down):  7.463E-05 0.000E+00

     add environment contribution to local potential
     Polarization accuracy = 7.6E-06, # of iterations =  13

     total cpu time spent up to now is       20.1 secs

     total energy              =     -81.43739954 Ry
     estimated scf accuracy    <       0.01566845 Ry
     electrostatic embedding   =      -0.19473973 Ry
     correction to one-el term =      -4.19826541 Ry

     iteration #  5     ecut=    30.00 Ry     beta= 0.70
     Davidson diagonalization with overlap
     ethr =  6.53E-05,  avg # of iterations =  4.0

     negative rho (up, down):  7.922E-05 0.000E+00

     add environment contribution to local potential
     Polarization accuracy = 7.6E-06, # of iterations =  13

     total cpu time spent up to now is       23.1 secs

     total energy              =     -81.44107291 Ry
     estimated scf accuracy    <       0.00133724 Ry
     electrostatic embedding   =      -0.17499217 Ry
     correction to one-el term =      -3.87917272 Ry

     iteration #  6     ecut=    30.00 Ry     beta= 0.70
     Davidson diagonalization with overlap
     ethr =  5.57E-06,  avg # of iterations =  3.0

     negative rho (up, down):  1.125E-04 0.000E+00

     add environment contribution to local potential
     Polarization accuracy = 7.7E-06, # of iterations =  13

     total cpu time spent up to now is       26.9 secs

     total energy              =     -81.44145810 Ry
     estimated scf accuracy    <       0.00017689 Ry
     electrostatic embedding   =      -0.17320681 Ry
     correction to one-el term =      -3.84226282 Ry

     iteration #  7     ecut=    30.00 Ry     beta= 0.70
     Davidson diagonalization with overlap
     ethr =  7.37E-07,  avg # of iterations =  2.0

     negative rho (up, down):  2.571E-04 0.000E+00

     add environment contribution to local potential
     Polarization accuracy = 7.8E-06, # of iterations =  13

     total cpu time spent up to now is       30.8 secs

     total energy              =     -81.44149755 Ry
     estimated scf accuracy    <       0.00001051 Ry
     electrostatic embedding   =      -0.17263732 Ry
     correction to one-el term =      -3.82774081 Ry

     iteration #  8     ecut=    30.00 Ry     beta= 0.70
     Davidson diagonalization with overlap
     ethr =  4.38E-08,  avg # of iterations =  5.0

     negative rho (up, down):  2.797E-04 0.000E+00

     add environment contribution to local potential
     Polarization accuracy = 7.8E-06, # of iterations =  13

     total cpu time spent up to now is       33.9 secs

     total energy              =     -81.44150734 Ry
     estimated scf accuracy    <       0.00000704 Ry
     electrostatic embedding   =      -0.17213081 Ry
     correction to one-el term =      -3.81854601 Ry

     iteration #  9     ecut=    30.00 Ry     beta= 0.70
     Davidson diagonalization with overlap
     ethr =  2.93E-08,  avg # of iterations =  3.0

     negative rho (up, down):  2.728E-04 0.000E+00

     the potential shift due to the Gaussian-smeared nuclei is    -0.0668 ev

     total cpu time spent up to now is       35.2 secs

     End of self-consistent calculation

          k = 0.0000 0.0000 0.0000 ( 11060 PWs)   bands (ev):

   -29.2801 -23.1866 -18.5397 -16.1110 -14.7023 -13.3913 -11.9001 -11.0185
    -9.4032  -9.3706  -9.0676  -7.5189

     highest occupied level (ev):    -7.5189

!    total energy              =     -81.44150531 Ry
     estimated scf accuracy    <       0.00000036 Ry

     The total energy is the sum of the following terms:
     one-electron contribution =    -241.93778934 Ry
     hartree contribution      =     123.07437629 Ry
     xc contribution           =     -22.89588291 Ry
     ewald contribution        =      64.30784069 Ry
     electrostatic embedding   =      -0.17212516 Ry
     correction to one-el term =      -3.81792488 Ry

     convergence has been achieved in   9 iterations

     Forces acting on atoms (cartesian axes, Ry/au):

     atom    1 type  1   force =     0.23379605    0.00000207    0.11337261
     atom    2 type  1   force =    -0.03856506    0.00000160   -0.08948622
     atom    3 type  3   force =    -0.15280617   -0.00000086    0.03742485
     atom    4 type  2   force =     0.02606422   -0.04982038    0.04437724
     atom    5 type  2   force =    -0.07496648   -0.00000188    0.06819134
     atom    6 type  2   force =     0.02606174    0.04982331    0.04438092
     atom    7 type  4   force =    -0.10982468   -0.00000861   -0.02503487
     atom    8 type  2   force =     0.04545471    0.00000138   -0.11478462
     atom    9 type  2   force =     0.08061101    0.00000442    0.03005094
     atom   10 type  2   force =    -0.03582535   -0.00000103   -0.10849218

     Total force =     0.413130     Total SCF correction =     0.000696

     Writing output data file /home/simplogic86/Work/QE1/Environ/tests/../..//tempdir/pwscf.save/
 
     init_run     :      5.01s CPU      5.31s WALL (       1 calls)
     electrons    :     27.22s CPU     29.87s WALL (       1 calls)
     forces       :      1.10s CPU      1.20s WALL (       1 calls)

     Called by init_run:
     wfcinit      :      0.13s CPU      0.15s WALL (       1 calls)
     potinit      :      0.59s CPU      0.65s WALL (       1 calls)
     hinit0       :      3.79s CPU      3.81s WALL (       1 calls)

     Called by electrons:
     c_bands      :      1.87s CPU      2.05s WALL (       9 calls)
     sum_band     :      3.87s CPU      4.51s WALL (       9 calls)
     v_of_rho     :      4.30s CPU      4.74s WALL (      10 calls)
     newd         :      2.63s CPU      3.39s WALL (      10 calls)
     mix_rho      :      0.49s CPU      0.49s WALL (       9 calls)

     Called by c_bands:
     init_us_2    :      0.07s CPU      0.07s WALL (      19 calls)
     regterg      :      1.75s CPU      1.93s WALL (       9 calls)

     Called by *egterg:
     rdiaghg      :      0.01s CPU      0.02s WALL (      41 calls)
     h_psi        :      1.69s CPU      1.85s WALL (      42 calls)
     s_psi        :      0.04s CPU      0.04s WALL (      42 calls)
     g_psi        :      0.01s CPU      0.01s WALL (      32 calls)

     Called by h_psi:
     h_psi:calbec :      0.04s CPU      0.04s WALL (      42 calls)
     vloc_psi     :      1.60s CPU      1.75s WALL (      42 calls)
     add_vuspsi   :      0.05s CPU      0.05s WALL (      42 calls)

     General routines
     calbec       :      0.05s CPU      0.06s WALL (      55 calls)
     fft          :      1.94s CPU      2.04s WALL (     110 calls)
     ffts         :      0.06s CPU      0.06s WALL (      19 calls)
     fftw         :      1.35s CPU      1.47s WALL (     406 calls)
     interpolate  :      0.26s CPU      0.26s WALL (      10 calls)
 
     Parallel routines
 
     Environ routines
 
     PWSCF        :     33.39s CPU     36.46s WALL

 
   This run was terminated on:  20:28:36   1Oct2021            

=------------------------------------------------------------------------------=
   JOB DONE.
=------------------------------------------------------------------------------=

%%%% CELL %%%%%%%%%%%%%%%%%%%%%%%%%%%%%%%%%%%%%%%%%%%%%%%%%%%%%%%%%%%%%%%%%%%%%%

 cell label                 = system         

 cell volume                =    8000.000000

%%%% IONS %%%%%%%%%%%%%%%%%%%%%%%%%%%%%%%%%%%%%%%%%%%%%%%%%%%%%%%%%%%%%%%%%%%%%%

 total charge               =    -25.0000000
 center of charge           =      0.1910593    -0.0000030     0.1279620
 dipole                     =      0.0000000     0.0000000     0.0000000
 quadrupole (pc)            =    -79.0828051    -5.4513517  -105.8059620
 quadrupole (gauss)         =    -82.2078051    -8.5763517  -108.9309620

   i | type | coordinates
 -----------------------------------------------------------------------
   1 |    1 |                      0.0000000     0.0000000     0.0000000
   2 |    1 |                      0.0000000     0.0000000     2.9101782
   3 |    3 |                      2.3419379     0.0000000    -1.0900479
   4 |    2 |                      0.9532347    -1.6509323     3.5841800
   5 |    2 |                     -1.9063663    -0.0000596     3.5841809
   6 |    2 |                      0.9531315     1.6509919     3.5841800
   7 |    4 |                     -1.9680045    -0.0000375    -1.2826193
   8 |    2 |                      2.5262613    -0.0000303    -2.9510950
   9 |    2 |                      3.8892907     0.0002681    -0.0514326
  10 |    2 |                     -1.5407317    -0.0000890    -3.0457220

%%%% SYSTEM %%%%%%%%%%%%%%%%%%%%%%%%%%%%%%%%%%%%%%%%%%%%%%%%%%%%%%%%%%%%%%%%%%%%

 system is built from all present ionic types

 system defined dimension   =              0
 system defined axis        =              3

 system center              =      0.1910593    -0.0000030     0.1279620
 system width               =      4.0428509

%%%% IONS %%%%%%%%%%%%%%%%%%%%%%%%%%%%%%%%%%%%%%%%%%%%%%%%%%%%%%%%%%%%%%%%%%%%%%

 total charge               =    -25.0000000
 center of charge           =      0.1910593    -0.0000030     0.1279620
 dipole                     =      0.0000000     0.0000000     0.0000000
 quadrupole (pc)            =    -79.0828051    -5.4513517  -105.8059620
 quadrupole (gauss)         =    -82.2078051    -8.5763517  -108.9309620

   i | type | coordinates
 -----------------------------------------------------------------------
   1 |    1 |                      0.0000000     0.0000000     0.0000000
   2 |    1 |                      0.0000000     0.0000000     2.9101782
   3 |    3 |                      2.3419379     0.0000000    -1.0900479
   4 |    2 |                      0.9532347    -1.6509323     3.5841800
   5 |    2 |                     -1.9063663    -0.0000596     3.5841809
   6 |    2 |                      0.9531315     1.6509919     3.5841800
   7 |    4 |                     -1.9680045    -0.0000375    -1.2826193
   8 |    2 |                      2.5262613    -0.0000303    -2.9510950
   9 |    2 |                      3.8892907     0.0002681    -0.0514326
  10 |    2 |                     -1.5407317    -0.0000890    -3.0457220

%%%% SYSTEM %%%%%%%%%%%%%%%%%%%%%%%%%%%%%%%%%%%%%%%%%%%%%%%%%%%%%%%%%%%%%%%%%%%%

 system is built from all present ionic types

 system defined dimension   =              0
 system defined axis        =              3

 system center              =      0.1910593    -0.0000030     0.1279620
 system width               =      4.0428509

%%%% BOUNDARY %%%%%%%%%%%%%%%%%%%%%%%%%%%%%%%%%%%%%%%%%%%%%%%%%%%%%%%%%%%%%%%%%%

 boundary label             = solvent             
 boundary mode              = system              

 boundary is built as an analytic function centered on system position:
 center of the boundary     =      0.1910593    -0.0000030     0.1279620
 distance from the center   =      6.0000000
 spread of the interface    =      0.5000000
 dimensionality             =              0
 axis                       =              3

 volume of the QM region    =    914.2034622

 surface of the QM region   =    453.9601384

%%%% CHARGES %%%%%%%%%%%%%%%%%%%%%%%%%%%%%%%%%%%%%%%%%%%%%%%%%%%%%%%%%%%%%%%%%%%

 total number of charges    =             11

 total charge               =    -25.0000000

%%%% CHARGES %%%%%%%%%%%%%%%%%%%%%%%%%%%%%%%%%%%%%%%%%%%%%%%%%%%%%%%%%%%%%%%%%%%

 total number of charges    =             11

 total charge               =    -25.0000000

%%%% CELL %%%%%%%%%%%%%%%%%%%%%%%%%%%%%%%%%%%%%%%%%%%%%%%%%%%%%%%%%%%%%%%%%%%%%%

 cell label                 = system         

 cell volume                =    8000.000000

%%%% ELECTRONS %%%%%%%%%%%%%%%%%%%%%%%%%%%%%%%%%%%%%%%%%%%%%%%%%%%%%%%%%%%%%%%%%

 number of electrons        =             24

 total electronic charge    =     24.0000000

%%%% ELECTRONS %%%%%%%%%%%%%%%%%%%%%%%%%%%%%%%%%%%%%%%%%%%%%%%%%%%%%%%%%%%%%%%%%

 number of electrons        =             24

 total electronic charge    =     24.0000000

%%%% CHARGES %%%%%%%%%%%%%%%%%%%%%%%%%%%%%%%%%%%%%%%%%%%%%%%%%%%%%%%%%%%%%%%%%%%

 total number of charges    =             34

 total charge               =     -1.0000000

%%%% CHARGES %%%%%%%%%%%%%%%%%%%%%%%%%%%%%%%%%%%%%%%%%%%%%%%%%%%%%%%%%%%%%%%%%%%

 total number of charges    =             34

 total charge               =     -1.0000000

%%%% DENSITY %%%%%%%%%%%%%%%%%%%%%%%%%%%%%%%%%%%%%%%%%%%%%%%%%%%%%%%%%%%%%%%%%%%

 density label              = dvtot                                             

 integral of density        =    0.000000000    

%%%% DENSITY %%%%%%%%%%%%%%%%%%%%%%%%%%%%%%%%%%%%%%%%%%%%%%%%%%%%%%%%%%%%%%%%%%%

 density label              = vreference                                        

 integral of density        =    0.000000000    

%%%% DENSITY %%%%%%%%%%%%%%%%%%%%%%%%%%%%%%%%%%%%%%%%%%%%%%%%%%%%%%%%%%%%%%%%%%%

 density label              = velectrostatic                                    

 integral of density        =    0.000000000    

%%%% CHARGES %%%%%%%%%%%%%%%%%%%%%%%%%%%%%%%%%%%%%%%%%%%%%%%%%%%%%%%%%%%%%%%%%%%

 total number of charges    =             34

 total charge               =     -1.0000000

%%%% ELECTRONS %%%%%%%%%%%%%%%%%%%%%%%%%%%%%%%%%%%%%%%%%%%%%%%%%%%%%%%%%%%%%%%%%

 number of electrons        =             24

 total electronic charge    =     24.0000000

%%%% ELECTRONS %%%%%%%%%%%%%%%%%%%%%%%%%%%%%%%%%%%%%%%%%%%%%%%%%%%%%%%%%%%%%%%%%

 number of electrons        =             24

 total electronic charge    =     24.0000000

%%%% CHARGES %%%%%%%%%%%%%%%%%%%%%%%%%%%%%%%%%%%%%%%%%%%%%%%%%%%%%%%%%%%%%%%%%%%

 total number of charges    =             34

 total charge               =     -1.0000000

%%%% CHARGES %%%%%%%%%%%%%%%%%%%%%%%%%%%%%%%%%%%%%%%%%%%%%%%%%%%%%%%%%%%%%%%%%%%

 total number of charges    =             34

 total charge               =     -1.0000000

%%%% DENSITY %%%%%%%%%%%%%%%%%%%%%%%%%%%%%%%%%%%%%%%%%%%%%%%%%%%%%%%%%%%%%%%%%%%

 density label              = vreference                                        

 integral of density        =  -0.6906738556E-12

%%%% COMPUTE ELECTROSTATIC POTENTIAL %%%%%%%%%%%%%%%%%%%%%%%%%%%%%%%%%%%%%%%%%%%

   i |      alpha     |       pAp      |      rzold     |    delta_qm    |    delta_en    |       tol
 ---------------------------------------------------------------------------------------------------------
   1 |   0.955671E+00 |   0.936381E+02 |   0.894871E+02 |   0.216038E-01 |   0.806503E+03 |   0.100000E-04
   2 |   0.119235E+00 |   0.219356E+03 |   0.261548E+02 |   0.590500E-02 |   0.602537E+02 |   0.100000E-04
   3 |   0.197245E+00 |   0.449636E+01 |   0.886884E+00 |   0.247356E-02 |   0.105728E+02 |   0.100000E-04
   4 |   0.299710E+00 |   0.278532E+00 |   0.834787E-01 |   0.130297E-02 |   0.293369E+01 |   0.100000E-04
   5 |   0.240445E+00 |   0.424973E-01 |   0.102183E-01 |   0.923462E-03 |   0.147361E+01 |   0.100000E-04
   6 |   0.267152E+00 |   0.173783E-01 |   0.464264E-02 |   0.571971E-03 |   0.565316E+00 |   0.100000E-04
   7 |   0.438181E+00 |   0.262518E-02 |   0.115031E-02 |   0.302991E-03 |   0.158637E+00 |   0.100000E-04
   8 |   0.569398E+00 |   0.459581E-03 |   0.261685E-03 |   0.173090E-03 |   0.517713E-01 |   0.100000E-04
   9 |   0.637477E+00 |   0.170646E-03 |   0.108783E-03 |   0.694753E-04 |   0.834074E-02 |   0.100000E-04
  10 |   0.346105E+00 |   0.108686E-03 |   0.376168E-04 |   0.326128E-04 |   0.183789E-02 |   0.100000E-04
  11 |   0.293762E+00 |   0.365241E-04 |   0.107294E-04 |   0.146072E-04 |   0.368706E-03 |   0.100000E-04
  12 |   0.497869E+00 |   0.153018E-05 |   0.761826E-06 |   0.570077E-05 |   0.561580E-04 |   0.100000E-04
  13 |   0.571384E+00 |   0.175736E-06 |   0.100412E-06 |   0.179166E-05 |   0.554698E-05 |   0.100000E-04

 Charges are converged, EXIT

%%%% DENSITY %%%%%%%%%%%%%%%%%%%%%%%%%%%%%%%%%%%%%%%%%%%%%%%%%%%%%%%%%%%%%%%%%%%

 density label              = velectrostatic                                    

 integral of density        =   0.7598859813E-13

%%%% CHARGES %%%%%%%%%%%%%%%%%%%%%%%%%%%%%%%%%%%%%%%%%%%%%%%%%%%%%%%%%%%%%%%%%%%

 total number of charges    =             34

 total charge               =     -1.0000000

%%%% DENSITY %%%%%%%%%%%%%%%%%%%%%%%%%%%%%%%%%%%%%%%%%%%%%%%%%%%%%%%%%%%%%%%%%%%

 density label              = dvtot                                             

 integral of density        =  -0.1344541762E-12

%%%% ELECTRONS %%%%%%%%%%%%%%%%%%%%%%%%%%%%%%%%%%%%%%%%%%%%%%%%%%%%%%%%%%%%%%%%%

 number of electrons        =             24

 total electronic charge    =     24.0000000

%%%% ELECTRONS %%%%%%%%%%%%%%%%%%%%%%%%%%%%%%%%%%%%%%%%%%%%%%%%%%%%%%%%%%%%%%%%%

 number of electrons        =             24

 total electronic charge    =     24.0000000

%%%% CHARGES %%%%%%%%%%%%%%%%%%%%%%%%%%%%%%%%%%%%%%%%%%%%%%%%%%%%%%%%%%%%%%%%%%%

 total number of charges    =             34

 total charge               =     -1.0000000

%%%% CHARGES %%%%%%%%%%%%%%%%%%%%%%%%%%%%%%%%%%%%%%%%%%%%%%%%%%%%%%%%%%%%%%%%%%%

 total number of charges    =             34

 total charge               =     -1.0000000

%%%% DENSITY %%%%%%%%%%%%%%%%%%%%%%%%%%%%%%%%%%%%%%%%%%%%%%%%%%%%%%%%%%%%%%%%%%%

 density label              = vreference                                        

 integral of density        =  -0.1328254379E-11

%%%% COMPUTE ELECTROSTATIC POTENTIAL %%%%%%%%%%%%%%%%%%%%%%%%%%%%%%%%%%%%%%%%%%%

 Warning: Bad guess with residual norm =   0.796491E+03, reset to no guess

   i |      alpha     |       pAp      |      rzold     |    delta_qm    |    delta_en    |       tol
 ---------------------------------------------------------------------------------------------------------
   1 |   0.960857E+00 |   0.967517E+02 |   0.929646E+02 |   0.208161E-01 |   0.748762E+03 |   0.100000E-04
   2 |   0.120280E+00 |   0.198025E+03 |   0.238185E+02 |   0.565436E-02 |   0.552472E+02 |   0.100000E-04
   3 |   0.188495E+00 |   0.450825E+01 |   0.849780E+00 |   0.232926E-02 |   0.937517E+01 |   0.100000E-04
   4 |   0.273393E+00 |   0.270377E+00 |   0.739191E-01 |   0.141806E-02 |   0.347483E+01 |   0.100000E-04
   5 |   0.190558E+00 |   0.904592E-01 |   0.172378E-01 |   0.977155E-03 |   0.164995E+01 |   0.100000E-04
   6 |   0.358177E+00 |   0.117153E-01 |   0.419616E-02 |   0.571813E-03 |   0.565005E+00 |   0.100000E-04
   7 |   0.465339E+00 |   0.231839E-02 |   0.107884E-02 |   0.302536E-03 |   0.158160E+00 |   0.100000E-04
   8 |   0.569570E+00 |   0.455409E-03 |   0.259387E-03 |   0.173334E-03 |   0.519172E-01 |   0.100000E-04
   9 |   0.534707E+00 |   0.222953E-03 |   0.119215E-03 |   0.812908E-04 |   0.114190E-01 |   0.100000E-04
  10 |   0.303332E+00 |   0.202115E-03 |   0.613080E-04 |   0.363375E-04 |   0.228167E-02 |   0.100000E-04
  11 |   0.395061E+00 |   0.258108E-04 |   0.101968E-04 |   0.141419E-04 |   0.345588E-03 |   0.100000E-04
  12 |   0.528154E+00 |   0.126522E-05 |   0.668231E-06 |   0.554727E-05 |   0.531743E-04 |   0.100000E-04
  13 |   0.582786E+00 |   0.166500E-06 |   0.970339E-07 |   0.223637E-05 |   0.864232E-05 |   0.100000E-04

 Charges are converged, EXIT

%%%% DENSITY %%%%%%%%%%%%%%%%%%%%%%%%%%%%%%%%%%%%%%%%%%%%%%%%%%%%%%%%%%%%%%%%%%%

 density label              = velectrostatic                                    

 integral of density        =  -0.4912613526E-12

%%%% CHARGES %%%%%%%%%%%%%%%%%%%%%%%%%%%%%%%%%%%%%%%%%%%%%%%%%%%%%%%%%%%%%%%%%%%

 total number of charges    =             34

 total charge               =     -1.0000000

%%%% DENSITY %%%%%%%%%%%%%%%%%%%%%%%%%%%%%%%%%%%%%%%%%%%%%%%%%%%%%%%%%%%%%%%%%%%

 density label              = dvtot                                             

 integral of density        =  -0.8412858887E-12

%%%% ELECTRONS %%%%%%%%%%%%%%%%%%%%%%%%%%%%%%%%%%%%%%%%%%%%%%%%%%%%%%%%%%%%%%%%%

 number of electrons        =             24

 total electronic charge    =     24.0000000

%%%% ELECTRONS %%%%%%%%%%%%%%%%%%%%%%%%%%%%%%%%%%%%%%%%%%%%%%%%%%%%%%%%%%%%%%%%%

 number of electrons        =             24

 total electronic charge    =     24.0000000

%%%% CHARGES %%%%%%%%%%%%%%%%%%%%%%%%%%%%%%%%%%%%%%%%%%%%%%%%%%%%%%%%%%%%%%%%%%%

 total number of charges    =             34

 total charge               =     -1.0000000

%%%% CHARGES %%%%%%%%%%%%%%%%%%%%%%%%%%%%%%%%%%%%%%%%%%%%%%%%%%%%%%%%%%%%%%%%%%%

 total number of charges    =             34

 total charge               =     -1.0000000

%%%% DENSITY %%%%%%%%%%%%%%%%%%%%%%%%%%%%%%%%%%%%%%%%%%%%%%%%%%%%%%%%%%%%%%%%%%%

 density label              = vreference                                        

 integral of density        =  -0.4414575701E-12

%%%% COMPUTE ELECTROSTATIC POTENTIAL %%%%%%%%%%%%%%%%%%%%%%%%%%%%%%%%%%%%%%%%%%%

 Warning: Bad guess with residual norm =   0.640360E+03, reset to no guess

   i |      alpha     |       pAp      |      rzold     |    delta_qm    |    delta_en    |       tol
 ---------------------------------------------------------------------------------------------------------
   1 |   0.968069E+00 |   0.967961E+02 |   0.937054E+02 |   0.187767E-01 |   0.609233E+03 |   0.100000E-04
   2 |   0.119801E+00 |   0.163051E+03 |   0.195337E+02 |   0.528923E-02 |   0.483425E+02 |   0.100000E-04
   3 |   0.189135E+00 |   0.388800E+01 |   0.735357E+00 |   0.221474E-02 |   0.847599E+01 |   0.100000E-04
   4 |   0.286910E+00 |   0.219676E+00 |   0.630273E-01 |   0.131070E-02 |   0.296860E+01 |   0.100000E-04
   5 |   0.200929E+00 |   0.617687E-01 |   0.124111E-01 |   0.930514E-03 |   0.149620E+01 |   0.100000E-04
   6 |   0.330386E+00 |   0.119601E-01 |   0.395143E-02 |   0.556958E-03 |   0.536029E+00 |   0.100000E-04
   7 |   0.466498E+00 |   0.215453E-02 |   0.100508E-02 |   0.295774E-03 |   0.151169E+00 |   0.100000E-04
   8 |   0.583696E+00 |   0.430703E-03 |   0.251400E-03 |   0.164875E-03 |   0.469733E-01 |   0.100000E-04
   9 |   0.574151E+00 |   0.191179E-03 |   0.109766E-03 |   0.693528E-04 |   0.831135E-02 |   0.100000E-04
  10 |   0.295876E+00 |   0.152827E-03 |   0.452177E-04 |   0.331488E-04 |   0.189880E-02 |   0.100000E-04
  11 |   0.359560E+00 |   0.259439E-04 |   0.932840E-05 |   0.135048E-04 |   0.315151E-03 |   0.100000E-04
  12 |   0.523860E+00 |   0.116497E-05 |   0.610282E-06 |   0.529804E-05 |   0.485037E-04 |   0.100000E-04
  13 |   0.580895E+00 |   0.147959E-06 |   0.859486E-07 |   0.207520E-05 |   0.744159E-05 |   0.100000E-04

 Charges are converged, EXIT

%%%% DENSITY %%%%%%%%%%%%%%%%%%%%%%%%%%%%%%%%%%%%%%%%%%%%%%%%%%%%%%%%%%%%%%%%%%%

 density label              = velectrostatic                                    

 integral of density        =  -0.6523177060E-12

%%%% CHARGES %%%%%%%%%%%%%%%%%%%%%%%%%%%%%%%%%%%%%%%%%%%%%%%%%%%%%%%%%%%%%%%%%%%

 total number of charges    =             34

 total charge               =     -1.0000000

%%%% DENSITY %%%%%%%%%%%%%%%%%%%%%%%%%%%%%%%%%%%%%%%%%%%%%%%%%%%%%%%%%%%%%%%%%%%

 density label              = dvtot                                             

 integral of density        =  -0.7988856490E-12

%%%% ELECTRONS %%%%%%%%%%%%%%%%%%%%%%%%%%%%%%%%%%%%%%%%%%%%%%%%%%%%%%%%%%%%%%%%%

 number of electrons        =             24

 total electronic charge    =     24.0000000

%%%% ELECTRONS %%%%%%%%%%%%%%%%%%%%%%%%%%%%%%%%%%%%%%%%%%%%%%%%%%%%%%%%%%%%%%%%%

 number of electrons        =             24

 total electronic charge    =     24.0000000

%%%% CHARGES %%%%%%%%%%%%%%%%%%%%%%%%%%%%%%%%%%%%%%%%%%%%%%%%%%%%%%%%%%%%%%%%%%%

 total number of charges    =             34

 total charge               =     -1.0000000

%%%% CHARGES %%%%%%%%%%%%%%%%%%%%%%%%%%%%%%%%%%%%%%%%%%%%%%%%%%%%%%%%%%%%%%%%%%%

 total number of charges    =             34

 total charge               =     -1.0000000

%%%% DENSITY %%%%%%%%%%%%%%%%%%%%%%%%%%%%%%%%%%%%%%%%%%%%%%%%%%%%%%%%%%%%%%%%%%%

 density label              = vreference                                        

 integral of density        =   0.1521745692E-12

%%%% COMPUTE ELECTROSTATIC POTENTIAL %%%%%%%%%%%%%%%%%%%%%%%%%%%%%%%%%%%%%%%%%%%

 Warning: Bad guess with residual norm =   0.560685E+03, reset to no guess

   i |      alpha     |       pAp      |      rzold     |    delta_qm    |    delta_en    |       tol
 ---------------------------------------------------------------------------------------------------------
   1 |   0.971834E+00 |   0.963257E+02 |   0.936126E+02 |   0.176234E-01 |   0.536687E+03 |   0.100000E-04
   2 |   0.120207E+00 |   0.141635E+03 |   0.170255E+02 |   0.508718E-02 |   0.447196E+02 |   0.100000E-04
   3 |   0.189149E+00 |   0.358560E+01 |   0.678212E+00 |   0.213655E-02 |   0.788803E+01 |   0.100000E-04
   4 |   0.281775E+00 |   0.215597E+00 |   0.607501E-01 |   0.127842E-02 |   0.282416E+01 |   0.100000E-04
   5 |   0.196838E+00 |   0.628440E-01 |   0.123701E-01 |   0.901546E-03 |   0.140449E+01 |   0.100000E-04
   6 |   0.340015E+00 |   0.107838E-01 |   0.366666E-02 |   0.540259E-03 |   0.504368E+00 |   0.100000E-04
   7 |   0.468982E+00 |   0.200299E-02 |   0.939366E-03 |   0.288075E-03 |   0.143402E+00 |   0.100000E-04
   8 |   0.578289E+00 |   0.413876E-03 |   0.239340E-03 |   0.161024E-03 |   0.448050E-01 |   0.100000E-04
   9 |   0.571340E+00 |   0.181130E-03 |   0.103487E-03 |   0.684656E-04 |   0.810007E-02 |   0.100000E-04
  10 |   0.297005E+00 |   0.147012E-03 |   0.436633E-04 |   0.325510E-04 |   0.183093E-02 |   0.100000E-04
  11 |   0.362352E+00 |   0.248090E-04 |   0.898958E-05 |   0.131350E-04 |   0.298127E-03 |   0.100000E-04
  12 |   0.522476E+00 |   0.112586E-05 |   0.588234E-06 |   0.520691E-05 |   0.468494E-04 |   0.100000E-04
  13 |   0.586134E+00 |   0.140128E-06 |   0.821338E-07 |   0.209445E-05 |   0.758025E-05 |   0.100000E-04

 Charges are converged, EXIT

%%%% DENSITY %%%%%%%%%%%%%%%%%%%%%%%%%%%%%%%%%%%%%%%%%%%%%%%%%%%%%%%%%%%%%%%%%%%

 density label              = velectrostatic                                    

 integral of density        =  -0.4558657978E-12

%%%% CHARGES %%%%%%%%%%%%%%%%%%%%%%%%%%%%%%%%%%%%%%%%%%%%%%%%%%%%%%%%%%%%%%%%%%%

 total number of charges    =             34

 total charge               =     -1.0000000

%%%% DENSITY %%%%%%%%%%%%%%%%%%%%%%%%%%%%%%%%%%%%%%%%%%%%%%%%%%%%%%%%%%%%%%%%%%%

 density label              = dvtot                                             

 integral of density        =   0.2214072547E-13

%%%% ELECTRONS %%%%%%%%%%%%%%%%%%%%%%%%%%%%%%%%%%%%%%%%%%%%%%%%%%%%%%%%%%%%%%%%%

 number of electrons        =             24

 total electronic charge    =     24.0000000

%%%% ELECTRONS %%%%%%%%%%%%%%%%%%%%%%%%%%%%%%%%%%%%%%%%%%%%%%%%%%%%%%%%%%%%%%%%%

 number of electrons        =             24

 total electronic charge    =     24.0000000

%%%% CHARGES %%%%%%%%%%%%%%%%%%%%%%%%%%%%%%%%%%%%%%%%%%%%%%%%%%%%%%%%%%%%%%%%%%%

 total number of charges    =             34

 total charge               =     -1.0000000

%%%% CHARGES %%%%%%%%%%%%%%%%%%%%%%%%%%%%%%%%%%%%%%%%%%%%%%%%%%%%%%%%%%%%%%%%%%%

 total number of charges    =             34

 total charge               =     -1.0000000

%%%% DENSITY %%%%%%%%%%%%%%%%%%%%%%%%%%%%%%%%%%%%%%%%%%%%%%%%%%%%%%%%%%%%%%%%%%%

 density label              = vreference                                        

 integral of density        =  -0.1448717689E-12

%%%% COMPUTE ELECTROSTATIC POTENTIAL %%%%%%%%%%%%%%%%%%%%%%%%%%%%%%%%%%%%%%%%%%%

 Warning: Bad guess with residual norm =   0.550991E+03, reset to no guess

   i |      alpha     |       pAp      |      rzold     |    delta_qm    |    delta_en    |       tol
 ---------------------------------------------------------------------------------------------------------
   1 |   0.972282E+00 |   0.963016E+02 |   0.936323E+02 |   0.174768E-01 |   0.527795E+03 |   0.100000E-04
   2 |   0.120310E+00 |   0.138879E+03 |   0.167085E+02 |   0.507943E-02 |   0.445834E+02 |   0.100000E-04
   3 |   0.189303E+00 |   0.357176E+01 |   0.676145E+00 |   0.213297E-02 |   0.786163E+01 |   0.100000E-04
   4 |   0.282509E+00 |   0.215411E+00 |   0.608556E-01 |   0.126971E-02 |   0.278581E+01 |   0.100000E-04
   5 |   0.197844E+00 |   0.612081E-01 |   0.121097E-01 |   0.895772E-03 |   0.138656E+01 |   0.100000E-04
   6 |   0.336348E+00 |   0.109034E-01 |   0.366733E-02 |   0.538636E-03 |   0.501342E+00 |   0.100000E-04
   7 |   0.468484E+00 |   0.199646E-02 |   0.935308E-03 |   0.287206E-03 |   0.142538E+00 |   0.100000E-04
   8 |   0.578245E+00 |   0.410905E-03 |   0.237604E-03 |   0.160611E-03 |   0.445755E-01 |   0.100000E-04
   9 |   0.579070E+00 |   0.175935E-03 |   0.101878E-03 |   0.675312E-04 |   0.788049E-02 |   0.100000E-04
  10 |   0.299024E+00 |   0.140185E-03 |   0.419189E-04 |   0.323138E-04 |   0.180435E-02 |   0.100000E-04
  11 |   0.356115E+00 |   0.253071E-04 |   0.901225E-05 |   0.131287E-04 |   0.297841E-03 |   0.100000E-04
  12 |   0.521325E+00 |   0.113313E-05 |   0.590729E-06 |   0.521839E-05 |   0.470562E-04 |   0.100000E-04
  13 |   0.587001E+00 |   0.140178E-06 |   0.822844E-07 |   0.210269E-05 |   0.764003E-05 |   0.100000E-04

 Charges are converged, EXIT

%%%% DENSITY %%%%%%%%%%%%%%%%%%%%%%%%%%%%%%%%%%%%%%%%%%%%%%%%%%%%%%%%%%%%%%%%%%%

 density label              = velectrostatic                                    

 integral of density        =  -0.4031014206E-12

%%%% CHARGES %%%%%%%%%%%%%%%%%%%%%%%%%%%%%%%%%%%%%%%%%%%%%%%%%%%%%%%%%%%%%%%%%%%

 total number of charges    =             34

 total charge               =     -1.0000000

%%%% DENSITY %%%%%%%%%%%%%%%%%%%%%%%%%%%%%%%%%%%%%%%%%%%%%%%%%%%%%%%%%%%%%%%%%%%

 density label              = dvtot                                             

 integral of density        =  -0.6843414724E-12

%%%% ELECTRONS %%%%%%%%%%%%%%%%%%%%%%%%%%%%%%%%%%%%%%%%%%%%%%%%%%%%%%%%%%%%%%%%%

 number of electrons        =             24

 total electronic charge    =     24.0000000

%%%% ELECTRONS %%%%%%%%%%%%%%%%%%%%%%%%%%%%%%%%%%%%%%%%%%%%%%%%%%%%%%%%%%%%%%%%%

 number of electrons        =             24

 total electronic charge    =     24.0000000

%%%% CHARGES %%%%%%%%%%%%%%%%%%%%%%%%%%%%%%%%%%%%%%%%%%%%%%%%%%%%%%%%%%%%%%%%%%%

 total number of charges    =             34

 total charge               =     -1.0000000

%%%% CHARGES %%%%%%%%%%%%%%%%%%%%%%%%%%%%%%%%%%%%%%%%%%%%%%%%%%%%%%%%%%%%%%%%%%%

 total number of charges    =             34

 total charge               =     -1.0000000

%%%% DENSITY %%%%%%%%%%%%%%%%%%%%%%%%%%%%%%%%%%%%%%%%%%%%%%%%%%%%%%%%%%%%%%%%%%%

 density label              = vreference                                        

 integral of density        =  -0.7292931691E-12

%%%% COMPUTE ELECTROSTATIC POTENTIAL %%%%%%%%%%%%%%%%%%%%%%%%%%%%%%%%%%%%%%%%%%%

 Warning: Bad guess with residual norm =   0.548543E+03, reset to no guess

   i |      alpha     |       pAp      |      rzold     |    delta_qm    |    delta_en    |       tol
 ---------------------------------------------------------------------------------------------------------
   1 |   0.972385E+00 |   0.962788E+02 |   0.936201E+02 |   0.174394E-01 |   0.525543E+03 |   0.100000E-04
   2 |   0.120333E+00 |   0.138216E+03 |   0.166319E+02 |   0.507789E-02 |   0.445564E+02 |   0.100000E-04
   3 |   0.189391E+00 |   0.356539E+01 |   0.675255E+00 |   0.213420E-02 |   0.787071E+01 |   0.100000E-04
   4 |   0.282463E+00 |   0.215896E+00 |   0.609827E-01 |   0.126978E-02 |   0.278615E+01 |   0.100000E-04
   5 |   0.197886E+00 |   0.611385E-01 |   0.120985E-01 |   0.895955E-03 |   0.138713E+01 |   0.100000E-04
   6 |   0.336263E+00 |   0.109140E-01 |   0.366995E-02 |   0.538940E-03 |   0.501908E+00 |   0.100000E-04
   7 |   0.468450E+00 |   0.199845E-02 |   0.936174E-03 |   0.287379E-03 |   0.142710E+00 |   0.100000E-04
   8 |   0.578179E+00 |   0.411613E-03 |   0.237986E-03 |   0.160685E-03 |   0.446162E-01 |   0.100000E-04
   9 |   0.580421E+00 |   0.175540E-03 |   0.101887E-03 |   0.673783E-04 |   0.784484E-02 |   0.100000E-04
  10 |   0.299515E+00 |   0.138968E-03 |   0.416231E-04 |   0.322826E-04 |   0.180086E-02 |   0.100000E-04
  11 |   0.354642E+00 |   0.254639E-04 |   0.903057E-05 |   0.131437E-04 |   0.298523E-03 |   0.100000E-04
  12 |   0.521131E+00 |   0.113662E-05 |   0.592330E-06 |   0.523219E-05 |   0.473054E-04 |   0.100000E-04
  13 |   0.587600E+00 |   0.140482E-06 |   0.825473E-07 |   0.211305E-05 |   0.771545E-05 |   0.100000E-04

 Charges are converged, EXIT

%%%% DENSITY %%%%%%%%%%%%%%%%%%%%%%%%%%%%%%%%%%%%%%%%%%%%%%%%%%%%%%%%%%%%%%%%%%%

 density label              = velectrostatic                                    

 integral of density        =   0.1350031198E-12

%%%% CHARGES %%%%%%%%%%%%%%%%%%%%%%%%%%%%%%%%%%%%%%%%%%%%%%%%%%%%%%%%%%%%%%%%%%%

 total number of charges    =             34

 total charge               =     -1.0000000

%%%% DENSITY %%%%%%%%%%%%%%%%%%%%%%%%%%%%%%%%%%%%%%%%%%%%%%%%%%%%%%%%%%%%%%%%%%%

 density label              = dvtot                                             

 integral of density        =   0.6118788603E-12

%%%% ELECTRONS %%%%%%%%%%%%%%%%%%%%%%%%%%%%%%%%%%%%%%%%%%%%%%%%%%%%%%%%%%%%%%%%%

 number of electrons        =             24

 total electronic charge    =     24.0000000

%%%% ELECTRONS %%%%%%%%%%%%%%%%%%%%%%%%%%%%%%%%%%%%%%%%%%%%%%%%%%%%%%%%%%%%%%%%%

 number of electrons        =             24

 total electronic charge    =     24.0000000

%%%% CHARGES %%%%%%%%%%%%%%%%%%%%%%%%%%%%%%%%%%%%%%%%%%%%%%%%%%%%%%%%%%%%%%%%%%%

 total number of charges    =             34

 total charge               =     -1.0000000

%%%% CHARGES %%%%%%%%%%%%%%%%%%%%%%%%%%%%%%%%%%%%%%%%%%%%%%%%%%%%%%%%%%%%%%%%%%%

 total number of charges    =             34

 total charge               =     -1.0000000

%%%% DENSITY %%%%%%%%%%%%%%%%%%%%%%%%%%%%%%%%%%%%%%%%%%%%%%%%%%%%%%%%%%%%%%%%%%%

 density label              = vreference                                        

 integral of density        =  -0.1318451521E-12

%%%% COMPUTE ELECTROSTATIC POTENTIAL %%%%%%%%%%%%%%%%%%%%%%%%%%%%%%%%%%%%%%%%%%%

 Warning: Bad guess with residual norm =   0.546692E+03, reset to no guess

   i |      alpha     |       pAp      |      rzold     |    delta_qm    |    delta_en    |       tol
 ---------------------------------------------------------------------------------------------------------
   1 |   0.972471E+00 |   0.962830E+02 |   0.936325E+02 |   0.174112E-01 |   0.523846E+03 |   0.100000E-04
   2 |   0.120334E+00 |   0.137768E+03 |   0.165781E+02 |   0.507364E-02 |   0.444818E+02 |   0.100000E-04
   3 |   0.189453E+00 |   0.355616E+01 |   0.673725E+00 |   0.213369E-02 |   0.786694E+01 |   0.100000E-04
   4 |   0.282345E+00 |   0.215926E+00 |   0.609656E-01 |   0.126990E-02 |   0.278665E+01 |   0.100000E-04
   5 |   0.197877E+00 |   0.611177E-01 |   0.120938E-01 |   0.896004E-03 |   0.138728E+01 |   0.100000E-04
   6 |   0.336406E+00 |   0.109034E-01 |   0.366795E-02 |   0.539069E-03 |   0.502150E+00 |   0.100000E-04
   7 |   0.468521E+00 |   0.199817E-02 |   0.936185E-03 |   0.287453E-03 |   0.142783E+00 |   0.100000E-04
   8 |   0.578210E+00 |   0.411972E-03 |   0.238207E-03 |   0.160681E-03 |   0.446140E-01 |   0.100000E-04
   9 |   0.580665E+00 |   0.175541E-03 |   0.101931E-03 |   0.673085E-04 |   0.782859E-02 |   0.100000E-04
  10 |   0.299634E+00 |   0.138563E-03 |   0.415182E-04 |   0.322618E-04 |   0.179855E-02 |   0.100000E-04
  11 |   0.354181E+00 |   0.254962E-04 |   0.903027E-05 |   0.131453E-04 |   0.298596E-03 |   0.100000E-04
  12 |   0.521107E+00 |   0.113697E-05 |   0.592485E-06 |   0.523681E-05 |   0.473891E-04 |   0.100000E-04
  13 |   0.587927E+00 |   0.140498E-06 |   0.826024E-07 |   0.211831E-05 |   0.775392E-05 |   0.100000E-04

 Charges are converged, EXIT

%%%% DENSITY %%%%%%%%%%%%%%%%%%%%%%%%%%%%%%%%%%%%%%%%%%%%%%%%%%%%%%%%%%%%%%%%%%%

 density label              = velectrostatic                                    

 integral of density        =   0.1292135123E-12

%%%% CHARGES %%%%%%%%%%%%%%%%%%%%%%%%%%%%%%%%%%%%%%%%%%%%%%%%%%%%%%%%%%%%%%%%%%%

 total number of charges    =             34

 total charge               =     -1.0000000

%%%% DENSITY %%%%%%%%%%%%%%%%%%%%%%%%%%%%%%%%%%%%%%%%%%%%%%%%%%%%%%%%%%%%%%%%%%%

 density label              = dvtot                                             

 integral of density        =   0.1474355617E-12

%%%% ELECTRONS %%%%%%%%%%%%%%%%%%%%%%%%%%%%%%%%%%%%%%%%%%%%%%%%%%%%%%%%%%%%%%%%%

 number of electrons        =             24

 total electronic charge    =     24.0000000

%%%% ELECTRONS %%%%%%%%%%%%%%%%%%%%%%%%%%%%%%%%%%%%%%%%%%%%%%%%%%%%%%%%%%%%%%%%%

 number of electrons        =             24

 total electronic charge    =     24.0000000

%%%% CHARGES %%%%%%%%%%%%%%%%%%%%%%%%%%%%%%%%%%%%%%%%%%%%%%%%%%%%%%%%%%%%%%%%%%%

 total number of charges    =             34

 total charge               =     -1.0000000

%%%% CHARGES %%%%%%%%%%%%%%%%%%%%%%%%%%%%%%%%%%%%%%%%%%%%%%%%%%%%%%%%%%%%%%%%%%%

 total number of charges    =             34

 total charge               =     -1.0000000

%%%% DENSITY %%%%%%%%%%%%%%%%%%%%%%%%%%%%%%%%%%%%%%%%%%%%%%%%%%%%%%%%%%%%%%%%%%%

 density label              = vreference                                        

 integral of density        =   0.7331748377E-12

%%%% COMPUTE ELECTROSTATIC POTENTIAL %%%%%%%%%%%%%%%%%%%%%%%%%%%%%%%%%%%%%%%%%%%

 Warning: Bad guess with residual norm =   0.546654E+03, reset to no guess

   i |      alpha     |       pAp      |      rzold     |    delta_qm    |    delta_en    |       tol
 ---------------------------------------------------------------------------------------------------------
   1 |   0.972474E+00 |   0.962814E+02 |   0.936312E+02 |   0.174107E-01 |   0.523811E+03 |   0.100000E-04
   2 |   0.120337E+00 |   0.137744E+03 |   0.165757E+02 |   0.507317E-02 |   0.444736E+02 |   0.100000E-04
   3 |   0.189444E+00 |   0.355604E+01 |   0.673670E+00 |   0.213330E-02 |   0.786408E+01 |   0.100000E-04
   4 |   0.282268E+00 |   0.215969E+00 |   0.609613E-01 |   0.127001E-02 |   0.278712E+01 |   0.100000E-04
   5 |   0.197818E+00 |   0.611949E-01 |   0.121054E-01 |   0.895902E-03 |   0.138696E+01 |   0.100000E-04
   6 |   0.336543E+00 |   0.108953E-01 |   0.366673E-02 |   0.538977E-03 |   0.501978E+00 |   0.100000E-04
   7 |   0.468533E+00 |   0.199749E-02 |   0.935892E-03 |   0.287404E-03 |   0.142735E+00 |   0.100000E-04
   8 |   0.578202E+00 |   0.411796E-03 |   0.238101E-03 |   0.160665E-03 |   0.446051E-01 |   0.100000E-04
   9 |   0.580598E+00 |   0.175499E-03 |   0.101894E-03 |   0.673216E-04 |   0.783165E-02 |   0.100000E-04
  10 |   0.299602E+00 |   0.138644E-03 |   0.415382E-04 |   0.322654E-04 |   0.179894E-02 |   0.100000E-04
  11 |   0.354317E+00 |   0.254820E-04 |   0.902871E-05 |   0.131448E-04 |   0.298573E-03 |   0.100000E-04
  12 |   0.521158E+00 |   0.113675E-05 |   0.592424E-06 |   0.523747E-05 |   0.474008E-04 |   0.100000E-04
  13 |   0.588024E+00 |   0.140507E-06 |   0.826218E-07 |   0.212022E-05 |   0.776792E-05 |   0.100000E-04

 Charges are converged, EXIT

%%%% DENSITY %%%%%%%%%%%%%%%%%%%%%%%%%%%%%%%%%%%%%%%%%%%%%%%%%%%%%%%%%%%%%%%%%%%

 density label              = velectrostatic                                    

 integral of density        =  -0.1451480911E-11

%%%% CHARGES %%%%%%%%%%%%%%%%%%%%%%%%%%%%%%%%%%%%%%%%%%%%%%%%%%%%%%%%%%%%%%%%%%%

 total number of charges    =             34

 total charge               =     -1.0000000

%%%% DENSITY %%%%%%%%%%%%%%%%%%%%%%%%%%%%%%%%%%%%%%%%%%%%%%%%%%%%%%%%%%%%%%%%%%%

 density label              = dvtot                                             

 integral of density        =  -0.1240234253E-11

%%%% ELECTRONS %%%%%%%%%%%%%%%%%%%%%%%%%%%%%%%%%%%%%%%%%%%%%%%%%%%%%%%%%%%%%%%%%

 number of electrons        =             24

 total electronic charge    =     24.0000000

%%%% ELECTRONS %%%%%%%%%%%%%%%%%%%%%%%%%%%%%%%%%%%%%%%%%%%%%%%%%%%%%%%%%%%%%%%%%

 number of electrons        =             24

 total electronic charge    =     24.0000000

%%%% CHARGES %%%%%%%%%%%%%%%%%%%%%%%%%%%%%%%%%%%%%%%%%%%%%%%%%%%%%%%%%%%%%%%%%%%

 total number of charges    =             34

 total charge               =     -1.0000000

%%%% CHARGES %%%%%%%%%%%%%%%%%%%%%%%%%%%%%%%%%%%%%%%%%%%%%%%%%%%%%%%%%%%%%%%%%%%

 total number of charges    =             34

 total charge               =     -1.0000000

%%%% DENSITY %%%%%%%%%%%%%%%%%%%%%%%%%%%%%%%%%%%%%%%%%%%%%%%%%%%%%%%%%%%%%%%%%%%

 density label              = dvtot                                             

 integral of density        =  -0.1240234253E-11

%%%% DENSITY %%%%%%%%%%%%%%%%%%%%%%%%%%%%%%%%%%%%%%%%%%%%%%%%%%%%%%%%%%%%%%%%%%%

 density label              = vreference                                        

 integral of density        =   0.7331748377E-12

%%%% DENSITY %%%%%%%%%%%%%%%%%%%%%%%%%%%%%%%%%%%%%%%%%%%%%%%%%%%%%%%%%%%%%%%%%%%

 density label              = velectrostatic                                    

 integral of density        =  -0.1451480911E-11

%%%% CHARGES %%%%%%%%%%%%%%%%%%%%%%%%%%%%%%%%%%%%%%%%%%%%%%%%%%%%%%%%%%%%%%%%%%%

 total number of charges    =             34

 total charge               =     -1.0000000
