
     Program PWSCF v.6.1 (svn rev. 13369) starts on 14Nov2017 at 14:43:18 

     This program is part of the open-source Quantum ESPRESSO suite
     for quantum simulation of materials; please cite
         "P. Giannozzi et al., J. Phys.:Condens. Matter 21 395502 (2009);
          URL http://www.quantum-espresso.org", 
     in publications or presentations arising from this work. More details at
     http://www.quantum-espresso.org/quote

     Parallel version (MPI), running on     1 processors
     Reading input from neutral.in

     Current dimensions of program PWSCF are:
     Max number of different atomic species (ntypx) = 10
     Max number of k-points (npk) =  40000
     Max angular momentum in pseudopotentials (lmaxx) =  3
               file H.pbe-rrkjus.UPF: wavefunction(s)  1S renormalized
               file O.pbe-rrkjus.UPF: wavefunction(s)  2S renormalized

     gamma-point specific algorithms are used

     Subspace diagonalization in iterative solution of the eigenvalue problem:
     a serial algorithm will be used

 
     G-vector sticks info
     --------------------
     sticks:   dense  smooth     PW     G-vecs:    dense   smooth      PW
     Sum        9549    3809    949               701475   177509   22119
 


     bravais-lattice index     =            1
     lattice parameter (alat)  =      20.0000  a.u.
     unit-cell volume          =    8000.0000 (a.u.)^3
     number of atoms/cell      =            3
     number of atomic types    =            2
     number of electrons       =         8.00
     number of Kohn-Sham states=            4
     kinetic-energy cutoff     =      30.0000  Ry
     charge density cutoff     =     300.0000  Ry
     convergence threshold     =      5.0E-03
     mixing beta               =       0.7000
     number of iterations used =            8  plain     mixing
     Exchange-correlation      =  SLA  PW   PBE  PBE ( 1  4  3  4 0 0)
 

     Environ Module
     ==============

     Plese cite
         O. Andreussi, I. Dabo and N. Marzari, J. Chem. Phys. 136, 064102 (2012)         
     in publications or presentations arising from this work.

     compensation onset threshold      =               0.1000E+03 
     static permittivity               =                   100.00 
     epsilon calculation mode          =               electronic 

     Electrostatic Setup
     -------------------
     electrostatic problem to solve    = generalized              
     numerical solver adopted          = cg                       
     type of auxiliary density adopted = none                     
     type of core tool for poisson     = fft                      
     type of core tool for s(r) deriv  = analytic                 



     celldm(1)=  20.000000  celldm(2)=   0.000000  celldm(3)=   0.000000
     celldm(4)=   0.000000  celldm(5)=   0.000000  celldm(6)=   0.000000

     crystal axes: (cart. coord. in units of alat)
               a(1) = (   1.000000   0.000000   0.000000 )  
               a(2) = (   0.000000   1.000000   0.000000 )  
               a(3) = (   0.000000   0.000000   1.000000 )  

     reciprocal axes: (cart. coord. in units 2 pi/alat)
               b(1) = (  1.000000  0.000000  0.000000 )  
               b(2) = (  0.000000  1.000000  0.000000 )  
               b(3) = (  0.000000  0.000000  1.000000 )  


     PseudoPot. # 1 for H  read from file:
     /home/andreo/PWSCF/espresso-6.1-Environ-1.0/Environ/tests/../..//pseudo/H.pbe-rrkjus.UPF
     MD5 check sum: 7cc9d459525c9a0585f487a71c3c9563
     Pseudo is Ultrasoft, Zval =  1.0
     Generated by new atomic code, or converted to UPF format
     Using radial grid of 1061 points,  2 beta functions with: 
                l(1) =   0
                l(2) =   0
     Q(r) pseudized with 0 coefficients 


     PseudoPot. # 2 for O  read from file:
     /home/andreo/PWSCF/espresso-6.1-Environ-1.0/Environ/tests/../..//pseudo/O.pbe-rrkjus.UPF
     MD5 check sum: 390ba29e75625707450f3bd3f0eb6be9
     Pseudo is Ultrasoft, Zval =  6.0
     Generated by new atomic code, or converted to UPF format
     Using radial grid of 1269 points,  4 beta functions with: 
                l(1) =   0
                l(2) =   0
                l(3) =   1
                l(4) =   1
     Q(r) pseudized with 0 coefficients 


     atomic species   valence    mass     pseudopotential
        H              1.00     1.00000     H ( 1.00)
        O              6.00    16.00000     O ( 1.00)

     No symmetry found



   Cartesian axes

     site n.     atom                  positions (alat units)
         1           O   tau(   1) = (   0.5895000   0.6025000   0.5750000  )
         2           H   tau(   2) = (   0.6725000   0.5610000   0.5750000  )
         3           H   tau(   3) = (   0.5280000   0.5330000   0.5750000  )

     number of k points=     1
                       cart. coord. in units 2pi/alat
        k(    1) = (   0.0000000   0.0000000   0.0000000), wk =   2.0000000

     Dense  grid:   350738 G-vectors     FFT dimensions: ( 120, 120, 120)

     Smooth grid:    88755 G-vectors     FFT dimensions: (  72,  72,  72)

     Estimated max dynamical RAM per process >     270.62MB

     Initial potential from superposition of free atoms
     Check: negative starting charge=   -0.000775

     starting charge    7.80759, renormalised to    8.00000

     negative rho (up, down):  7.936E-04 0.000E+00
     Starting wfc are    6 randomized atomic wfcs

     total cpu time spent up to now is        2.2 secs

     per-process dynamical memory:   562.2 Mb

     Self-consistent Calculation

     iteration #  1     ecut=    30.00 Ry     beta=0.70
     Davidson diagonalization with overlap
     ethr =  1.00E-02,  avg # of iterations =  2.0

     negative rho (up, down):  2.595E-04 0.000E+00

     add environment contribution to local potential
     polarization accuracy = 2.3E-06, # of iterations =  11

     total cpu time spent up to now is        5.6 secs

     total energy              =     -34.06236055 Ry
     Harris-Foulkes estimate   =     -34.58697711 Ry
     estimated scf accuracy    <       0.68458994 Ry
     electrostatic embedding   =       0.00000000 Ry
     correction to one-el term =       0.00000000 Ry

     iteration #  2     ecut=    30.00 Ry     beta=0.70
     Davidson diagonalization with overlap
     ethr =  8.56E-03,  avg # of iterations =  2.0

     negative rho (up, down):  2.656E-03 0.000E+00

     add environment contribution to local potential
     polarization accuracy = 5.4E-06, # of iterations =  12

     total cpu time spent up to now is        9.3 secs

     total energy              =     -34.21517594 Ry
     Harris-Foulkes estimate   =     -33.94013142 Ry
     estimated scf accuracy    <       0.35519133 Ry
     electrostatic embedding   =      -0.03412325 Ry
     correction to one-el term =      -0.42399213 Ry

     iteration #  3     ecut=    30.00 Ry     beta=0.70
     Davidson diagonalization with overlap
     ethr =  4.44E-03,  avg # of iterations =  2.0

     negative rho (up, down):  2.205E-04 0.000E+00

     add environment contribution to local potential
     polarization accuracy = 5.2E-06, # of iterations =  13

     total cpu time spent up to now is       12.9 secs

     total energy              =     -34.28765196 Ry
     Harris-Foulkes estimate   =     -33.97795053 Ry
     estimated scf accuracy    <       0.01537480 Ry
     electrostatic embedding   =      -0.02912176 Ry
     correction to one-el term =      -0.28922856 Ry

     iteration #  4     ecut=    30.00 Ry     beta=0.70
     Davidson diagonalization with overlap
     ethr =  1.92E-04,  avg # of iterations =  2.0

     negative rho (up, down):  2.142E-04 0.000E+00

     total cpu time spent up to now is       14.6 secs

     End of self-consistent calculation

          k = 0.0000 0.0000 0.0000 ( 11060 PWs)   bands (ev):

   -24.5417 -12.3152  -8.7692  -6.7994

     highest occupied level (ev):    -6.7994

!    total energy              =     -34.29562469 Ry
     Harris-Foulkes estimate   =     -34.17196653 Ry
     estimated scf accuracy    <       0.00017514 Ry

     The total energy is the sum of the following terms:

     one-electron contribution =     -63.79214484 Ry
     hartree contribution      =      33.45946664 Ry
     xc contribution           =      -8.39660685 Ry
     ewald contribution        =       4.55735774 Ry
     electrostatic embedding   =      -0.03350780 Ry
     correction to one-el term =      -0.09018959 Ry

     convergence has been achieved in   4 iterations

     Forces acting on atoms (cartesian axes, Ry/au):

     atom    1 type  2   force =     0.00237534   -0.01240007   -0.00001440
     atom    2 type  1   force =    -0.00871856    0.00471823    0.00000691
     atom    3 type  1   force =     0.00634322    0.00768184    0.00000749

     Total force =     0.018892     Total SCF correction =     0.022982
     SCF correction compared to forces is large: reduce conv_thr to get better values

     Writing output data file pwscf.save
 
     init_run     :      1.92s CPU      2.03s WALL (       1 calls)
     electrons    :     12.06s CPU     13.88s WALL (       1 calls)
     forces       :      0.71s CPU      0.73s WALL (       1 calls)

     Called by init_run:
     wfcinit      :      0.04s CPU      0.04s WALL (       1 calls)
     potinit      :      0.82s CPU      0.86s WALL (       1 calls)

     Called by electrons:
     c_bands      :      0.26s CPU      0.27s WALL (       4 calls)
     sum_band     :      1.38s CPU      1.43s WALL (       4 calls)
     v_of_rho     :      2.91s CPU      2.96s WALL (       5 calls)
     newd         :      0.69s CPU      0.73s WALL (       5 calls)
     mix_rho      :      0.27s CPU      0.27s WALL (       4 calls)

     Called by c_bands:
     init_us_2    :      0.01s CPU      0.02s WALL (       9 calls)
     regterg      :      0.25s CPU      0.25s WALL (       4 calls)

     Called by sum_band:
     sum_band:bec :      0.00s CPU      0.00s WALL (       4 calls)
     addusdens    :      0.85s CPU      0.91s WALL (       4 calls)

     Called by *egterg:
     h_psi        :      0.26s CPU      0.26s WALL (      13 calls)
     s_psi        :      0.01s CPU      0.00s WALL (      13 calls)
     g_psi        :      0.00s CPU      0.00s WALL (       8 calls)
     rdiaghg      :      0.00s CPU      0.00s WALL (      12 calls)

     Called by h_psi:
     h_psi:pot    :      0.26s CPU      0.26s WALL (      13 calls)
     h_psi:calbec :      0.00s CPU      0.01s WALL (      13 calls)
     vloc_psi     :      0.25s CPU      0.25s WALL (      13 calls)
     add_vuspsi   :      0.00s CPU      0.00s WALL (      13 calls)

     General routines
     calbec       :      0.01s CPU      0.01s WALL (      21 calls)
     fft          :      5.56s CPU      5.86s WALL (     201 calls)
     ffts         :      0.04s CPU      0.05s WALL (       9 calls)
     fftw         :      0.22s CPU      0.22s WALL (      62 calls)
     interpolate  :      0.35s CPU      0.36s WALL (       9 calls)
     davcio       :      0.00s CPU      0.00s WALL (       1 calls)
 
     Parallel routines
     fft_scatter  :      1.20s CPU      1.27s WALL (     272 calls)
 
     Environ routines
     calc_eelect  :      0.01s CPU      0.01s WALL (       8 calls)
     calc_velect  :      4.17s CPU      4.47s WALL (       6 calls)
     dielectric   :      0.23s CPU      0.23s WALL (       5 calls)
     calc_felect  :      0.26s CPU      0.26s WALL (       1 calls)
 
     PWSCF        :    14.88s CPU        19.53s WALL

 
   This run was terminated on:  14:43:38  14Nov2017            

=------------------------------------------------------------------------------=
   JOB DONE.
=------------------------------------------------------------------------------=

%%%% IONS %%%%%%%%%%%%%%%%%%%%%%%%%%%%%%%%%%%%%%%%%%%%%%%%%%%%%%%%%%%%%%%%%%%%%%
 number of ions             =          3
 ionic center of charge     =      0.5921875     0.5886250     0.5750000
 total ionic charge         =     -8.0000000
 ionic dipole               =      0.0000000     0.0000000     0.0000000
 ionic quadrupole (pc)      =     -4.2453875    -2.0049500     0.0000000
 ionic quadrupole (gauss)   =     -5.2453875    -3.0049500    -1.0000000
 ion   1 type =  2 coordinates =     11.7900000    12.0500000    11.5000000
 ion   2 type =  1 coordinates =     13.4500000    11.2200000    11.5000000
 ion   3 type =  1 coordinates =     10.5600000    10.6600000    11.5000000

%%%% SYSTEM %%%%%%%%%%%%%%%%%%%%%%%%%%%%%%%%%%%%%%%%%%%%%%%%%%%%%%%%%%%%%%%%%%%%
 system is built from all present ionic types
 system defined dimension   =  0 
 system defined axis        =  3 
 system center              =      0.5921875     0.5886250     0.5750000 
 system width               =      0.1209428 

%%%% ELECTRONS %%%%%%%%%%%%%%%%%%%%%%%%%%%%%%%%%%%%%%%%%%%%%%%%%%%%%%%%%%%%%%%%%
 number of electrons        =          8
 total electronic charge    =      8.0000000
 number of spin components  =  1

%%%% BOUNDARY %%%%%%%%%%%%%%%%%%%%%%%%%%%%%%%%%%%%%%%%%%%%%%%%%%%%%%%%%%%%%%%%%%
 boundary mode              = electronic           
 boundary is built as a function of a smooth density
 function type              =  2 
 using the modified SCCS function with parameters 
 rhomax                     =      0.0050000 
 rhomin                     =      0.0001000 
 volume of the QM region    =    306.9268418 
 surface of the QM region   =    219.1546597 

%%%% DIELECTRIC %%%%%%%%%%%%%%%%%%%%%%%%%%%%%%%%%%%%%%%%%%%%%%%%%%%%%%%%%%%%%%%%%
 dielectric build on homogeneous background
 environment bulk permitt.  =    100.0000000 
 dielectric flags
 need gradient              =  F 
 need factor depend. sqrt   =  T 
 need gradient of logarithm =  T 

%%%% COMPUTE ELECTROSTATIC POTENTIAL %%%%%%%%%%%%%%%%%%%%%%%%%%%%%%%%%%%%%%%%%%%
 Iteration #          1
  pAp =    26.7240113349752       rzold =    26.1622024736744       alpha = 
  0.978977375280276     
 delta_qm =   0.832724E-02 delta_en =   0.119825E+03 tol =   0.100000E-04
 Iteration #          2
  pAp =    26.7070375634116       rzold =    3.36932118260705       alpha = 
  0.126158551827665     
 delta_qm =   0.276282E-02 delta_en =   0.131901E+02 tol =   0.100000E-04
 Iteration #          3
  pAp =    1.66084871118289       rzold =   0.235698291288112       alpha = 
  0.141914365649983     
 delta_qm =   0.788670E-03 delta_en =   0.107482E+01 tol =   0.100000E-04
 Iteration #          4
  pAp =   3.307114949229997E-002  rzold =   8.575399290714028E-003  alpha = 
  0.259301518766702     
 delta_qm =   0.436589E-03 delta_en =   0.329375E+00 tol =   0.100000E-04
 Iteration #          5
  pAp =   1.208055238306742E-003  rzold =   7.160170679441823E-004  alpha = 
  0.592702258340256     
 delta_qm =   0.126505E-03 delta_en =   0.276541E-01 tol =   0.100000E-04
 Iteration #          6
  pAp =   2.196878463506988E-004  rzold =   8.600578801404809E-005  alpha = 
  0.391490878729599     
 delta_qm =   0.716146E-04 delta_en =   0.886232E-02 tol =   0.100000E-04
 Iteration #          7
  pAp =   6.787982503923854E-006  rzold =   7.230075961586058E-006  alpha = 
   1.06512884460245     
 delta_qm =   0.330558E-04 delta_en =   0.188816E-02 tol =   0.100000E-04
 Iteration #          8
  pAp =   9.694934973277879E-006  rzold =   4.265639619333302E-006  alpha = 
  0.439986408479342     
 delta_qm =   0.176526E-04 delta_en =   0.538472E-03 tol =   0.100000E-04
 Iteration #          9
  pAp =   6.747667009082913E-006  rzold =   1.942166141528566E-006  alpha = 
  0.287827798691644     
 delta_qm =   0.957677E-05 delta_en =   0.158483E-03 tol =   0.100000E-04
 Iteration #         10
  pAp =   1.207006713901621E-006  rzold =   3.878621633891016E-007  alpha = 
  0.321342175583553     
 delta_qm =   0.502009E-05 delta_en =   0.435479E-04 tol =   0.100000E-04
 Iteration #         11
  pAp =   1.176056321788620E-007  rzold =   7.273621442601163E-008  alpha = 
  0.618475604258390     
 delta_qm =   0.115808E-05 delta_en =   0.231752E-05 tol =   0.100000E-04
 Charges are converged, EXIT

%%%% ELECTRONS %%%%%%%%%%%%%%%%%%%%%%%%%%%%%%%%%%%%%%%%%%%%%%%%%%%%%%%%%%%%%%%%%
 number of electrons        =          8
 total electronic charge    =      8.0000000
 number of spin components  =  1

%%%% BOUNDARY %%%%%%%%%%%%%%%%%%%%%%%%%%%%%%%%%%%%%%%%%%%%%%%%%%%%%%%%%%%%%%%%%%
 boundary mode              = electronic           
 boundary is built as a function of a smooth density
 function type              =  2 
 using the modified SCCS function with parameters 
 rhomax                     =      0.0050000 
 rhomin                     =      0.0001000 
 volume of the QM region    =    332.8673029 
 surface of the QM region   =    231.8875336 

%%%% DIELECTRIC %%%%%%%%%%%%%%%%%%%%%%%%%%%%%%%%%%%%%%%%%%%%%%%%%%%%%%%%%%%%%%%%%
 dielectric build on homogeneous background
 environment bulk permitt.  =    100.0000000 
 dielectric flags
 need gradient              =  F 
 need factor depend. sqrt   =  T 
 need gradient of logarithm =  T 

%%%% COMPUTE ELECTROSTATIC POTENTIAL %%%%%%%%%%%%%%%%%%%%%%%%%%%%%%%%%%%%%%%%%%%
 Warning: bad guess with residual norm =   0.454906E+02, reset to no guess
 Iteration #          1
  pAp =    28.9426707396200       rzold =    28.5284844294756       alpha = 
  0.985689423278504     
 delta_qm =   0.102050E-01 delta_en =   0.179958E+03 tol =   0.100000E-04
 Iteration #          2
  pAp =    19.8540074476048       rzold =    2.50856777637138       alpha = 
  0.126350701891875     
 delta_qm =   0.321020E-02 delta_en =   0.178077E+02 tol =   0.100000E-04
 Iteration #          3
  pAp =    1.15882078786263       rzold =   0.165128659481767       alpha = 
  0.142497149871066     
 delta_qm =   0.100495E-02 delta_en =   0.174515E+01 tol =   0.100000E-04
 Iteration #          4
  pAp =   2.955095129344924E-002  rzold =   7.208355095090608E-003  alpha = 
  0.243929713920531     
 delta_qm =   0.590694E-03 delta_en =   0.602933E+00 tol =   0.100000E-04
 Iteration #          5
  pAp =   9.751005775834280E-004  rzold =   5.919384389662565E-004  alpha = 
  0.607053726122535     
 delta_qm =   0.208460E-03 delta_en =   0.750914E-01 tol =   0.100000E-04
 Iteration #          6
  pAp =   1.789966167430062E-004  rzold =   6.809094401531681E-005  alpha = 
  0.380403525241363     
 delta_qm =   0.146215E-03 delta_en =   0.369424E-01 tol =   0.100000E-04
 Iteration #          7
  pAp =   1.165998948351569E-005  rzold =   1.033757310219406E-005  alpha = 
  0.886585113718053     
 delta_qm =   0.750026E-04 delta_en =   0.972068E-02 tol =   0.100000E-04
 Iteration #          8
  pAp =   1.879910543545055E-005  rzold =   8.790886630743192E-006  alpha = 
  0.467622603688669     
 delta_qm =   0.282831E-04 delta_en =   0.138229E-02 tol =   0.100000E-04
 Iteration #          9
  pAp =   3.313662476659617E-006  rzold =   1.458998019420923E-006  alpha = 
  0.440297715804685     
 delta_qm =   0.145635E-04 delta_en =   0.366503E-03 tol =   0.100000E-04
 Iteration #         10
  pAp =   2.427849579616800E-006  rzold =   5.467683507918485E-007  alpha = 
  0.225206847813919     
 delta_qm =   0.919085E-05 delta_en =   0.145967E-03 tol =   0.100000E-04
 Iteration #         11
  pAp =   1.506305283761129E-007  rzold =   9.244607253282833E-008  alpha = 
  0.613727333558823     
 delta_qm =   0.268045E-05 delta_en =   0.124153E-04 tol =   0.100000E-04
 Iteration #         12
  pAp =   1.281974371538618E-008  rzold =   6.093027121403955E-009  alpha = 
  0.475284627889335     
 delta_qm =   0.177037E-05 delta_en =   0.541594E-05 tol =   0.100000E-04
 Charges are converged, EXIT

%%%% ELECTRONS %%%%%%%%%%%%%%%%%%%%%%%%%%%%%%%%%%%%%%%%%%%%%%%%%%%%%%%%%%%%%%%%%
 number of electrons        =          8
 total electronic charge    =      8.0000000
 number of spin components  =  1

%%%% BOUNDARY %%%%%%%%%%%%%%%%%%%%%%%%%%%%%%%%%%%%%%%%%%%%%%%%%%%%%%%%%%%%%%%%%%
 boundary mode              = electronic           
 boundary is built as a function of a smooth density
 function type              =  2 
 using the modified SCCS function with parameters 
 rhomax                     =      0.0050000 
 rhomin                     =      0.0001000 
 volume of the QM region    =    295.4308570 
 surface of the QM region   =    214.3069521 

%%%% DIELECTRIC %%%%%%%%%%%%%%%%%%%%%%%%%%%%%%%%%%%%%%%%%%%%%%%%%%%%%%%%%%%%%%%%%
 dielectric build on homogeneous background
 environment bulk permitt.  =    100.0000000 
 dielectric flags
 need gradient              =  F 
 need factor depend. sqrt   =  T 
 need gradient of logarithm =  T 

%%%% COMPUTE ELECTROSTATIC POTENTIAL %%%%%%%%%%%%%%%%%%%%%%%%%%%%%%%%%%%%%%%%%%%
 Warning: bad guess with residual norm =   0.265175E+02, reset to no guess
 Iteration #          1
  pAp =    28.8382696996140       rzold =    28.4041423666049       alpha = 
  0.984946137978074     
 delta_qm =   0.106345E-01 delta_en =   0.195426E+03 tol =   0.100000E-04
 Iteration #          2
  pAp =    19.4713562006091       rzold =    2.55647855847479       alpha = 
  0.131294324449512     
 delta_qm =   0.257407E-02 delta_en =   0.114495E+02 tol =   0.100000E-04
 Iteration #          3
  pAp =    1.53269393707495       rzold =   0.177438428875279       alpha = 
  0.115768989870156     
 delta_qm =   0.921760E-03 delta_en =   0.146818E+01 tol =   0.100000E-04
 Iteration #          4
  pAp =   5.371364364285150E-002  rzold =   1.104033228442714E-002  alpha = 
  0.205540557960202     
 delta_qm =   0.538563E-03 delta_en =   0.501206E+00 tol =   0.100000E-04
 Iteration #          5
  pAp =   1.189937876061835E-003  rzold =   7.000849133826262E-004  alpha = 
  0.588337364047605     
 delta_qm =   0.190546E-03 delta_en =   0.627401E-01 tol =   0.100000E-04
 Iteration #          6
  pAp =   4.247210013719092E-004  rzold =   1.403017726000560E-004  alpha = 
  0.330338674440071     
 delta_qm =   0.132110E-03 delta_en =   0.301591E-01 tol =   0.100000E-04
 Iteration #          7
  pAp =   2.156053845129942E-005  rzold =   1.387888317959571E-005  alpha = 
  0.643716909526406     
 delta_qm =   0.897996E-04 delta_en =   0.139345E-01 tol =   0.100000E-04
 Iteration #          8
  pAp =   1.975971875643696E-005  rzold =   1.242377295856904E-005  alpha = 
  0.628742398194400     
 delta_qm =   0.350283E-04 delta_en =   0.212023E-02 tol =   0.100000E-04
 Iteration #          9
  pAp =   1.132981828903868E-005  rzold =   3.988090553199797E-006  alpha = 
  0.351999515919702     
 delta_qm =   0.224321E-04 delta_en =   0.869532E-03 tol =   0.100000E-04
 Iteration #         10
  pAp =   9.119238533230393E-006  rzold =   2.029267709803774E-006  alpha = 
  0.222526003943109     
 delta_qm =   0.148705E-04 delta_en =   0.382115E-03 tol =   0.100000E-04
 Iteration #         11
  pAp =   3.060552400735587E-007  rzold =   2.160368472780406E-007  alpha = 
  0.705875342066084     
 delta_qm =   0.463527E-05 delta_en =   0.371274E-04 tol =   0.100000E-04
 Iteration #         12
  pAp =   7.731040128778743E-008  rzold =   3.258161101876246E-008  alpha = 
  0.421438907003957     
 delta_qm =   0.298377E-05 delta_en =   0.153842E-04 tol =   0.100000E-04
 Iteration #         13
  pAp =   1.229956915204447E-008  rzold =   7.386392668878508E-009  alpha = 
  0.600540765092631     
 delta_qm =   0.172879E-05 delta_en =   0.516448E-05 tol =   0.100000E-04
 Charges are converged, EXIT

%%%% ELECTRONS %%%%%%%%%%%%%%%%%%%%%%%%%%%%%%%%%%%%%%%%%%%%%%%%%%%%%%%%%%%%%%%%%
 number of electrons        =          8
 total electronic charge    =      8.0000000
 number of spin components  =  1

%%%% BOUNDARY %%%%%%%%%%%%%%%%%%%%%%%%%%%%%%%%%%%%%%%%%%%%%%%%%%%%%%%%%%%%%%%%%%
 boundary mode              = electronic           
 boundary is built as a function of a smooth density
 function type              =  2 
 using the modified SCCS function with parameters 
 rhomax                     =      0.0050000 
 rhomin                     =      0.0001000 
 volume of the QM region    =    295.4308570 
 surface of the QM region   =    214.3069521 

%%%% DIELECTRIC %%%%%%%%%%%%%%%%%%%%%%%%%%%%%%%%%%%%%%%%%%%%%%%%%%%%%%%%%%%%%%%%%
 dielectric build on homogeneous background
 environment bulk permitt.  =    100.0000000 
 dielectric flags
 need gradient              =  F 
 need factor depend. sqrt   =  T 
 need gradient of logarithm =  T 
