
     Program PWSCF v.6.4.1 starts on 24Apr2019 at 15: 8:25 

     This program is part of the open-source Quantum ESPRESSO suite
     for quantum simulation of materials; please cite
         "P. Giannozzi et al., J. Phys.:Condens. Matter 21 395502 (2009);
         "P. Giannozzi et al., J. Phys.:Condens. Matter 29 465901 (2017);
          URL http://www.quantum-espresso.org", 
     in publications or presentations arising from this work. More details at
     http://www.quantum-espresso.org/quote

     Parallel version (MPI), running on     1 processors

     MPI processes distributed on     1 nodes
     Reading input from charged.in

     Current dimensions of program PWSCF are:
     Max number of different atomic species (ntypx) = 10
     Max number of k-points (npk) =  40000
     Max angular momentum in pseudopotentials (lmaxx) =  3
               file C.pbe-rrkjus.UPF: wavefunction(s)  2S 2P renormalized
               file H.pbe-rrkjus.UPF: wavefunction(s)  1S renormalized
               file N.pbe-rrkjus.UPF: wavefunction(s)  2S renormalized
               file O.pbe-rrkjus.UPF: wavefunction(s)  2S renormalized

     gamma-point specific algorithms are used

     Subspace diagonalization in iterative solution of the eigenvalue problem:
     a serial algorithm will be used

 
     G-vector sticks info
     --------------------
     sticks:   dense  smooth     PW     G-vecs:    dense   smooth      PW
     Sum        9549    3809    949               701475   177509   22119
 


     bravais-lattice index     =            1
     lattice parameter (alat)  =      20.0000  a.u.
     unit-cell volume          =    8000.0000 (a.u.)^3
     number of atoms/cell      =           10
     number of atomic types    =            4
     number of electrons       =        24.00
     number of Kohn-Sham states=           12
     kinetic-energy cutoff     =      30.0000  Ry
     charge density cutoff     =     300.0000  Ry
     convergence threshold     =      5.0E-06
     mixing beta               =       0.7000
     number of iterations used =            8  plain     mixing
     Exchange-correlation      = SLA PW PBE PBE ( 1  4  3  4 0 0)
 

     Environ Module
     ==============

     Plese cite
         O. Andreussi, I. Dabo and N. Marzari, J. Chem. Phys. 136, 064102 (2012)         
     in publications or presentations arising from this work.

     compensation onset threshold      =               0.1000E+03 
     static permittivity               =                   100.00 
     epsilon calculation mode          =               electronic 

     Electrostatic Setup
     -------------------
     electrostatic problem to solve    = generalized              
     numerical solver adopted          = cg                       
     type of auxiliary density adopted = none                     
     type of core tool for poisson     = fft                      
     type of core tool for s(r) deriv  = analytic                 



     celldm(1)=  20.000000  celldm(2)=   0.000000  celldm(3)=   0.000000
     celldm(4)=   0.000000  celldm(5)=   0.000000  celldm(6)=   0.000000

     crystal axes: (cart. coord. in units of alat)
               a(1) = (   1.000000   0.000000   0.000000 )  
               a(2) = (   0.000000   1.000000   0.000000 )  
               a(3) = (   0.000000   0.000000   1.000000 )  

     reciprocal axes: (cart. coord. in units 2 pi/alat)
               b(1) = (  1.000000  0.000000  0.000000 )  
               b(2) = (  0.000000  1.000000  0.000000 )  
               b(3) = (  0.000000  0.000000  1.000000 )  


     PseudoPot. # 1 for C  read from file:
     /home/fnattino/Programs/quantumespresso/q-e-qe-6.4.1-develop/Environ/tests/../..//pseudo/C.pbe-rrkjus.UPF
     MD5 check sum: c9ac5a99bc85b198593446162950cd17
     Pseudo is Ultrasoft, Zval =  4.0
     Generated by new atomic code, or converted to UPF format
     Using radial grid of  627 points,  4 beta functions with: 
                l(1) =   0
                l(2) =   0
                l(3) =   1
                l(4) =   1
     Q(r) pseudized with 0 coefficients 


     PseudoPot. # 2 for H  read from file:
     /home/fnattino/Programs/quantumespresso/q-e-qe-6.4.1-develop/Environ/tests/../..//pseudo/H.pbe-rrkjus.UPF
     MD5 check sum: 2d52a7f45632fd764c17cc6affed14c8
     Pseudo is Ultrasoft, Zval =  1.0
     Generated by new atomic code, or converted to UPF format
     Using radial grid of 1061 points,  2 beta functions with: 
                l(1) =   0
                l(2) =   0
     Q(r) pseudized with 0 coefficients 


     PseudoPot. # 3 for N  read from file:
     /home/fnattino/Programs/quantumespresso/q-e-qe-6.4.1-develop/Environ/tests/../..//pseudo/N.pbe-rrkjus.UPF
     MD5 check sum: 28c76d763763edb36c62a6ca2be9aebd
     Pseudo is Ultrasoft, Zval =  5.0
     Generated by new atomic code, or converted to UPF format
     Using radial grid of 1257 points,  4 beta functions with: 
                l(1) =   0
                l(2) =   0
                l(3) =   1
                l(4) =   1
     Q(r) pseudized with 0 coefficients 


     PseudoPot. # 4 for O  read from file:
     /home/fnattino/Programs/quantumespresso/q-e-qe-6.4.1-develop/Environ/tests/../..//pseudo/O.pbe-rrkjus.UPF
     MD5 check sum: fadcf19ee70a498d3030e2e79cf929a4
     Pseudo is Ultrasoft, Zval =  6.0
     Generated by new atomic code, or converted to UPF format
     Using radial grid of 1269 points,  4 beta functions with: 
                l(1) =   0
                l(2) =   0
                l(3) =   1
                l(4) =   1
     Q(r) pseudized with 0 coefficients 


     atomic species   valence    mass     pseudopotential
        C              4.00    12.00000     C ( 1.00)
        H              1.00     1.00000     H ( 1.00)
        N              5.00    14.00000     N ( 1.00)
        O              6.00    16.00000     O ( 1.00)

     No symmetry found



   Cartesian axes

     site n.     atom                  positions (alat units)
         1           C   tau(   1) = (   0.0000000   0.0000000   0.0000000  )
         2           C   tau(   2) = (   0.0000000   0.0000000   0.1455089  )
         3           N   tau(   3) = (   0.1170969   0.0000000  -0.0545024  )
         4           H   tau(   4) = (   0.0476617  -0.0825466   0.1792090  )
         5           H   tau(   5) = (  -0.0953183  -0.0000030   0.1792090  )
         6           H   tau(   6) = (   0.0476566   0.0825496   0.1792090  )
         7           O   tau(   7) = (  -0.0984002  -0.0000019  -0.0641310  )
         8           H   tau(   8) = (   0.1263131  -0.0000015  -0.1475548  )
         9           H   tau(   9) = (   0.1944645   0.0000134  -0.0025716  )
        10           H   tau(  10) = (  -0.0770366  -0.0000045  -0.1522861  )

     number of k points=     1
                       cart. coord. in units 2pi/alat
        k(    1) = (   0.0000000   0.0000000   0.0000000), wk =   2.0000000

     Dense  grid:   350738 G-vectors     FFT dimensions: ( 120, 120, 120)

     Smooth grid:    88755 G-vectors     FFT dimensions: (  72,  72,  72)

     Estimated max dynamical RAM per process >     691.80 MB

     Initial potential from superposition of free atoms

     starting charge   24.42266, renormalised to   24.00000

     negative rho (up, down):  4.438E-04 0.000E+00
     Starting wfcs are   22 randomized atomic wfcs

     total cpu time spent up to now is        4.9 secs

     Self-consistent Calculation

     iteration #  1     ecut=    30.00 Ry     beta= 0.70
     Davidson diagonalization with overlap
     ethr =  1.00E-02,  avg # of iterations =  2.0

     negative rho (up, down):  1.277E-04 0.000E+00

     add environment contribution to local potential
     polarization accuracy = 4.2E-06, # of iterations =  14

     total cpu time spent up to now is        9.2 secs

     total energy              =     -80.23905785 Ry
     Harris-Foulkes estimate   =     -83.01882218 Ry
     estimated scf accuracy    <       3.73443027 Ry
     electrostatic embedding   =       0.00000000 Ry
     correction to one-el term =       0.00000000 Ry

     iteration #  2     ecut=    30.00 Ry     beta= 0.70
     Davidson diagonalization with overlap
     ethr =  1.00E-02,  avg # of iterations =  4.0

     negative rho (up, down):  6.920E-04 0.000E+00

     add environment contribution to local potential
     polarization accuracy = 6.0E-06, # of iterations =  16

     total cpu time spent up to now is       13.6 secs

     total energy              =     -80.96153357 Ry
     Harris-Foulkes estimate   =     -76.58378496 Ry
     estimated scf accuracy    <       1.54143805 Ry
     electrostatic embedding   =      -0.18539263 Ry
     correction to one-el term =      -5.01778238 Ry

     iteration #  3     ecut=    30.00 Ry     beta= 0.70
     Davidson diagonalization with overlap
     ethr =  6.42E-03,  avg # of iterations =  3.0

     negative rho (up, down):  3.243E-04 0.000E+00

     add environment contribution to local potential
     polarization accuracy = 4.4E-06, # of iterations =  17

     total cpu time spent up to now is       18.2 secs

     total energy              =     -81.32007724 Ry
     Harris-Foulkes estimate   =     -77.00551763 Ry
     estimated scf accuracy    <       0.24273961 Ry
     electrostatic embedding   =      -0.15279980 Ry
     correction to one-el term =      -4.29116165 Ry

     iteration #  4     ecut=    30.00 Ry     beta= 0.70
     Davidson diagonalization with overlap
     ethr =  1.01E-03,  avg # of iterations =  4.0

     negative rho (up, down):  8.667E-05 0.000E+00

     add environment contribution to local potential
     polarization accuracy = 4.6E-06, # of iterations =  19

     total cpu time spent up to now is       22.8 secs

     total energy              =     -81.37925148 Ry
     Harris-Foulkes estimate   =     -77.20731628 Ry
     estimated scf accuracy    <       0.02093666 Ry
     electrostatic embedding   =      -0.12841008 Ry
     correction to one-el term =      -4.05415945 Ry

     iteration #  5     ecut=    30.00 Ry     beta= 0.70
     Davidson diagonalization with overlap
     ethr =  8.72E-05,  avg # of iterations =  4.0

     negative rho (up, down):  9.646E-05 0.000E+00

     add environment contribution to local potential
     polarization accuracy = 5.5E-06, # of iterations =  19

     total cpu time spent up to now is       27.4 secs

     total energy              =     -81.38532065 Ry
     Harris-Foulkes estimate   =     -77.44083835 Ry
     estimated scf accuracy    <       0.00247579 Ry
     electrostatic embedding   =      -0.12263012 Ry
     correction to one-el term =      -3.82309308 Ry

     iteration #  6     ecut=    30.00 Ry     beta= 0.70
     Davidson diagonalization with overlap
     ethr =  1.03E-05,  avg # of iterations =  3.0

     negative rho (up, down):  1.093E-04 0.000E+00

     add environment contribution to local potential
     polarization accuracy = 9.5E-06, # of iterations =  18

     total cpu time spent up to now is       31.9 secs

     total energy              =     -81.38623681 Ry
     Harris-Foulkes estimate   =     -77.48151845 Ry
     estimated scf accuracy    <       0.00027451 Ry
     electrostatic embedding   =      -0.12278906 Ry
     correction to one-el term =      -3.78201403 Ry

     iteration #  7     ecut=    30.00 Ry     beta= 0.70
     Davidson diagonalization with overlap
     ethr =  1.14E-06,  avg # of iterations =  3.0

     negative rho (up, down):  2.805E-04 0.000E+00

     add environment contribution to local potential
     polarization accuracy = 9.0E-06, # of iterations =  18

     total cpu time spent up to now is       36.3 secs

     total energy              =     -81.38650811 Ry
     Harris-Foulkes estimate   =     -77.49012823 Ry
     estimated scf accuracy    <       0.00003968 Ry
     electrostatic embedding   =      -0.12424696 Ry
     correction to one-el term =      -3.77214484 Ry

     iteration #  8     ecut=    30.00 Ry     beta= 0.70
     Davidson diagonalization with overlap
     ethr =  1.65E-07,  avg # of iterations =  3.0

     negative rho (up, down):  3.907E-04 0.000E+00

     add environment contribution to local potential
     polarization accuracy = 6.8E-06, # of iterations =  19

     total cpu time spent up to now is       41.0 secs

     total energy              =     -81.38661149 Ry
     Harris-Foulkes estimate   =     -77.48778383 Ry
     estimated scf accuracy    <       0.00001141 Ry
     electrostatic embedding   =      -0.12562809 Ry
     correction to one-el term =      -3.77320506 Ry

     iteration #  9     ecut=    30.00 Ry     beta= 0.70
     Davidson diagonalization with overlap
     ethr =  4.76E-08,  avg # of iterations =  4.0

     negative rho (up, down):  2.791E-04 0.000E+00

     the potential shift due to the Gaussian-smeared nuclei is    -0.0668 ev

     total cpu time spent up to now is       43.2 secs

     End of self-consistent calculation

          k = 0.0000 0.0000 0.0000 ( 11060 PWs)   bands (ev):

   -28.9254 -23.0835 -18.6405 -16.0090 -14.6258 -13.3807 -11.6751 -10.9522
    -9.6306  -9.6242  -9.3206  -7.3746

     highest occupied level (ev):    -7.3746

!    total energy              =     -81.38667388 Ry
     Harris-Foulkes estimate   =     -77.47860664 Ry
     estimated scf accuracy    <       0.00000425 Ry

     The total energy is the sum of the following terms:

     one-electron contribution =    -241.98275795 Ry
     hartree contribution      =     123.15979231 Ry
     xc contribution           =     -22.96347964 Ry
     ewald contribution        =      64.30784006 Ry
     electrostatic embedding   =      -0.12728983 Ry
     correction to one-el term =      -3.78077883 Ry

     convergence has been achieved in   9 iterations

     Forces acting on atoms (cartesian axes, Ry/au):

     atom    1 type  1   force =     0.21862656   -0.00000078    0.09551983
     atom    2 type  1   force =    -0.03077046   -0.00000184   -0.07942459
     atom    3 type  3   force =    -0.13910954   -0.00000783    0.04303896
     atom    4 type  2   force =     0.01849724   -0.02816515    0.00876054
     atom    5 type  2   force =    -0.03115002    0.00000288    0.01157959
     atom    6 type  2   force =     0.01849561    0.02817364    0.00876212
     atom    7 type  4   force =    -0.09349767   -0.00001472   -0.00191414
     atom    8 type  2   force =     0.00709024    0.00000426   -0.05294846
     atom    9 type  2   force =     0.04335852    0.00000608    0.03733967
     atom   10 type  2   force =    -0.01154048    0.00000344   -0.07071352

     Total force =     0.330025     Total SCF correction =     0.003246

     Writing output data file pwscf.save/
 
     init_run     :      3.86s CPU      4.29s WALL (       1 calls)
     electrons    :     31.39s CPU     38.27s WALL (       1 calls)
     forces       :      0.75s CPU      0.96s WALL (       1 calls)

     Called by init_run:
     wfcinit      :      0.14s CPU      0.14s WALL (       1 calls)
     potinit      :      1.43s CPU      1.51s WALL (       1 calls)
     hinit0       :      1.94s CPU      1.98s WALL (       1 calls)

     Called by electrons:
     c_bands      :      2.35s CPU      2.37s WALL (       9 calls)
     sum_band     :      3.68s CPU      5.21s WALL (       9 calls)
     v_of_rho     :      4.48s CPU      4.83s WALL (      10 calls)
     newd         :      2.59s CPU      4.48s WALL (      10 calls)
     mix_rho      :      0.51s CPU      0.51s WALL (       9 calls)

     Called by c_bands:
     init_us_2    :      0.08s CPU      0.09s WALL (      19 calls)
     regterg      :      2.22s CPU      2.24s WALL (       9 calls)

     Called by sum_band:
     sum_band:bec :      0.00s CPU      0.00s WALL (       9 calls)
     addusdens    :      2.98s CPU      4.51s WALL (       9 calls)

     Called by *egterg:
     h_psi        :      2.16s CPU      2.17s WALL (      40 calls)
     s_psi        :      0.05s CPU      0.03s WALL (      40 calls)
     g_psi        :      0.01s CPU      0.02s WALL (      30 calls)
     rdiaghg      :      0.02s CPU      0.01s WALL (      39 calls)

     Called by h_psi:
     h_psi:pot    :      2.15s CPU      2.16s WALL (      40 calls)
     h_psi:calbec :      0.03s CPU      0.04s WALL (      40 calls)
     vloc_psi     :      2.08s CPU      2.08s WALL (      40 calls)
     add_vuspsi   :      0.04s CPU      0.04s WALL (      40 calls)

     General routines
     calbec       :      0.04s CPU      0.06s WALL (      53 calls)
     fft          :      9.38s CPU      9.75s WALL (     545 calls)
     ffts         :      0.05s CPU      0.06s WALL (      19 calls)
     fftw         :      1.87s CPU      1.91s WALL (     424 calls)
     interpolate  :      0.26s CPU      0.31s WALL (      10 calls)
 
     Parallel routines
 
     Environ routines
     calc_eelect  :      0.02s CPU      0.03s WALL (      18 calls)
     calc_velect  :     11.64s CPU     14.27s WALL (      16 calls)
     dielectric   :      0.54s CPU      0.57s WALL (      11 calls)
     calc_felect  :      0.08s CPU      0.08s WALL (       1 calls)
 
     PWSCF        :     36.63s CPU     44.19s WALL

 
   This run was terminated on:  15: 9: 9  24Apr2019            

=------------------------------------------------------------------------------=
   JOB DONE.
=------------------------------------------------------------------------------=

%%%% IONS %%%%%%%%%%%%%%%%%%%%%%%%%%%%%%%%%%%%%%%%%%%%%%%%%%%%%%%%%%%%%%%%%%%%%%
 number of ions             =         10
 ionic center of charge     =      0.0095530    -0.0000002     0.0063981
 total ionic charge         =    -25.0000000
 ionic dipole               =      0.0000000     0.0000000     0.0000000
 ionic quadrupole (pc)      =    -79.0828058    -5.4513517  -105.8059629
 ionic quadrupole (gauss)   =    -82.2078058    -8.5763517  -108.9309629
 ion   1 type =  1 coordinates =      0.0000000     0.0000000     0.0000000
 ion   2 type =  1 coordinates =      0.0000000     0.0000000     2.9101782
 ion   3 type =  3 coordinates =      2.3419379     0.0000000    -1.0900479
 ion   4 type =  2 coordinates =      0.9532347    -1.6509323     3.5841800
 ion   5 type =  2 coordinates =     -1.9063663    -0.0000596     3.5841809
 ion   6 type =  2 coordinates =      0.9531315     1.6509919     3.5841800
 ion   7 type =  4 coordinates =     -1.9680045    -0.0000375    -1.2826193
 ion   8 type =  2 coordinates =      2.5262613    -0.0000303    -2.9510950
 ion   9 type =  2 coordinates =      3.8892907     0.0002681    -0.0514326
 ion  10 type =  2 coordinates =     -1.5407317    -0.0000890    -3.0457220

%%%% SYSTEM %%%%%%%%%%%%%%%%%%%%%%%%%%%%%%%%%%%%%%%%%%%%%%%%%%%%%%%%%%%%%%%%%%%%
 system is built from all present ionic types
 system defined dimension   =  0 
 system defined axis        =  3 
 system center              =      0.0095530    -0.0000002     0.0063981 
 system width               =      0.2021425 

%%%% ELECTRONS %%%%%%%%%%%%%%%%%%%%%%%%%%%%%%%%%%%%%%%%%%%%%%%%%%%%%%%%%%%%%%%%%
 number of electrons        =         24
 total electronic charge    =     24.0000000

%%%% BOUNDARY %%%%%%%%%%%%%%%%%%%%%%%%%%%%%%%%%%%%%%%%%%%%%%%%%%%%%%%%%%%%%%%%%%
 boundary label             = solvent              
 boundary mode              = electronic           
 boundary is built as a function of a smooth density
 function type              =  2 
 using the modified SCCS function with parameters 
 rhomax                     =      0.0050000 
 rhomin                     =      0.0001000 
 volume of the QM region    =   2771.6247530 
 surface of the QM region   =    905.6008160 

%%%% DIELECTRIC %%%%%%%%%%%%%%%%%%%%%%%%%%%%%%%%%%%%%%%%%%%%%%%%%%%%%%%%%%%%%%%%%
 dielectric build on homogeneous background
 environment bulk permitt.  =    100.0000000 
 dielectric flags
 need gradient              =  F 
 need factor depend. sqrt   =  T 
 total dielectric charge    =      0.0000000

%%%% DENSITY %%%%%%%%%%%%%%%%%%%%%%%%%%%%%%%%%%%%%%%%%%%%%%%%%%%%%%%%%%%%%%%%%%%
 density label              = vreference                                                                      
 integral of density        =      0.000000000    

%%%% DENSITY %%%%%%%%%%%%%%%%%%%%%%%%%%%%%%%%%%%%%%%%%%%%%%%%%%%%%%%%%%%%%%%%%%%
 density label              = velectrostatic                                                                  
 integral of density        =      0.000000000    

%%%% CHARGES %%%%%%%%%%%%%%%%%%%%%%%%%%%%%%%%%%%%%%%%%%%%%%%%%%%%%%%%%%%%%%%%%%%
 total number of charges    =         34
 total charge               =     -1.0000000

%%%% DENSITY %%%%%%%%%%%%%%%%%%%%%%%%%%%%%%%%%%%%%%%%%%%%%%%%%%%%%%%%%%%%%%%%%%%
 density label              = vsoftcavity                                                                     
 integral of density        =      0.000000000    

%%%% ELECTRONS %%%%%%%%%%%%%%%%%%%%%%%%%%%%%%%%%%%%%%%%%%%%%%%%%%%%%%%%%%%%%%%%%
 number of electrons        =         24
 total electronic charge    =     24.0000000

%%%% BOUNDARY %%%%%%%%%%%%%%%%%%%%%%%%%%%%%%%%%%%%%%%%%%%%%%%%%%%%%%%%%%%%%%%%%%
 boundary label             = solvent              
 boundary mode              = electronic           
 boundary is built as a function of a smooth density
 function type              =  2 
 using the modified SCCS function with parameters 
 rhomax                     =      0.0050000 
 rhomin                     =      0.0001000 
 volume of the QM region    =    989.6663037 
 surface of the QM region   =    490.3846795 

%%%% DIELECTRIC %%%%%%%%%%%%%%%%%%%%%%%%%%%%%%%%%%%%%%%%%%%%%%%%%%%%%%%%%%%%%%%%%
 dielectric build on homogeneous background
 environment bulk permitt.  =    100.0000000 
 dielectric flags
 need gradient              =  F 
 need factor depend. sqrt   =  T 
 total dielectric charge    =      0.0000000

%%%% DENSITY %%%%%%%%%%%%%%%%%%%%%%%%%%%%%%%%%%%%%%%%%%%%%%%%%%%%%%%%%%%%%%%%%%%
 density label              = vreference                                                                      
 integral of density        =    -0.2329659099E-12

%%%% COMPUTE ELECTROSTATIC POTENTIAL %%%%%%%%%%%%%%%%%%%%%%%%%%%%%%%%%%%%%%%%%%%
 Iteration #          1
  pAp =    92.0128131107394       rzold =    89.1167871489848       alpha = 
  0.968525840436275     
 delta_qm =   0.144051E-01 delta_en =   0.358571E+03 tol =   0.100000E-04
 Iteration #          2
  pAp =    132.520657640119       rzold =    17.6132548542912       alpha = 
  0.132909503830888     
 delta_qm =   0.289070E-02 delta_en =   0.144394E+02 tol =   0.100000E-04
 Iteration #          3
  pAp =   0.875210726639450       rzold =   0.189580626128078       alpha = 
  0.216611406096463     
 delta_qm =   0.145902E-02 delta_en =   0.367844E+01 tol =   0.100000E-04
 Iteration #          4
  pAp =   0.108685012690477       rzold =   2.398392293269061E-002  alpha = 
  0.220673691238314     
 delta_qm =   0.104063E-02 delta_en =   0.187125E+01 tol =   0.100000E-04
 Iteration #          5
  pAp =   1.103448460193143E-002  rzold =   4.016261756553790E-003  alpha = 
  0.363973660885874     
 delta_qm =   0.560004E-03 delta_en =   0.541909E+00 tol =   0.100000E-04
 Iteration #          6
  pAp =   3.161772893740539E-003  rzold =   1.244401414874741E-003  alpha = 
  0.393577102687648     
 delta_qm =   0.250805E-03 delta_en =   0.108697E+00 tol =   0.100000E-04
 Iteration #          7
  pAp =   4.557029479957311E-004  rzold =   1.852514338078354E-004  alpha = 
  0.406517962244060     
 delta_qm =   0.150204E-03 delta_en =   0.389857E-01 tol =   0.100000E-04
 Iteration #          8
  pAp =   3.340931944857328E-004  rzold =   9.997319056183384E-005  alpha = 
  0.299237434978949     
 delta_qm =   0.862175E-04 delta_en =   0.128450E-01 tol =   0.100000E-04
 Iteration #          9
  pAp =   1.111757498479947E-004  rzold =   4.483629786977063E-005  alpha = 
  0.403292066220135     
 delta_qm =   0.370895E-04 delta_en =   0.237709E-02 tol =   0.100000E-04
 Iteration #         10
  pAp =   2.443675294536377E-005  rzold =   1.025899628262590E-005  alpha = 
  0.419818308331029     
 delta_qm =   0.181116E-04 delta_en =   0.566834E-03 tol =   0.100000E-04
 Iteration #         11
  pAp =   1.752100488235973E-006  rzold =   9.356876123718237E-007  alpha = 
  0.534037641479046     
 delta_qm =   0.992077E-05 delta_en =   0.170073E-03 tol =   0.100000E-04
 Iteration #         12
  pAp =   3.088983757374460E-007  rzold =   1.998189316465060E-007  alpha = 
  0.646875954493027     
 delta_qm =   0.472194E-05 delta_en =   0.385287E-04 tol =   0.100000E-04
 Iteration #         13
  pAp =   2.177341845552600E-007  rzold =   9.265342143857728E-008  alpha = 
  0.425534564670355     
 delta_qm =   0.253130E-05 delta_en =   0.110721E-04 tol =   0.100000E-04
 Iteration #         14
  pAp =   1.078851822183563E-007  rzold =   3.692860480779687E-008  alpha = 
  0.342295429719482     
 delta_qm =   0.156053E-05 delta_en =   0.420813E-05 tol =   0.100000E-04
 Charges are converged, EXIT

%%%% DENSITY %%%%%%%%%%%%%%%%%%%%%%%%%%%%%%%%%%%%%%%%%%%%%%%%%%%%%%%%%%%%%%%%%%%
 density label              = velectrostatic                                                                  
 integral of density        =    -0.3595477825E-12

%%%% CHARGES %%%%%%%%%%%%%%%%%%%%%%%%%%%%%%%%%%%%%%%%%%%%%%%%%%%%%%%%%%%%%%%%%%%
 total number of charges    =         34
 total charge               =     -1.0000000

%%%% DENSITY %%%%%%%%%%%%%%%%%%%%%%%%%%%%%%%%%%%%%%%%%%%%%%%%%%%%%%%%%%%%%%%%%%%
 density label              = vsoftcavity                                                                     
 integral of density        =      71.22167855    

%%%% ELECTRONS %%%%%%%%%%%%%%%%%%%%%%%%%%%%%%%%%%%%%%%%%%%%%%%%%%%%%%%%%%%%%%%%%
 number of electrons        =         24
 total electronic charge    =     24.0000000

%%%% BOUNDARY %%%%%%%%%%%%%%%%%%%%%%%%%%%%%%%%%%%%%%%%%%%%%%%%%%%%%%%%%%%%%%%%%%
 boundary label             = solvent              
 boundary mode              = electronic           
 boundary is built as a function of a smooth density
 function type              =  2 
 using the modified SCCS function with parameters 
 rhomax                     =      0.0050000 
 rhomin                     =      0.0001000 
 volume of the QM region    =    837.6752772 
 surface of the QM region   =    448.9926521 

%%%% DIELECTRIC %%%%%%%%%%%%%%%%%%%%%%%%%%%%%%%%%%%%%%%%%%%%%%%%%%%%%%%%%%%%%%%%%
 dielectric build on homogeneous background
 environment bulk permitt.  =    100.0000000 
 dielectric flags
 need gradient              =  F 
 need factor depend. sqrt   =  T 
 total dielectric charge    =      0.9813172

%%%% DENSITY %%%%%%%%%%%%%%%%%%%%%%%%%%%%%%%%%%%%%%%%%%%%%%%%%%%%%%%%%%%%%%%%%%%
 density label              = vreference                                                                      
 integral of density        =    -0.2950068173E-12

%%%% COMPUTE ELECTROSTATIC POTENTIAL %%%%%%%%%%%%%%%%%%%%%%%%%%%%%%%%%%%%%%%%%%%
 Warning: bad guess with residual norm =   0.739954E+03, reset to no guess
 Iteration #          1
  pAp =    95.4532541409171       rzold =    92.7270004928732       alpha = 
  0.971438861120238     
 delta_qm =   0.202002E-01 delta_en =   0.705107E+03 tol =   0.100000E-04
 Iteration #          2
  pAp =    168.376786623999       rzold =    19.5453955973693       alpha = 
  0.116081295939065     
 delta_qm =   0.404439E-02 delta_en =   0.282650E+02 tol =   0.100000E-04
 Iteration #          3
  pAp =    1.14307351734693       rzold =   0.200859142911571       alpha = 
  0.175718481675408     
 delta_qm =   0.218211E-02 delta_en =   0.822808E+01 tol =   0.100000E-04
 Iteration #          4
  pAp =   0.120334625663271       rzold =   2.338432251243588E-002  alpha = 
  0.194327462968735     
 delta_qm =   0.161698E-02 delta_en =   0.451808E+01 tol =   0.100000E-04
 Iteration #          5
  pAp =   1.203994780240540E-002  rzold =   4.619582002293015E-003  alpha = 
  0.383687876235651     
 delta_qm =   0.908470E-03 delta_en =   0.142615E+01 tol =   0.100000E-04
 Iteration #          6
  pAp =   5.230817468926731E-003  rzold =   1.849800894740748E-003  alpha = 
  0.353635145123941     
 delta_qm =   0.473634E-03 delta_en =   0.387641E+00 tol =   0.100000E-04
 Iteration #          7
  pAp =   8.397839500989717E-004  rzold =   3.992906034814446E-004  alpha = 
  0.475468248034970     
 delta_qm =   0.288919E-03 delta_en =   0.144243E+00 tol =   0.100000E-04
 Iteration #          8
  pAp =   5.688129178652866E-004  rzold =   2.356311842864384E-004  alpha = 
  0.414250761341260     
 delta_qm =   0.139604E-03 delta_en =   0.336776E-01 tol =   0.100000E-04
 Iteration #          9
  pAp =   7.502644140883180E-004  rzold =   1.729041843444398E-004  alpha = 
  0.230457664121714     
 delta_qm =   0.789328E-04 delta_en =   0.107661E-01 tol =   0.100000E-04
 Iteration #         10
  pAp =   1.309131264588351E-004  rzold =   4.485681116982267E-005  alpha = 
  0.342645633659415     
 delta_qm =   0.362182E-04 delta_en =   0.226672E-02 tol =   0.100000E-04
 Iteration #         11
  pAp =   7.465095097884043E-006  rzold =   3.285963496618180E-006  alpha = 
  0.440177044435720     
 delta_qm =   0.207697E-04 delta_en =   0.745428E-03 tol =   0.100000E-04
 Iteration #         12
  pAp =   1.861412285222317E-006  rzold =   7.622019033234389E-007  alpha = 
  0.409475057930224     
 delta_qm =   0.135942E-04 delta_en =   0.319339E-03 tol =   0.100000E-04
 Iteration #         13
  pAp =   6.061881692368208E-007  rzold =   3.000988679626818E-007  alpha = 
  0.495058932510182     
 delta_qm =   0.796247E-05 delta_en =   0.109557E-03 tol =   0.100000E-04
 Iteration #         14
  pAp =   3.783487811956832E-007  rzold =   1.499830283899311E-007  alpha = 
  0.396414725893776     
 delta_qm =   0.542340E-05 delta_en =   0.508262E-04 tol =   0.100000E-04
 Iteration #         15
  pAp =   1.523815016574871E-007  rzold =   5.997261994318389E-008  alpha = 
  0.393568899707960     
 delta_qm =   0.342533E-05 delta_en =   0.202744E-04 tol =   0.100000E-04
 Iteration #         16
  pAp =   6.744234775079646E-008  rzold =   2.539843771738726E-008  alpha = 
  0.376594803775753     
 delta_qm =   0.186024E-05 delta_en =   0.597971E-05 tol =   0.100000E-04
 Charges are converged, EXIT

%%%% DENSITY %%%%%%%%%%%%%%%%%%%%%%%%%%%%%%%%%%%%%%%%%%%%%%%%%%%%%%%%%%%%%%%%%%%
 density label              = velectrostatic                                                                  
 integral of density        =    -0.8789676805E-13

%%%% CHARGES %%%%%%%%%%%%%%%%%%%%%%%%%%%%%%%%%%%%%%%%%%%%%%%%%%%%%%%%%%%%%%%%%%%
 total number of charges    =         34
 total charge               =     -1.0000000

%%%% DENSITY %%%%%%%%%%%%%%%%%%%%%%%%%%%%%%%%%%%%%%%%%%%%%%%%%%%%%%%%%%%%%%%%%%%
 density label              = vsoftcavity                                                                     
 integral of density        =      49.60039014    

%%%% ELECTRONS %%%%%%%%%%%%%%%%%%%%%%%%%%%%%%%%%%%%%%%%%%%%%%%%%%%%%%%%%%%%%%%%%
 number of electrons        =         24
 total electronic charge    =     24.0000000

%%%% BOUNDARY %%%%%%%%%%%%%%%%%%%%%%%%%%%%%%%%%%%%%%%%%%%%%%%%%%%%%%%%%%%%%%%%%%
 boundary label             = solvent              
 boundary mode              = electronic           
 boundary is built as a function of a smooth density
 function type              =  2 
 using the modified SCCS function with parameters 
 rhomax                     =      0.0050000 
 rhomin                     =      0.0001000 
 volume of the QM region    =    757.1451765 
 surface of the QM region   =    424.1890896 

%%%% DIELECTRIC %%%%%%%%%%%%%%%%%%%%%%%%%%%%%%%%%%%%%%%%%%%%%%%%%%%%%%%%%%%%%%%%%
 dielectric build on homogeneous background
 environment bulk permitt.  =    100.0000000 
 dielectric flags
 need gradient              =  F 
 need factor depend. sqrt   =  T 
 total dielectric charge    =      0.9822638

%%%% DENSITY %%%%%%%%%%%%%%%%%%%%%%%%%%%%%%%%%%%%%%%%%%%%%%%%%%%%%%%%%%%%%%%%%%%
 density label              = vreference                                                                      
 integral of density        =    -0.5966585251E-12

%%%% COMPUTE ELECTROSTATIC POTENTIAL %%%%%%%%%%%%%%%%%%%%%%%%%%%%%%%%%%%%%%%%%%%
 Warning: bad guess with residual norm =   0.919184E+03, reset to no guess
 Iteration #          1
  pAp =    95.9547098636074       rzold =    93.3874254792739       alpha = 
  0.973244831983936     
 delta_qm =   0.225243E-01 delta_en =   0.876693E+03 tol =   0.100000E-04
 Iteration #          2
  pAp =    211.476298404663       rzold =    21.4225607332677       alpha = 
  0.101300055348403     
 delta_qm =   0.423465E-02 delta_en =   0.309870E+02 tol =   0.100000E-04
 Iteration #          3
  pAp =    1.22639043117589       rzold =   0.223409080001062       alpha = 
  0.182167990161871     
 delta_qm =   0.203974E-02 delta_en =   0.718943E+01 tol =   0.100000E-04
 Iteration #          4
  pAp =   0.105213229616646       rzold =   1.939353320835430E-002  alpha = 
  0.184325994734849     
 delta_qm =   0.159181E-02 delta_en =   0.437851E+01 tol =   0.100000E-04
 Iteration #          5
  pAp =   1.927504196915955E-002  rzold =   5.459539720390579E-003  alpha = 
  0.283243986141558     
 delta_qm =   0.103603E-02 delta_en =   0.185476E+01 tol =   0.100000E-04
 Iteration #          6
  pAp =   7.054794427698660E-003  rzold =   2.376778376136785E-003  alpha = 
  0.336902570371864     
 delta_qm =   0.569971E-03 delta_en =   0.561370E+00 tol =   0.100000E-04
 Iteration #          7
  pAp =   1.575539575675288E-003  rzold =   6.635488532179479E-004  alpha = 
  0.421156576110471     
 delta_qm =   0.371149E-03 delta_en =   0.238034E+00 tol =   0.100000E-04
 Iteration #          8
  pAp =   7.290659618179870E-004  rzold =   3.498499234174506E-004  alpha = 
  0.479860453977402     
 delta_qm =   0.191487E-03 delta_en =   0.633611E-01 tol =   0.100000E-04
 Iteration #          9
  pAp =   1.077006289648552E-003  rzold =   2.727210991248513E-004  alpha = 
  0.253221454457657     
 delta_qm =   0.136317E-03 delta_en =   0.321101E-01 tol =   0.100000E-04
 Iteration #         10
  pAp =   6.050818221512457E-004  rzold =   1.531851208443988E-004  alpha = 
  0.253164308092714     
 delta_qm =   0.583262E-04 delta_en =   0.587857E-02 tol =   0.100000E-04
 Iteration #         11
  pAp =   4.566946150294920E-005  rzold =   1.553155218596897E-005  alpha = 
  0.340086168630782     
 delta_qm =   0.349018E-04 delta_en =   0.210494E-02 tol =   0.100000E-04
 Iteration #         12
  pAp =   1.437005101808810E-005  rzold =   3.982079042017281E-006  alpha = 
  0.277109596688620     
 delta_qm =   0.232666E-04 delta_en =   0.935429E-03 tol =   0.100000E-04
 Iteration #         13
  pAp =   1.961639512991362E-006  rzold =   8.530808066540207E-007  alpha = 
  0.434881537104202     
 delta_qm =   0.136220E-04 delta_en =   0.320647E-03 tol =   0.100000E-04
 Iteration #         14
  pAp =   9.183012760215600E-007  rzold =   3.868021237417402E-007  alpha = 
  0.421214838574022     
 delta_qm =   0.924595E-05 delta_en =   0.147722E-03 tol =   0.100000E-04
 Iteration #         15
  pAp =   2.951696506900986E-007  rzold =   1.377698586772570E-007  alpha = 
  0.466748049317248     
 delta_qm =   0.529389E-05 delta_en =   0.484276E-04 tol =   0.100000E-04
 Iteration #         16
  pAp =   1.218299251704234E-007  rzold =   5.620257894299009E-008  alpha = 
  0.461319982462194     
 delta_qm =   0.298345E-05 delta_en =   0.153809E-04 tol =   0.100000E-04
 Iteration #         17
  pAp =   3.788673004868837E-008  rzold =   1.736588654334636E-008  alpha = 
  0.458363298205715     
 delta_qm =   0.160172E-05 delta_en =   0.443319E-05 tol =   0.100000E-04
 Charges are converged, EXIT

%%%% DENSITY %%%%%%%%%%%%%%%%%%%%%%%%%%%%%%%%%%%%%%%%%%%%%%%%%%%%%%%%%%%%%%%%%%%
 density label              = velectrostatic                                                                  
 integral of density        =     0.8719280442E-12

%%%% CHARGES %%%%%%%%%%%%%%%%%%%%%%%%%%%%%%%%%%%%%%%%%%%%%%%%%%%%%%%%%%%%%%%%%%%
 total number of charges    =         34
 total charge               =     -1.0000000

%%%% DENSITY %%%%%%%%%%%%%%%%%%%%%%%%%%%%%%%%%%%%%%%%%%%%%%%%%%%%%%%%%%%%%%%%%%%
 density label              = vsoftcavity                                                                     
 integral of density        =      37.81267104    

%%%% ELECTRONS %%%%%%%%%%%%%%%%%%%%%%%%%%%%%%%%%%%%%%%%%%%%%%%%%%%%%%%%%%%%%%%%%
 number of electrons        =         24
 total electronic charge    =     24.0000000

%%%% BOUNDARY %%%%%%%%%%%%%%%%%%%%%%%%%%%%%%%%%%%%%%%%%%%%%%%%%%%%%%%%%%%%%%%%%%
 boundary label             = solvent              
 boundary mode              = electronic           
 boundary is built as a function of a smooth density
 function type              =  2 
 using the modified SCCS function with parameters 
 rhomax                     =      0.0050000 
 rhomin                     =      0.0001000 
 volume of the QM region    =    717.0742666 
 surface of the QM region   =    412.4201055 

%%%% DIELECTRIC %%%%%%%%%%%%%%%%%%%%%%%%%%%%%%%%%%%%%%%%%%%%%%%%%%%%%%%%%%%%%%%%%
 dielectric build on homogeneous background
 environment bulk permitt.  =    100.0000000 
 dielectric flags
 need gradient              =  F 
 need factor depend. sqrt   =  T 
 total dielectric charge    =      0.9824215

%%%% DENSITY %%%%%%%%%%%%%%%%%%%%%%%%%%%%%%%%%%%%%%%%%%%%%%%%%%%%%%%%%%%%%%%%%%%
 density label              = vreference                                                                      
 integral of density        =    -0.2625060663E-13

%%%% COMPUTE ELECTROSTATIC POTENTIAL %%%%%%%%%%%%%%%%%%%%%%%%%%%%%%%%%%%%%%%%%%%
 Warning: bad guess with residual norm =   0.139383E+04, reset to no guess
 Iteration #          1
  pAp =    95.8691089321385       rzold =    93.2739930176397       alpha = 
  0.972930634868675     
 delta_qm =   0.276968E-01 delta_en =   0.132557E+04 tol =   0.100000E-04
 Iteration #          2
  pAp =    251.297062516471       rzold =    23.5291115106231       alpha = 
  9.363066672966364E-002
 delta_qm =   0.507391E-02 delta_en =   0.444866E+02 tol =   0.100000E-04
 Iteration #          3
  pAp =    1.73945476147665       rzold =   0.290084524194840       alpha = 
  0.166767501299420     
 delta_qm =   0.235968E-02 delta_en =   0.962163E+01 tol =   0.100000E-04
 Iteration #          4
  pAp =   0.139146983414377       rzold =   2.384137440363774E-002  alpha = 
  0.171339498842304     
 delta_qm =   0.188097E-02 delta_en =   0.611378E+01 tol =   0.100000E-04
 Iteration #          5
  pAp =   2.560766562786863E-002  rzold =   6.443460987854477E-003  alpha = 
  0.251622349396897     
 delta_qm =   0.128332E-02 delta_en =   0.284587E+01 tol =   0.100000E-04
 Iteration #          6
  pAp =   8.422309908862684E-003  rzold =   2.729245806749329E-003  alpha = 
  0.324049558408837     
 delta_qm =   0.748391E-03 delta_en =   0.967833E+00 tol =   0.100000E-04
 Iteration #          7
  pAp =   2.328842721779386E-003  rzold =   8.714829294182412E-004  alpha = 
  0.374212874604246     
 delta_qm =   0.527007E-03 delta_en =   0.479928E+00 tol =   0.100000E-04
 Iteration #          8
  pAp =   1.176149132271302E-003  rzold =   4.529229439627296E-004  alpha = 
  0.385089723348326     
 delta_qm =   0.307284E-03 delta_en =   0.163163E+00 tol =   0.100000E-04
 Iteration #          9
  pAp =   1.999110868283753E-003  rzold =   4.912016037163067E-004  alpha = 
  0.245710036151224     
 delta_qm =   0.235208E-03 delta_en =   0.955980E-01 tol =   0.100000E-04
 Iteration #         10
  pAp =   7.679342994224191E-004  rzold =   2.570262065690499E-004  alpha = 
  0.334698172437883     
 delta_qm =   0.982210E-04 delta_en =   0.166706E-01 tol =   0.100000E-04
 Iteration #         11
  pAp =   1.199189325405047E-004  rzold =   3.955606479067166E-005  alpha = 
  0.329856711969237     
 delta_qm =   0.616226E-04 delta_en =   0.656182E-02 tol =   0.100000E-04
 Iteration #         12
  pAp =   3.890747134958837E-005  rzold =   1.026965568002409E-005  alpha = 
  0.263950735521977     
 delta_qm =   0.435183E-04 delta_en =   0.327256E-02 tol =   0.100000E-04
 Iteration #         13
  pAp =   5.786519913127914E-006  rzold =   2.294778427570872E-006  alpha = 
  0.396573149668887     
 delta_qm =   0.275606E-04 delta_en =   0.131257E-02 tol =   0.100000E-04
 Iteration #         14
  pAp =   2.890741592656201E-006  rzold =   1.180309037193375E-006  alpha = 
  0.408306657430708     
 delta_qm =   0.192884E-04 delta_en =   0.642887E-03 tol =   0.100000E-04
 Iteration #         15
  pAp =   1.064089809486887E-006  rzold =   4.767996083291440E-007  alpha = 
  0.448082111188586     
 delta_qm =   0.109204E-04 delta_en =   0.206071E-03 tol =   0.100000E-04
 Iteration #         16
  pAp =   4.831847159401333E-007  rzold =   2.062701019840906E-007  alpha = 
  0.426896992349500     
 delta_qm =   0.656102E-05 delta_en =   0.743852E-04 tol =   0.100000E-04
 Iteration #         17
  pAp =   1.581847102535890E-007  rzold =   6.428252687124245E-008  alpha = 
  0.406376360700031     
 delta_qm =   0.373774E-05 delta_en =   0.241414E-04 tol =   0.100000E-04
 Iteration #         18
  pAp =   1.711427261069856E-007  rzold =   3.652336882655193E-008  alpha = 
  0.213408829328337     
 delta_qm =   0.250155E-05 delta_en =   0.108134E-04 tol =   0.100000E-04
 Iteration #         19
  pAp =   2.121516743643286E-008  rzold =   9.036020743944029E-009  alpha = 
  0.425922669289258     
 delta_qm =   0.163940E-05 delta_en =   0.464423E-05 tol =   0.100000E-04
 Charges are converged, EXIT

%%%% DENSITY %%%%%%%%%%%%%%%%%%%%%%%%%%%%%%%%%%%%%%%%%%%%%%%%%%%%%%%%%%%%%%%%%%%
 density label              = velectrostatic                                                                  
 integral of density        =    -0.2451767184E-11

%%%% CHARGES %%%%%%%%%%%%%%%%%%%%%%%%%%%%%%%%%%%%%%%%%%%%%%%%%%%%%%%%%%%%%%%%%%%
 total number of charges    =         34
 total charge               =     -1.0000000

%%%% DENSITY %%%%%%%%%%%%%%%%%%%%%%%%%%%%%%%%%%%%%%%%%%%%%%%%%%%%%%%%%%%%%%%%%%%
 density label              = vsoftcavity                                                                     
 integral of density        =      33.74494389    

%%%% ELECTRONS %%%%%%%%%%%%%%%%%%%%%%%%%%%%%%%%%%%%%%%%%%%%%%%%%%%%%%%%%%%%%%%%%
 number of electrons        =         24
 total electronic charge    =     24.0000000

%%%% BOUNDARY %%%%%%%%%%%%%%%%%%%%%%%%%%%%%%%%%%%%%%%%%%%%%%%%%%%%%%%%%%%%%%%%%%
 boundary label             = solvent              
 boundary mode              = electronic           
 boundary is built as a function of a smooth density
 function type              =  2 
 using the modified SCCS function with parameters 
 rhomax                     =      0.0050000 
 rhomin                     =      0.0001000 
 volume of the QM region    =    716.0086295 
 surface of the QM region   =    412.4259650 

%%%% DIELECTRIC %%%%%%%%%%%%%%%%%%%%%%%%%%%%%%%%%%%%%%%%%%%%%%%%%%%%%%%%%%%%%%%%%
 dielectric build on homogeneous background
 environment bulk permitt.  =    100.0000000 
 dielectric flags
 need gradient              =  F 
 need factor depend. sqrt   =  T 
 total dielectric charge    =      0.9824044

%%%% DENSITY %%%%%%%%%%%%%%%%%%%%%%%%%%%%%%%%%%%%%%%%%%%%%%%%%%%%%%%%%%%%%%%%%%%
 density label              = vreference                                                                      
 integral of density        =     0.7101479898E-12

%%%% COMPUTE ELECTROSTATIC POTENTIAL %%%%%%%%%%%%%%%%%%%%%%%%%%%%%%%%%%%%%%%%%%%
 Warning: bad guess with residual norm =   0.147596E+04, reset to no guess
 Iteration #          1
  pAp =    95.9508852238947       rzold =    93.3544803840056       alpha = 
  0.972940272162882     
 delta_qm =   0.284977E-01 delta_en =   0.140334E+04 tol =   0.100000E-04
 Iteration #          2
  pAp =    254.086057756450       rzold =    23.6496712163050       alpha = 
  9.307740623444213E-002
 delta_qm =   0.528937E-02 delta_en =   0.483449E+02 tol =   0.100000E-04
 Iteration #          3
  pAp =    1.86501803805314       rzold =   0.310024156358250       alpha = 
  0.166231183845213     
 delta_qm =   0.241754E-02 delta_en =   0.100993E+02 tol =   0.100000E-04
 Iteration #          4
  pAp =   0.138066579776469       rzold =   2.389176790850756E-002  alpha = 
  0.173045265169808     
 delta_qm =   0.192242E-02 delta_en =   0.638617E+01 tol =   0.100000E-04
 Iteration #          5
  pAp =   2.691274376338758E-002  rzold =   6.580842504941057E-003  alpha = 
  0.244525142542089     
 delta_qm =   0.132382E-02 delta_en =   0.302833E+01 tol =   0.100000E-04
 Iteration #          6
  pAp =   8.788488518222776E-003  rzold =   2.819872778010840E-003  alpha = 
  0.320859812488107     
 delta_qm =   0.774327E-03 delta_en =   0.103608E+01 tol =   0.100000E-04
 Iteration #          7
  pAp =   2.424602320817581E-003  rzold =   8.956010372636986E-004  alpha = 
  0.369380590612361     
 delta_qm =   0.549133E-03 delta_en =   0.521074E+00 tol =   0.100000E-04
 Iteration #          8
  pAp =   1.152854287330354E-003  rzold =   4.585345562363035E-004  alpha = 
  0.397738518454162     
 delta_qm =   0.318380E-03 delta_en =   0.175160E+00 tol =   0.100000E-04
 Iteration #          9
  pAp =   2.062490988197100E-003  rzold =   5.000952307770925E-004  alpha = 
  0.242471474367141     
 delta_qm =   0.250133E-03 delta_en =   0.108115E+00 tol =   0.100000E-04
 Iteration #         10
  pAp =   8.375458813912084E-004  rzold =   2.763753745036503E-004  alpha = 
  0.329982369496673     
 delta_qm =   0.104966E-03 delta_en =   0.190390E-01 tol =   0.100000E-04
 Iteration #         11
  pAp =   1.325362747016750E-004  rzold =   4.359997497295574E-005  alpha = 
  0.328966353333038     
 delta_qm =   0.664649E-04 delta_en =   0.763357E-02 tol =   0.100000E-04
 Iteration #         12
  pAp =   4.309617230892226E-005  rzold =   1.141292903888496E-005  alpha = 
  0.264824656748509     
 delta_qm =   0.468929E-04 delta_en =   0.379977E-02 tol =   0.100000E-04
 Iteration #         13
  pAp =   6.573777697922195E-006  rzold =   2.564360680321746E-006  alpha = 
  0.390089351687733     
 delta_qm =   0.300203E-04 delta_en =   0.155731E-02 tol =   0.100000E-04
 Iteration #         14
  pAp =   3.291034045951858E-006  rzold =   1.338890707383548E-006  alpha = 
  0.406829795343641     
 delta_qm =   0.211875E-04 delta_en =   0.775720E-03 tol =   0.100000E-04
 Iteration #         15
  pAp =   1.219102344396517E-006  rzold =   5.446081294945191E-007  alpha = 
  0.446728801726743     
 delta_qm =   0.119255E-04 delta_en =   0.245753E-03 tol =   0.100000E-04
 Iteration #         16
  pAp =   5.482199528349317E-007  rzold =   2.370793427926618E-007  alpha = 
  0.432452962659763     
 delta_qm =   0.715567E-05 delta_en =   0.884799E-04 tol =   0.100000E-04
 Iteration #         17
  pAp =   1.431803884923083E-007  rzold =   6.869714732175838E-008  alpha = 
  0.479794391153289     
 delta_qm =   0.359656E-05 delta_en =   0.223521E-04 tol =   0.100000E-04
 Iteration #         18
  pAp =   8.520869987966080E-008  rzold =   2.261441836742609E-008  alpha = 
  0.265400345262446     
 delta_qm =   0.254233E-05 delta_en =   0.111688E-04 tol =   0.100000E-04
 Iteration #         19
  pAp =   4.180314476479154E-008  rzold =   1.206958947311751E-008  alpha = 
  0.288724437862939     
 delta_qm =   0.178773E-05 delta_en =   0.552267E-05 tol =   0.100000E-04
 Charges are converged, EXIT

%%%% DENSITY %%%%%%%%%%%%%%%%%%%%%%%%%%%%%%%%%%%%%%%%%%%%%%%%%%%%%%%%%%%%%%%%%%%
 density label              = velectrostatic                                                                  
 integral of density        =     0.2191366430E-11

%%%% CHARGES %%%%%%%%%%%%%%%%%%%%%%%%%%%%%%%%%%%%%%%%%%%%%%%%%%%%%%%%%%%%%%%%%%%
 total number of charges    =         34
 total charge               =     -1.0000000

%%%% DENSITY %%%%%%%%%%%%%%%%%%%%%%%%%%%%%%%%%%%%%%%%%%%%%%%%%%%%%%%%%%%%%%%%%%%
 density label              = vsoftcavity                                                                     
 integral of density        =      33.72700753    

%%%% ELECTRONS %%%%%%%%%%%%%%%%%%%%%%%%%%%%%%%%%%%%%%%%%%%%%%%%%%%%%%%%%%%%%%%%%
 number of electrons        =         24
 total electronic charge    =     24.0000000

%%%% BOUNDARY %%%%%%%%%%%%%%%%%%%%%%%%%%%%%%%%%%%%%%%%%%%%%%%%%%%%%%%%%%%%%%%%%%
 boundary label             = solvent              
 boundary mode              = electronic           
 boundary is built as a function of a smooth density
 function type              =  2 
 using the modified SCCS function with parameters 
 rhomax                     =      0.0050000 
 rhomin                     =      0.0001000 
 volume of the QM region    =    716.7334258 
 surface of the QM region   =    412.9102211 

%%%% DIELECTRIC %%%%%%%%%%%%%%%%%%%%%%%%%%%%%%%%%%%%%%%%%%%%%%%%%%%%%%%%%%%%%%%%%
 dielectric build on homogeneous background
 environment bulk permitt.  =    100.0000000 
 dielectric flags
 need gradient              =  F 
 need factor depend. sqrt   =  T 
 total dielectric charge    =      0.9823246

%%%% DENSITY %%%%%%%%%%%%%%%%%%%%%%%%%%%%%%%%%%%%%%%%%%%%%%%%%%%%%%%%%%%%%%%%%%%
 density label              = vreference                                                                      
 integral of density        =     0.3894826848E-12

%%%% COMPUTE ELECTROSTATIC POTENTIAL %%%%%%%%%%%%%%%%%%%%%%%%%%%%%%%%%%%%%%%%%%%
 Warning: bad guess with residual norm =   0.153483E+04, reset to no guess
 Iteration #          1
  pAp =    95.9899957389057       rzold =    93.3759953386554       alpha = 
  0.972767991287755     
 delta_qm =   0.290537E-01 delta_en =   0.145864E+04 tol =   0.100000E-04
 Iteration #          2
  pAp =    255.789541300182       rzold =    23.7852505002158       alpha = 
  9.298758025568607E-002
 delta_qm =   0.548214E-02 delta_en =   0.519330E+02 tol =   0.100000E-04
 Iteration #          3
  pAp =    2.00256430986173       rzold =   0.331263128572186       alpha = 
  0.165419470895823     
 delta_qm =   0.246698E-02 delta_en =   0.105166E+02 tol =   0.100000E-04
 Iteration #          4
  pAp =   0.146347755482555       rzold =   2.514410885322112E-002  alpha = 
  0.171810690026048     
 delta_qm =   0.195778E-02 delta_en =   0.662323E+01 tol =   0.100000E-04
 Iteration #          5
  pAp =   2.806346098263011E-002  rzold =   6.780442634108610E-003  alpha = 
  0.241611062808873     
 delta_qm =   0.135727E-02 delta_en =   0.318329E+01 tol =   0.100000E-04
 Iteration #          6
  pAp =   8.958151155226241E-003  rzold =   2.881576057814957E-003  alpha = 
  0.321670845678221     
 delta_qm =   0.796810E-03 delta_en =   0.109712E+01 tol =   0.100000E-04
 Iteration #          7
  pAp =   2.507750952006213E-003  rzold =   9.217736016580090E-004  alpha = 
  0.367569834205660     
 delta_qm =   0.567289E-03 delta_en =   0.556100E+00 tol =   0.100000E-04
 Iteration #          8
  pAp =   1.168431348326962E-003  rzold =   4.664934629845761E-004  alpha = 
  0.399247643990837     
 delta_qm =   0.329624E-03 delta_en =   0.187750E+00 tol =   0.100000E-04
 Iteration #          9
  pAp =   2.113226323048756E-003  rzold =   5.113888170945241E-004  alpha = 
  0.241994343680492     
 delta_qm =   0.261073E-03 delta_en =   0.117779E+00 tol =   0.100000E-04
 Iteration #         10
  pAp =   8.640682967689414E-004  rzold =   2.868143277971359E-004  alpha = 
  0.331934789031882     
 delta_qm =   0.109586E-03 delta_en =   0.207516E-01 tol =   0.100000E-04
 Iteration #         11
  pAp =   1.399726206662832E-004  rzold =   4.654716116135604E-005  alpha = 
  0.332544757251719     
 delta_qm =   0.694802E-04 delta_en =   0.834192E-02 tol =   0.100000E-04
 Iteration #         12
  pAp =   4.533627828671126E-005  rzold =   1.204227535450526E-005  alpha = 
  0.265621171600118     
 delta_qm =   0.489863E-04 delta_en =   0.414660E-02 tol =   0.100000E-04
 Iteration #         13
  pAp =   7.068519828680077E-006  rzold =   2.743148794871384E-006  alpha = 
  0.388079663261498     
 delta_qm =   0.317586E-04 delta_en =   0.174288E-02 tol =   0.100000E-04
 Iteration #         14
  pAp =   3.615481227009640E-006  rzold =   1.455718048997068E-006  alpha = 
  0.402634658457649     
 delta_qm =   0.225650E-04 delta_en =   0.879858E-03 tol =   0.100000E-04
 Iteration #         15
  pAp =   1.350817079287730E-006  rzold =   6.015691160682418E-007  alpha = 
  0.445337215002821     
 delta_qm =   0.125695E-04 delta_en =   0.273012E-03 tol =   0.100000E-04
 Iteration #         16
  pAp =   6.076144436827601E-007  rzold =   2.629509116815587E-007  alpha = 
  0.432759481634125     
 delta_qm =   0.759822E-05 delta_en =   0.997625E-04 tol =   0.100000E-04
 Iteration #         17
  pAp =   1.513944386301013E-007  rzold =   7.492155628722518E-008  alpha = 
  0.494876542131639     
 delta_qm =   0.372290E-05 delta_en =   0.239501E-04 tol =   0.100000E-04
 Iteration #         18
  pAp =   4.429615591114446E-008  rzold =   1.851884454487874E-008  alpha = 
  0.418068885752219     
 delta_qm =   0.234343E-05 delta_en =   0.948962E-05 tol =   0.100000E-04
 Charges are converged, EXIT

%%%% DENSITY %%%%%%%%%%%%%%%%%%%%%%%%%%%%%%%%%%%%%%%%%%%%%%%%%%%%%%%%%%%%%%%%%%%
 density label              = velectrostatic                                                                  
 integral of density        =    -0.3014543347E-12

%%%% CHARGES %%%%%%%%%%%%%%%%%%%%%%%%%%%%%%%%%%%%%%%%%%%%%%%%%%%%%%%%%%%%%%%%%%%
 total number of charges    =         34
 total charge               =     -1.0000000

%%%% DENSITY %%%%%%%%%%%%%%%%%%%%%%%%%%%%%%%%%%%%%%%%%%%%%%%%%%%%%%%%%%%%%%%%%%%
 density label              = vsoftcavity                                                                     
 integral of density        =      34.20558160    

%%%% ELECTRONS %%%%%%%%%%%%%%%%%%%%%%%%%%%%%%%%%%%%%%%%%%%%%%%%%%%%%%%%%%%%%%%%%
 number of electrons        =         24
 total electronic charge    =     24.0000000

%%%% BOUNDARY %%%%%%%%%%%%%%%%%%%%%%%%%%%%%%%%%%%%%%%%%%%%%%%%%%%%%%%%%%%%%%%%%%
 boundary label             = solvent              
 boundary mode              = electronic           
 boundary is built as a function of a smooth density
 function type              =  2 
 using the modified SCCS function with parameters 
 rhomax                     =      0.0050000 
 rhomin                     =      0.0001000 
 volume of the QM region    =    716.6013399 
 surface of the QM region   =    412.9903081 

%%%% DIELECTRIC %%%%%%%%%%%%%%%%%%%%%%%%%%%%%%%%%%%%%%%%%%%%%%%%%%%%%%%%%%%%%%%%%
 dielectric build on homogeneous background
 environment bulk permitt.  =    100.0000000 
 dielectric flags
 need gradient              =  F 
 need factor depend. sqrt   =  T 
 total dielectric charge    =      0.9824914

%%%% DENSITY %%%%%%%%%%%%%%%%%%%%%%%%%%%%%%%%%%%%%%%%%%%%%%%%%%%%%%%%%%%%%%%%%%%
 density label              = vreference                                                                      
 integral of density        =     0.5723158573E-12

%%%% COMPUTE ELECTROSTATIC POTENTIAL %%%%%%%%%%%%%%%%%%%%%%%%%%%%%%%%%%%%%%%%%%%
 Warning: bad guess with residual norm =   0.158617E+04, reset to no guess
 Iteration #          1
  pAp =    96.0403443268837       rzold =    93.4010343357191       alpha = 
  0.972518736686518     
 delta_qm =   0.295271E-01 delta_en =   0.150656E+04 tol =   0.100000E-04
 Iteration #          2
  pAp =    258.670523299143       rzold =    24.0230321744255       alpha = 
  9.287116238847132E-002
 delta_qm =   0.559588E-02 delta_en =   0.541104E+02 tol =   0.100000E-04
 Iteration #          3
  pAp =    2.08351188725619       rzold =   0.343696595671487       alpha = 
  0.164960227860330     
 delta_qm =   0.248884E-02 delta_en =   0.107038E+02 tol =   0.100000E-04
 Iteration #          4
  pAp =   0.149355002371699       rzold =   2.563472017010371E-002  alpha = 
  0.171636167272836     
 delta_qm =   0.197292E-02 delta_en =   0.672611E+01 tol =   0.100000E-04
 Iteration #          5
  pAp =   2.864432946243439E-002  rzold =   6.865530900394229E-003  alpha = 
  0.239682025351581     
 delta_qm =   0.137232E-02 delta_en =   0.325429E+01 tol =   0.100000E-04
 Iteration #          6
  pAp =   9.060418375955033E-003  rzold =   2.911856663150633E-003  alpha = 
  0.321382141786990     
 delta_qm =   0.807017E-03 delta_en =   0.112541E+01 tol =   0.100000E-04
 Iteration #          7
  pAp =   2.561749333731123E-003  rzold =   9.370174630921267E-004  alpha = 
  0.365772501920547     
 delta_qm =   0.576308E-03 delta_en =   0.573922E+00 tol =   0.100000E-04
 Iteration #          8
  pAp =   1.177356993897795E-003  rzold =   4.694358556702086E-004  alpha = 
  0.398720063755751     
 delta_qm =   0.335661E-03 delta_en =   0.194691E+00 tol =   0.100000E-04
 Iteration #          9
  pAp =   2.137333313566388E-003  rzold =   5.169562087075602E-004  alpha = 
  0.241869719348995     
 delta_qm =   0.267205E-03 delta_en =   0.123376E+00 tol =   0.100000E-04
 Iteration #         10
  pAp =   8.748059814074828E-004  rzold =   2.918372226956300E-004  alpha = 
  0.333602225977114     
 delta_qm =   0.112001E-03 delta_en =   0.216765E-01 tol =   0.100000E-04
 Iteration #         11
  pAp =   1.439000355937351E-004  rzold =   4.807393935878799E-005  alpha = 
  0.334078717635015     
 delta_qm =   0.711124E-04 delta_en =   0.873845E-02 tol =   0.100000E-04
 Iteration #         12
  pAp =   4.681634831981464E-005  rzold =   1.244179875349689E-005  alpha = 
  0.265757565466314     
 delta_qm =   0.501553E-04 delta_en =   0.434688E-02 tol =   0.100000E-04
 Iteration #         13
  pAp =   7.342095199023019E-006  rzold =   2.839147463386434E-006  alpha = 
  0.386694449802861     
 delta_qm =   0.327265E-04 delta_en =   0.185073E-02 tol =   0.100000E-04
 Iteration #         14
  pAp =   3.787401013239727E-006  rzold =   1.520291378916180E-006  alpha = 
  0.401407554574140     
 delta_qm =   0.232769E-04 delta_en =   0.936257E-03 tol =   0.100000E-04
 Iteration #         15
  pAp =   1.423394131070351E-006  rzold =   6.323765726261130E-007  alpha = 
  0.444273696808476     
 delta_qm =   0.129257E-04 delta_en =   0.288703E-03 tol =   0.100000E-04
 Iteration #         16
  pAp =   6.404247138785799E-007  rzold =   2.769638279001320E-007  alpha = 
  0.432468987998240     
 delta_qm =   0.782142E-05 delta_en =   0.105710E-03 tol =   0.100000E-04
 Iteration #         17
  pAp =   1.581295329361883E-007  rzold =   7.828058406320744E-008  alpha = 
  0.495040885846395     
 delta_qm =   0.382821E-05 delta_en =   0.253242E-04 tol =   0.100000E-04
 Iteration #         18
  pAp =   3.922468135109667E-008  rzold =   1.858428668052529E-008  alpha = 
  0.473790634885698     
 delta_qm =   0.228298E-05 delta_en =   0.900634E-05 tol =   0.100000E-04
 Charges are converged, EXIT

%%%% DENSITY %%%%%%%%%%%%%%%%%%%%%%%%%%%%%%%%%%%%%%%%%%%%%%%%%%%%%%%%%%%%%%%%%%%
 density label              = velectrostatic                                                                  
 integral of density        =    -0.5460652506E-13

%%%% CHARGES %%%%%%%%%%%%%%%%%%%%%%%%%%%%%%%%%%%%%%%%%%%%%%%%%%%%%%%%%%%%%%%%%%%
 total number of charges    =         34
 total charge               =     -1.0000000

%%%% DENSITY %%%%%%%%%%%%%%%%%%%%%%%%%%%%%%%%%%%%%%%%%%%%%%%%%%%%%%%%%%%%%%%%%%%
 density label              = vsoftcavity                                                                     
 integral of density        =      34.52316534    

%%%% ELECTRONS %%%%%%%%%%%%%%%%%%%%%%%%%%%%%%%%%%%%%%%%%%%%%%%%%%%%%%%%%%%%%%%%%
 number of electrons        =         24
 total electronic charge    =     24.0000000

%%%% BOUNDARY %%%%%%%%%%%%%%%%%%%%%%%%%%%%%%%%%%%%%%%%%%%%%%%%%%%%%%%%%%%%%%%%%%
 boundary label             = solvent              
 boundary mode              = electronic           
 boundary is built as a function of a smooth density
 function type              =  2 
 using the modified SCCS function with parameters 
 rhomax                     =      0.0050000 
 rhomin                     =      0.0001000 
 volume of the QM region    =    716.3098682 
 surface of the QM region   =    412.9497744 

%%%% DIELECTRIC %%%%%%%%%%%%%%%%%%%%%%%%%%%%%%%%%%%%%%%%%%%%%%%%%%%%%%%%%%%%%%%%%
 dielectric build on homogeneous background
 environment bulk permitt.  =    100.0000000 
 dielectric flags
 need gradient              =  F 
 need factor depend. sqrt   =  T 
 total dielectric charge    =      0.9826598

%%%% DENSITY %%%%%%%%%%%%%%%%%%%%%%%%%%%%%%%%%%%%%%%%%%%%%%%%%%%%%%%%%%%%%%%%%%%
 density label              = vreference                                                                      
 integral of density        =     0.1985572200E-12

%%%% COMPUTE ELECTROSTATIC POTENTIAL %%%%%%%%%%%%%%%%%%%%%%%%%%%%%%%%%%%%%%%%%%%
 Warning: bad guess with residual norm =   0.163681E+04, reset to no guess
 Iteration #          1
  pAp =    96.0662062243814       rzold =    93.3940255943368       alpha = 
  0.972183968379024     
 delta_qm =   0.299840E-01 delta_en =   0.155354E+04 tol =   0.100000E-04
 Iteration #          2
  pAp =    262.168195938444       rzold =    24.3252710566691       alpha = 
  9.278498091500201E-002
 delta_qm =   0.569158E-02 delta_en =   0.559769E+02 tol =   0.100000E-04
 Iteration #          3
  pAp =    2.16037854432721       rzold =   0.355309726703463       alpha = 
  0.164466420774473     
 delta_qm =   0.250021E-02 delta_en =   0.108018E+02 tol =   0.100000E-04
 Iteration #          4
  pAp =   0.151589001306244       rzold =   2.599187762357933E-002  alpha = 
  0.171462819859007     
 delta_qm =   0.197897E-02 delta_en =   0.676741E+01 tol =   0.100000E-04
 Iteration #          5
  pAp =   2.903396850706700E-002  rzold =   6.919314747707549E-003  alpha = 
  0.238317911863249     
 delta_qm =   0.138014E-02 delta_en =   0.329145E+01 tol =   0.100000E-04
 Iteration #          6
  pAp =   9.114459417556122E-003  rzold =   2.931220421141770E-003  alpha = 
  0.321601127050465     
 delta_qm =   0.810543E-03 delta_en =   0.113526E+01 tol =   0.100000E-04
 Iteration #          7
  pAp =   2.604088871782804E-003  rzold =   9.473163469713179E-004  alpha = 
  0.363780344532853     
 delta_qm =   0.580964E-03 delta_en =   0.583233E+00 tol =   0.100000E-04
 Iteration #          8
  pAp =   1.180219748135355E-003  rzold =   4.694899743469660E-004  alpha = 
  0.397798778650094     
 delta_qm =   0.339360E-03 delta_en =   0.199006E+00 tol =   0.100000E-04
 Iteration #          9
  pAp =   2.141265688890143E-003  rzold =   5.186868492112743E-004  alpha = 
  0.242233764778681     
 delta_qm =   0.270776E-03 delta_en =   0.126697E+00 tol =   0.100000E-04
 Iteration #         10
  pAp =   8.759318458934761E-004  rzold =   2.936738061862131E-004  alpha = 
  0.335270155506970     
 delta_qm =   0.113119E-03 delta_en =   0.221112E-01 tol =   0.100000E-04
 Iteration #         11
  pAp =   1.461860626626230E-004  rzold =   4.880620837208357E-005  alpha = 
  0.333863622038453     
 delta_qm =   0.719566E-04 delta_en =   0.894715E-02 tol =   0.100000E-04
 Iteration #         12
  pAp =   4.814963049818815E-005  rzold =   1.277114381202918E-005  alpha = 
  0.265238667044594     
 delta_qm =   0.508177E-04 delta_en =   0.446245E-02 tol =   0.100000E-04
 Iteration #         13
  pAp =   7.492025191181157E-006  rzold =   2.891614137234434E-006  alpha = 
  0.385958944804156     
 delta_qm =   0.332467E-04 delta_en =   0.191004E-02 tol =   0.100000E-04
 Iteration #         14
  pAp =   3.852002271007930E-006  rzold =   1.552251046260071E-006  alpha = 
  0.402972515863523     
 delta_qm =   0.236343E-04 delta_en =   0.965230E-03 tol =   0.100000E-04
 Iteration #         15
  pAp =   1.456954483720939E-006  rzold =   6.477049871989838E-007  alpha = 
  0.444560893587286     
 delta_qm =   0.131156E-04 delta_en =   0.297248E-03 tol =   0.100000E-04
 Iteration #         16
  pAp =   6.563681009530549E-007  rzold =   2.839528319328785E-007  alpha = 
  0.432612175272649     
 delta_qm =   0.792068E-05 delta_en =   0.108410E-03 tol =   0.100000E-04
 Iteration #         17
  pAp =   1.651512485504694E-007  rzold =   8.026961518118600E-008  alpha = 
  0.486036986615066     
 delta_qm =   0.393366E-05 delta_en =   0.267386E-04 tol =   0.100000E-04
 Iteration #         18
  pAp =   6.221634087054320E-008  rzold =   2.190223717417914E-008  alpha = 
  0.352033515113855     
 delta_qm =   0.258578E-05 delta_en =   0.115538E-04 tol =   0.100000E-04
 Iteration #         19
  pAp =   5.778606404948166E-008  rzold =   1.288422374677982E-008  alpha = 
  0.222964203544771     
 delta_qm =   0.197759E-05 delta_en =   0.675796E-05 tol =   0.100000E-04
 Charges are converged, EXIT

%%%% DENSITY %%%%%%%%%%%%%%%%%%%%%%%%%%%%%%%%%%%%%%%%%%%%%%%%%%%%%%%%%%%%%%%%%%%
 density label              = velectrostatic                                                                  
 integral of density        =     0.6127773186E-12

%%%% CHARGES %%%%%%%%%%%%%%%%%%%%%%%%%%%%%%%%%%%%%%%%%%%%%%%%%%%%%%%%%%%%%%%%%%%
 total number of charges    =         34
 total charge               =     -1.0000000

%%%% DENSITY %%%%%%%%%%%%%%%%%%%%%%%%%%%%%%%%%%%%%%%%%%%%%%%%%%%%%%%%%%%%%%%%%%%
 density label              = vsoftcavity                                                                     
 integral of density        =      34.87675024    

%%%% ELECTRONS %%%%%%%%%%%%%%%%%%%%%%%%%%%%%%%%%%%%%%%%%%%%%%%%%%%%%%%%%%%%%%%%%
 number of electrons        =         24
 total electronic charge    =     24.0000000

%%%% BOUNDARY %%%%%%%%%%%%%%%%%%%%%%%%%%%%%%%%%%%%%%%%%%%%%%%%%%%%%%%%%%%%%%%%%%
 boundary label             = solvent              
 boundary mode              = electronic           
 boundary is built as a function of a smooth density
 function type              =  2 
 using the modified SCCS function with parameters 
 rhomax                     =      0.0050000 
 rhomin                     =      0.0001000 
 volume of the QM region    =    716.3098682 
 surface of the QM region   =    412.9497744 

%%%% DIELECTRIC %%%%%%%%%%%%%%%%%%%%%%%%%%%%%%%%%%%%%%%%%%%%%%%%%%%%%%%%%%%%%%%%%
 dielectric build on homogeneous background
 environment bulk permitt.  =    100.0000000 
 dielectric flags
 need gradient              =  F 
 need factor depend. sqrt   =  T 
 total dielectric charge    =      0.9828179

%%%% DENSITY %%%%%%%%%%%%%%%%%%%%%%%%%%%%%%%%%%%%%%%%%%%%%%%%%%%%%%%%%%%%%%%%%%%
 density label              = vreference                                                                      
 integral of density        =     0.1985572200E-12

%%%% DENSITY %%%%%%%%%%%%%%%%%%%%%%%%%%%%%%%%%%%%%%%%%%%%%%%%%%%%%%%%%%%%%%%%%%%
 density label              = velectrostatic                                                                  
 integral of density        =     0.6127773186E-12

%%%% CHARGES %%%%%%%%%%%%%%%%%%%%%%%%%%%%%%%%%%%%%%%%%%%%%%%%%%%%%%%%%%%%%%%%%%%
 total number of charges    =         34
 total charge               =     -1.0000000

%%%% DENSITY %%%%%%%%%%%%%%%%%%%%%%%%%%%%%%%%%%%%%%%%%%%%%%%%%%%%%%%%%%%%%%%%%%%
 density label              = vsoftcavity                                                                     
 integral of density        =      34.87675024    
