
     Program PWSCF v.6.1 (svn rev. 13369) starts on  7Nov2017 at 16:23: 1 

     This program is part of the open-source Quantum ESPRESSO suite
     for quantum simulation of materials; please cite
         "P. Giannozzi et al., J. Phys.:Condens. Matter 21 395502 (2009);
          URL http://www.quantum-espresso.org", 
     in publications or presentations arising from this work. More details at
     http://www.quantum-espresso.org/quote

     Serial version
     Reading input from charged.in

     Current dimensions of program PWSCF are:
     Max number of different atomic species (ntypx) = 10
     Max number of k-points (npk) =  40000
     Max angular momentum in pseudopotentials (lmaxx) =  3
               file C.pbe-rrkjus.UPF: wavefunction(s)  2S 2P renormalized
               file H.pbe-rrkjus.UPF: wavefunction(s)  1S renormalized
               file N.pbe-rrkjus.UPF: wavefunction(s)  2S renormalized
               file O.pbe-rrkjus.UPF: wavefunction(s)  2S renormalized

     gamma-point specific algorithms are used

     G-vector sticks info
     --------------------
     sticks:   dense  smooth     PW     G-vecs:    dense   smooth      PW
     Sum        9549    3809    949               701475   177509   22119



     bravais-lattice index     =            1
     lattice parameter (alat)  =      20.0000  a.u.
     unit-cell volume          =    8000.0000 (a.u.)^3
     number of atoms/cell      =           10
     number of atomic types    =            4
     number of electrons       =        24.00
     number of Kohn-Sham states=           12
     kinetic-energy cutoff     =      30.0000  Ry
     charge density cutoff     =     300.0000  Ry
     convergence threshold     =      5.0E-03
     mixing beta               =       0.7000
     number of iterations used =            8  plain     mixing
     Exchange-correlation      =  SLA  PW   PBE  PBE ( 1  4  3  4 0 0)


     Environ Module
     ==============

     Plese cite
         O. Andreussi, I. Dabo and N. Marzari, J. Chem. Phys. 136, 064102 (2012)         
     in publications or presentations arising from this work.

     compensation onset threshold      =               0.1000E+03 
     static permittivity               =                   100.00 
     epsilon calculation mode          =               electronic 

     Electrostatic Setup
     -------------------
     electrostatic problem to solve    = generalized              
     numerical solver adopted          = iterative                
     type of auxiliary density adopted = full                     
     type of core tool for poisson     = fft                      
     type of core tool for s(r) deriv  = analytic                 



     celldm(1)=  20.000000  celldm(2)=   0.000000  celldm(3)=   0.000000
     celldm(4)=   0.000000  celldm(5)=   0.000000  celldm(6)=   0.000000

     crystal axes: (cart. coord. in units of alat)
               a(1) = (   1.000000   0.000000   0.000000 )  
               a(2) = (   0.000000   1.000000   0.000000 )  
               a(3) = (   0.000000   0.000000   1.000000 )  

     reciprocal axes: (cart. coord. in units 2 pi/alat)
               b(1) = (  1.000000  0.000000  0.000000 )  
               b(2) = (  0.000000  1.000000  0.000000 )  
               b(3) = (  0.000000  0.000000  1.000000 )  


     PseudoPot. # 1 for C  read from file:
     /Users/oliviero/PWSCF/espresso-6.1-Environ-1.0/Environ/tests/../..//pseudo/C.pbe-rrkjus.UPF
     MD5 check sum: 00fb224312de0c5b6853bd333518df6f
     Pseudo is Ultrasoft, Zval =  4.0
     Generated by new atomic code, or converted to UPF format
     Using radial grid of  627 points,  4 beta functions with: 
                l(1) =   0
                l(2) =   0
                l(3) =   1
                l(4) =   1
     Q(r) pseudized with 0 coefficients 


     PseudoPot. # 2 for H  read from file:
     /Users/oliviero/PWSCF/espresso-6.1-Environ-1.0/Environ/tests/../..//pseudo/H.pbe-rrkjus.UPF
     MD5 check sum: 7cc9d459525c9a0585f487a71c3c9563
     Pseudo is Ultrasoft, Zval =  1.0
     Generated by new atomic code, or converted to UPF format
     Using radial grid of 1061 points,  2 beta functions with: 
                l(1) =   0
                l(2) =   0
     Q(r) pseudized with 0 coefficients 


     PseudoPot. # 3 for N  read from file:
     /Users/oliviero/PWSCF/espresso-6.1-Environ-1.0/Environ/tests/../..//pseudo/N.pbe-rrkjus.UPF
     MD5 check sum: 0c3fbe5807a93f9ba59d5a7019aa238b
     Pseudo is Ultrasoft, Zval =  5.0
     Generated by new atomic code, or converted to UPF format
     Using radial grid of 1257 points,  4 beta functions with: 
                l(1) =   0
                l(2) =   0
                l(3) =   1
                l(4) =   1
     Q(r) pseudized with 0 coefficients 


     PseudoPot. # 4 for O  read from file:
     /Users/oliviero/PWSCF/espresso-6.1-Environ-1.0/Environ/tests/../..//pseudo/O.pbe-rrkjus.UPF
     MD5 check sum: 390ba29e75625707450f3bd3f0eb6be9
     Pseudo is Ultrasoft, Zval =  6.0
     Generated by new atomic code, or converted to UPF format
     Using radial grid of 1269 points,  4 beta functions with: 
                l(1) =   0
                l(2) =   0
                l(3) =   1
                l(4) =   1
     Q(r) pseudized with 0 coefficients 


     atomic species   valence    mass     pseudopotential
        C              4.00    12.00000     C ( 1.00)
        H              1.00     1.00000     H ( 1.00)
        N              5.00    14.00000     N ( 1.00)
        O              6.00    16.00000     O ( 1.00)

     No symmetry found



   Cartesian axes

     site n.     atom                  positions (alat units)
         1           C   tau(   1) = (   0.0000000   0.0000000   0.0000000  )
         2           C   tau(   2) = (   0.0000000   0.0000000   0.1455089  )
         3           N   tau(   3) = (   0.1170969   0.0000000  -0.0545024  )
         4           H   tau(   4) = (   0.0476617  -0.0825466   0.1792090  )
         5           H   tau(   5) = (  -0.0953183  -0.0000030   0.1792090  )
         6           H   tau(   6) = (   0.0476566   0.0825496   0.1792090  )
         7           O   tau(   7) = (  -0.0984002  -0.0000019  -0.0641310  )
         8           H   tau(   8) = (   0.1263131  -0.0000015  -0.1475548  )
         9           H   tau(   9) = (   0.1944645   0.0000134  -0.0025716  )
        10           H   tau(  10) = (  -0.0770366  -0.0000045  -0.1522861  )

     number of k points=     1
                       cart. coord. in units 2pi/alat
        k(    1) = (   0.0000000   0.0000000   0.0000000), wk =   2.0000000

     Dense  grid:   350738 G-vectors     FFT dimensions: ( 120, 120, 120)

     Smooth grid:    88755 G-vectors     FFT dimensions: (  72,  72,  72)

     Estimated max dynamical RAM per process >     298.98MB

     Initial potential from superposition of free atoms
     Check: negative starting charge=   -0.000452

     starting charge   24.42266, renormalised to   24.00000

     negative rho (up, down):  4.438E-04 0.000E+00
     Starting wfc are   22 randomized atomic wfcs

     total cpu time spent up to now is        8.6 secs

     Self-consistent Calculation

     iteration #  1     ecut=    30.00 Ry     beta=0.70
     Davidson diagonalization with overlap
     ethr =  1.00E-02,  avg # of iterations =  2.0

     negative rho (up, down):  1.277E-04 0.000E+00

     add environment contribution to local potential
     polarization accuracy = 7.4E-05, # of iterations =  13

     total cpu time spent up to now is       19.1 secs

     total energy              =     -80.23903180 Ry
     Harris-Foulkes estimate   =     -83.01879009 Ry
     estimated scf accuracy    <       3.73442311 Ry
     electrostatic embedding   =       0.00000000 Ry
     correction to one-el term =       0.00000000 Ry

     iteration #  2     ecut=    30.00 Ry     beta=0.70
     Davidson diagonalization with overlap
     ethr =  1.00E-02,  avg # of iterations =  4.0

     negative rho (up, down):  6.918E-04 0.000E+00

     add environment contribution to local potential
     polarization accuracy = 5.0E-05, # of iterations =  13

     total cpu time spent up to now is       29.7 secs

     total energy              =     -80.98708687 Ry
     Harris-Foulkes estimate   =     -76.60215940 Ry
     estimated scf accuracy    <       1.54130596 Ry
     electrostatic embedding   =      -0.16153023 Ry
     correction to one-el term =      -5.04885543 Ry

     iteration #  3     ecut=    30.00 Ry     beta=0.70
     Davidson diagonalization with overlap
     ethr =  6.42E-03,  avg # of iterations =  3.0

     negative rho (up, down):  3.245E-04 0.000E+00

     add environment contribution to local potential
     polarization accuracy = 8.6E-05, # of iterations =  12

     total cpu time spent up to now is       39.6 secs

     total energy              =     -81.32886951 Ry
     Harris-Foulkes estimate   =     -77.02208278 Ry
     estimated scf accuracy    <       0.24331947 Ry
     electrostatic embedding   =      -0.13469288 Ry
     correction to one-el term =      -4.30175059 Ry

     iteration #  4     ecut=    30.00 Ry     beta=0.70
     Davidson diagonalization with overlap
     ethr =  1.01E-03,  avg # of iterations =  4.0

     negative rho (up, down):  8.621E-05 0.000E+00

     add environment contribution to local potential
     polarization accuracy = 8.4E-05, # of iterations =  13

     total cpu time spent up to now is       49.7 secs

     total energy              =     -81.37879982 Ry
     Harris-Foulkes estimate   =     -77.22373999 Ry
     estimated scf accuracy    <       0.02087505 Ry
     electrostatic embedding   =      -0.12168796 Ry
     correction to one-el term =      -4.04397776 Ry

     iteration #  5     ecut=    30.00 Ry     beta=0.70
     Davidson diagonalization with overlap
     ethr =  8.70E-05,  avg # of iterations =  4.0

     negative rho (up, down):  2.757E-04 0.000E+00

     total cpu time spent up to now is       54.1 secs

     End of self-consistent calculation

          k = 0.0000 0.0000 0.0000 ( 11060 PWs)   bands (ev):

   -28.9420 -23.2044 -18.6859 -16.0161 -14.7232 -13.4488 -11.7103 -10.9681
    -9.6105  -9.5955  -9.3587  -7.4446

     highest occupied level (ev):    -7.4446

!    total energy              =     -81.38333849 Ry
     Harris-Foulkes estimate   =     -77.45682059 Ry
     estimated scf accuracy    <       0.00248754 Ry

     The total energy is the sum of the following terms:

     one-electron contribution =    -241.95986309 Ry
     hartree contribution      =     123.14291244 Ry
     xc contribution           =     -22.94585464 Ry
     ewald contribution        =      64.30784006 Ry
     electrostatic embedding   =      -0.12135182 Ry
     correction to one-el term =      -3.80702144 Ry

     convergence has been achieved in   5 iterations

     Forces acting on atoms (cartesian axes, Ry/au):

     atom    1 type  1   force =     0.21837896    0.00001192    0.09999867
     atom    2 type  1   force =    -0.03313811   -0.00000460   -0.08127910
     atom    3 type  3   force =    -0.13993218   -0.00000058    0.04560813
     atom    4 type  2   force =     0.01762022   -0.02836829    0.00832744
     atom    5 type  2   force =    -0.03272061   -0.00000265    0.01165438
     atom    6 type  2   force =     0.01762372    0.02837407    0.00832891
     atom    7 type  4   force =    -0.08227596   -0.00002983   -0.00945436
     atom    8 type  2   force =     0.00512494    0.00000577   -0.04784204
     atom    9 type  2   force =     0.03806259    0.00001000    0.03877696
     atom   10 type  2   force =    -0.00874358    0.00000420   -0.07411899

     Total force =     0.329131     Total SCF correction =     0.121180
     SCF correction compared to forces is large: reduce conv_thr to get better values

     Writing output data file pwscf.save

     init_run     :      7.75s CPU      8.43s WALL (       1 calls)
     electrons    :     42.34s CPU     45.70s WALL (       1 calls)
     forces       :      1.95s CPU      2.28s WALL (       1 calls)

     Called by init_run:
     wfcinit      :      0.21s CPU      0.21s WALL (       1 calls)
     potinit      :      1.79s CPU      1.94s WALL (       1 calls)

     Called by electrons:
     c_bands      :      1.97s CPU      1.84s WALL (       5 calls)
     sum_band     :      6.55s CPU      6.63s WALL (       5 calls)
     v_of_rho     :      7.13s CPU      7.64s WALL (       6 calls)
     newd         :      3.49s CPU      5.08s WALL (       6 calls)
     mix_rho      :      0.58s CPU      0.66s WALL (       5 calls)

     Called by c_bands:
     init_us_2    :      0.07s CPU      0.09s WALL (      11 calls)
     regterg      :      1.89s CPU      1.75s WALL (       5 calls)

     Called by sum_band:
     sum_band:bec :      0.00s CPU      0.00s WALL (       5 calls)
     addusdens    :      5.26s CPU      5.29s WALL (       5 calls)

     Called by *egterg:
     h_psi        :      1.71s CPU      1.66s WALL (      23 calls)
     s_psi        :      0.11s CPU      0.03s WALL (      23 calls)
     g_psi        :      0.01s CPU      0.01s WALL (      17 calls)
     rdiaghg      :      0.01s CPU      0.01s WALL (      22 calls)

     Called by h_psi:
     h_psi:pot    :      1.70s CPU      1.65s WALL (      23 calls)
     h_psi:calbec :      0.05s CPU      0.05s WALL (      23 calls)
     vloc_psi     :      1.53s CPU      1.55s WALL (      23 calls)
     add_vuspsi   :      0.12s CPU      0.04s WALL (      23 calls)

     General routines
     calbec       :      0.08s CPU      0.08s WALL (      32 calls)
     fft          :     18.69s CPU     18.88s WALL (     351 calls)
     ffts         :      0.11s CPU      0.11s WALL (      11 calls)
     fftw         :      1.39s CPU      1.41s WALL (     244 calls)
     interpolate  :      0.84s CPU      0.92s WALL (      11 calls)
     davcio       :      0.00s CPU      0.00s WALL (       1 calls)


     Environ routines
     calc_eelect  :      0.02s CPU      0.02s WALL (      10 calls)
     calc_velect  :     18.75s CPU     19.86s WALL (       8 calls)
     dielectric   :      0.33s CPU      0.40s WALL (       6 calls)
     calc_felect  :      0.24s CPU      0.25s WALL (       1 calls)

     PWSCF        :    52.31s CPU        56.84s WALL


   This run was terminated on:  16:23:58   7Nov2017            

=------------------------------------------------------------------------------=
   JOB DONE.
=------------------------------------------------------------------------------=

%%%% IONS %%%%%%%%%%%%%%%%%%%%%%%%%%%%%%%%%%%%%%%%%%%%%%%%%%%%%%%%%%%%%%%%%%%%%%
 number of ions             =         10
 ionic center of charge     =      0.0095530    -0.0000002     0.0063981
 total ionic charge         =    -25.0000000
 ionic dipole               =      0.0000000     0.0000000     0.0000000
 ionic quadrupole (pc)      =    -79.0828058    -5.4513517  -105.8059629
 ionic quadrupole (gauss)   =    -82.2078058    -8.5763517  -108.9309629
 ion   1 type =  1 coordinates =      0.0000000     0.0000000     0.0000000
 ion   2 type =  1 coordinates =      0.0000000     0.0000000     2.9101782
 ion   3 type =  3 coordinates =      2.3419379     0.0000000    -1.0900479
 ion   4 type =  2 coordinates =      0.9532347    -1.6509323     3.5841800
 ion   5 type =  2 coordinates =     -1.9063663    -0.0000596     3.5841809
 ion   6 type =  2 coordinates =      0.9531315     1.6509919     3.5841800
 ion   7 type =  4 coordinates =     -1.9680045    -0.0000375    -1.2826193
 ion   8 type =  2 coordinates =      2.5262613    -0.0000303    -2.9510950
 ion   9 type =  2 coordinates =      3.8892907     0.0002681    -0.0514326
 ion  10 type =  2 coordinates =     -1.5407317    -0.0000890    -3.0457220

%%%% SYSTEM %%%%%%%%%%%%%%%%%%%%%%%%%%%%%%%%%%%%%%%%%%%%%%%%%%%%%%%%%%%%%%%%%%%%
 system is built from all present ionic types
 system defined dimension   =  0 
 system defined axis        =  3 
 system center              =      0.0095530    -0.0000002     0.0063981 
 system width               =      0.5223840 

%%%% ELECTRONS %%%%%%%%%%%%%%%%%%%%%%%%%%%%%%%%%%%%%%%%%%%%%%%%%%%%%%%%%%%%%%%%%
 number of electrons        =         24
 total electronic charge    =     24.0000000
 number of spin components  =  1

%%%% BOUNDARY %%%%%%%%%%%%%%%%%%%%%%%%%%%%%%%%%%%%%%%%%%%%%%%%%%%%%%%%%%%%%%%%%%
 boundary mode              = electronic           
 boundary is built as a function of a smooth density
 function type              =  2 
 using the modified SCCS function with parameters 
 rhomax                     =      0.0050000 
 rhomin                     =      0.0001000 
 volume of the QM region    =    989.6663489 
 surface of the QM region   =    490.3846933 

%%%% DIELECTRIC %%%%%%%%%%%%%%%%%%%%%%%%%%%%%%%%%%%%%%%%%%%%%%%%%%%%%%%%%%%%%%%%%
 dielectric build on homogeneous background
 environment bulk permitt.  =    100.0000000 
 dielectric flags
 need gradient              =  F 
 need factor depend. sqrt   =  F 
 need gradient of logarithm =  T 

%%%% COMPUTE ELECTROSTATIC POTENTIAL %%%%%%%%%%%%%%%%%%%%%%%%%%%%%%%%%%%%%%%%%%%
 Starting from polarization: rhoiter =      0.000000 jellium =      0.000000
 Iteration #          1
 delta_qm =   0.365417E-02 delta_en =   0.230740E+02 tol =   0.100000E-03
 Iteration #          2
 delta_qm =   0.210155E-02 delta_en =   0.763171E+01 tol =   0.100000E-03
 Iteration #          3
 delta_qm =   0.108865E-02 delta_en =   0.204795E+01 tol =   0.100000E-03
 Iteration #          4
 delta_qm =   0.579864E-03 delta_en =   0.581026E+00 tol =   0.100000E-03
 Iteration #          5
 delta_qm =   0.366763E-03 delta_en =   0.232442E+00 tol =   0.100000E-03
 Iteration #          6
 delta_qm =   0.160731E-03 delta_en =   0.446422E-01 tol =   0.100000E-03
 Iteration #          7
 delta_qm =   0.103970E-03 delta_en =   0.186792E-01 tol =   0.100000E-03
 Iteration #          8
 delta_qm =   0.630513E-04 delta_en =   0.686960E-02 tol =   0.100000E-03
 Iteration #          9
 delta_qm =   0.339969E-04 delta_en =   0.199720E-02 tol =   0.100000E-03
 Iteration #         10
 delta_qm =   0.231611E-04 delta_en =   0.926964E-03 tol =   0.100000E-03
 Iteration #         11
 delta_qm =   0.158680E-04 delta_en =   0.435099E-03 tol =   0.100000E-03
 Iteration #         12
 delta_qm =   0.982412E-05 delta_en =   0.166775E-03 tol =   0.100000E-03
 Iteration #         13
 delta_qm =   0.653129E-05 delta_en =   0.737127E-04 tol =   0.100000E-03
 Charges are converged, EXIT

%%%% ELECTRONS %%%%%%%%%%%%%%%%%%%%%%%%%%%%%%%%%%%%%%%%%%%%%%%%%%%%%%%%%%%%%%%%%
 number of electrons        =         24
 total electronic charge    =     24.0000000
 number of spin components  =  1

%%%% BOUNDARY %%%%%%%%%%%%%%%%%%%%%%%%%%%%%%%%%%%%%%%%%%%%%%%%%%%%%%%%%%%%%%%%%%
 boundary mode              = electronic           
 boundary is built as a function of a smooth density
 function type              =  2 
 using the modified SCCS function with parameters 
 rhomax                     =      0.0050000 
 rhomin                     =      0.0001000 
 volume of the QM region    =    837.2461005 
 surface of the QM region   =    448.8515392 

%%%% DIELECTRIC %%%%%%%%%%%%%%%%%%%%%%%%%%%%%%%%%%%%%%%%%%%%%%%%%%%%%%%%%%%%%%%%%
 dielectric build on homogeneous background
 environment bulk permitt.  =    100.0000000 
 dielectric flags
 need gradient              =  F 
 need factor depend. sqrt   =  F 
 need gradient of logarithm =  T 

%%%% COMPUTE ELECTROSTATIC POTENTIAL %%%%%%%%%%%%%%%%%%%%%%%%%%%%%%%%%%%%%%%%%%%
 Starting from polarization: rhoiter =      1.773770 jellium =      0.000000
 Iteration #          1
 delta_qm =   0.890753E-03 delta_en =   0.137107E+01 tol =   0.100000E-03
 Iteration #          2
 delta_qm =   0.583397E-03 delta_en =   0.588129E+00 tol =   0.100000E-03
 Iteration #          3
 delta_qm =   0.362395E-03 delta_en =   0.226939E+00 tol =   0.100000E-03
 Iteration #          4
 delta_qm =   0.233074E-03 delta_en =   0.938706E-01 tol =   0.100000E-03
 Iteration #          5
 delta_qm =   0.148890E-03 delta_en =   0.383065E-01 tol =   0.100000E-03
 Iteration #          6
 delta_qm =   0.931948E-04 delta_en =   0.150081E-01 tol =   0.100000E-03
 Iteration #          7
 delta_qm =   0.585500E-04 delta_en =   0.592377E-02 tol =   0.100000E-03
 Iteration #          8
 delta_qm =   0.388632E-04 delta_en =   0.260988E-02 tol =   0.100000E-03
 Iteration #          9
 delta_qm =   0.256176E-04 delta_en =   0.113402E-02 tol =   0.100000E-03
 Iteration #         10
 delta_qm =   0.166973E-04 delta_en =   0.481768E-03 tol =   0.100000E-03
 Iteration #         11
 delta_qm =   0.117238E-04 delta_en =   0.237509E-03 tol =   0.100000E-03
 Iteration #         12
 delta_qm =   0.807631E-05 delta_en =   0.112712E-03 tol =   0.100000E-03
 Iteration #         13
 delta_qm =   0.535869E-05 delta_en =   0.496204E-04 tol =   0.100000E-03
 Charges are converged, EXIT

%%%% ELECTRONS %%%%%%%%%%%%%%%%%%%%%%%%%%%%%%%%%%%%%%%%%%%%%%%%%%%%%%%%%%%%%%%%%
 number of electrons        =         24
 total electronic charge    =     24.0000000
 number of spin components  =  1

%%%% BOUNDARY %%%%%%%%%%%%%%%%%%%%%%%%%%%%%%%%%%%%%%%%%%%%%%%%%%%%%%%%%%%%%%%%%%
 boundary mode              = electronic           
 boundary is built as a function of a smooth density
 function type              =  2 
 using the modified SCCS function with parameters 
 rhomax                     =      0.0050000 
 rhomin                     =      0.0001000 
 volume of the QM region    =    756.7936439 
 surface of the QM region   =    424.0705358 

%%%% DIELECTRIC %%%%%%%%%%%%%%%%%%%%%%%%%%%%%%%%%%%%%%%%%%%%%%%%%%%%%%%%%%%%%%%%%
 dielectric build on homogeneous background
 environment bulk permitt.  =    100.0000000 
 dielectric flags
 need gradient              =  F 
 need factor depend. sqrt   =  F 
 need gradient of logarithm =  T 

%%%% COMPUTE ELECTROSTATIC POTENTIAL %%%%%%%%%%%%%%%%%%%%%%%%%%%%%%%%%%%%%%%%%%%
 Starting from polarization: rhoiter =      1.556962 jellium =      0.000000
 Iteration #          1
 delta_qm =   0.532587E-03 delta_en =   0.490145E+00 tol =   0.100000E-03
 Iteration #          2
 delta_qm =   0.303516E-03 delta_en =   0.159187E+00 tol =   0.100000E-03
 Iteration #          3
 delta_qm =   0.221973E-03 delta_en =   0.851423E-01 tol =   0.100000E-03
 Iteration #          4
 delta_qm =   0.143848E-03 delta_en =   0.357563E-01 tol =   0.100000E-03
 Iteration #          5
 delta_qm =   0.936992E-04 delta_en =   0.151710E-01 tol =   0.100000E-03
 Iteration #          6
 delta_qm =   0.638895E-04 delta_en =   0.705347E-02 tol =   0.100000E-03
 Iteration #          7
 delta_qm =   0.438021E-04 delta_en =   0.331538E-02 tol =   0.100000E-03
 Iteration #          8
 delta_qm =   0.291062E-04 delta_en =   0.146391E-02 tol =   0.100000E-03
 Iteration #          9
 delta_qm =   0.200141E-04 delta_en =   0.692176E-03 tol =   0.100000E-03
 Iteration #         10
 delta_qm =   0.145121E-04 delta_en =   0.363920E-03 tol =   0.100000E-03
 Iteration #         11
 delta_qm =   0.103023E-04 delta_en =   0.183406E-03 tol =   0.100000E-03
 Iteration #         12
 delta_qm =   0.705584E-05 delta_en =   0.860284E-04 tol =   0.100000E-03
 Charges are converged, EXIT

%%%% ELECTRONS %%%%%%%%%%%%%%%%%%%%%%%%%%%%%%%%%%%%%%%%%%%%%%%%%%%%%%%%%%%%%%%%%
 number of electrons        =         24
 total electronic charge    =     24.0000000
 number of spin components  =  1

%%%% BOUNDARY %%%%%%%%%%%%%%%%%%%%%%%%%%%%%%%%%%%%%%%%%%%%%%%%%%%%%%%%%%%%%%%%%%
 boundary mode              = electronic           
 boundary is built as a function of a smooth density
 function type              =  2 
 using the modified SCCS function with parameters 
 rhomax                     =      0.0050000 
 rhomin                     =      0.0001000 
 volume of the QM region    =    716.7385085 
 surface of the QM region   =    412.3008410 

%%%% DIELECTRIC %%%%%%%%%%%%%%%%%%%%%%%%%%%%%%%%%%%%%%%%%%%%%%%%%%%%%%%%%%%%%%%%%
 dielectric build on homogeneous background
 environment bulk permitt.  =    100.0000000 
 dielectric flags
 need gradient              =  F 
 need factor depend. sqrt   =  F 
 need gradient of logarithm =  T 

%%%% COMPUTE ELECTROSTATIC POTENTIAL %%%%%%%%%%%%%%%%%%%%%%%%%%%%%%%%%%%%%%%%%%%
 Starting from polarization: rhoiter =      1.396803 jellium =      0.000000
 Iteration #          1
 delta_qm =   0.429490E-03 delta_en =   0.318750E+00 tol =   0.100000E-03
 Iteration #          2
 delta_qm =   0.280966E-03 delta_en =   0.136411E+00 tol =   0.100000E-03
 Iteration #          3
 delta_qm =   0.223144E-03 delta_en =   0.860430E-01 tol =   0.100000E-03
 Iteration #          4
 delta_qm =   0.145094E-03 delta_en =   0.363782E-01 tol =   0.100000E-03
 Iteration #          5
 delta_qm =   0.102132E-03 delta_en =   0.180247E-01 tol =   0.100000E-03
 Iteration #          6
 delta_qm =   0.751214E-04 delta_en =   0.975148E-02 tol =   0.100000E-03
 Iteration #          7
 delta_qm =   0.506669E-04 delta_en =   0.443602E-02 tol =   0.100000E-03
 Iteration #          8
 delta_qm =   0.345349E-04 delta_en =   0.206092E-02 tol =   0.100000E-03
 Iteration #          9
 delta_qm =   0.258331E-04 delta_en =   0.115318E-02 tol =   0.100000E-03
 Iteration #         10
 delta_qm =   0.185521E-04 delta_en =   0.594743E-03 tol =   0.100000E-03
 Iteration #         11
 delta_qm =   0.129770E-04 delta_en =   0.291001E-03 tol =   0.100000E-03
 Iteration #         12
 delta_qm =   0.955211E-05 delta_en =   0.157667E-03 tol =   0.100000E-03
 Iteration #         13
 delta_qm =   0.697993E-05 delta_en =   0.841871E-04 tol =   0.100000E-03
 Charges are converged, EXIT

%%%% ELECTRONS %%%%%%%%%%%%%%%%%%%%%%%%%%%%%%%%%%%%%%%%%%%%%%%%%%%%%%%%%%%%%%%%%
 number of electrons        =         24
 total electronic charge    =     24.0000000
 number of spin components  =  1

%%%% BOUNDARY %%%%%%%%%%%%%%%%%%%%%%%%%%%%%%%%%%%%%%%%%%%%%%%%%%%%%%%%%%%%%%%%%%
 boundary mode              = electronic           
 boundary is built as a function of a smooth density
 function type              =  2 
 using the modified SCCS function with parameters 
 rhomax                     =      0.0050000 
 rhomin                     =      0.0001000 
 volume of the QM region    =    716.7385085 
 surface of the QM region   =    412.3008410 

%%%% DIELECTRIC %%%%%%%%%%%%%%%%%%%%%%%%%%%%%%%%%%%%%%%%%%%%%%%%%%%%%%%%%%%%%%%%%
 dielectric build on homogeneous background
 environment bulk permitt.  =    100.0000000 
 dielectric flags
 need gradient              =  F 
 need factor depend. sqrt   =  F 
 need gradient of logarithm =  T 
