
     Program PWSCF v.6.1 (svn rev. 13369) starts on  8Nov2017 at 10: 4:45 

     This program is part of the open-source Quantum ESPRESSO suite
     for quantum simulation of materials; please cite
         "P. Giannozzi et al., J. Phys.:Condens. Matter 21 395502 (2009);
          URL http://www.quantum-espresso.org", 
     in publications or presentations arising from this work. More details at
     http://www.quantum-espresso.org/quote

     Serial version
     Reading input from charged.in

     Current dimensions of program PWSCF are:
     Max number of different atomic species (ntypx) = 10
     Max number of k-points (npk) =  40000
     Max angular momentum in pseudopotentials (lmaxx) =  3
               file C.pbe-rrkjus.UPF: wavefunction(s)  2S 2P renormalized
               file H.pbe-rrkjus.UPF: wavefunction(s)  1S renormalized
               file N.pbe-rrkjus.UPF: wavefunction(s)  2S renormalized
               file O.pbe-rrkjus.UPF: wavefunction(s)  2S renormalized

     gamma-point specific algorithms are used

     G-vector sticks info
     --------------------
     sticks:   dense  smooth     PW     G-vecs:    dense   smooth      PW
     Sum        9549    3809    949               701475   177509   22119



     bravais-lattice index     =            1
     lattice parameter (alat)  =      20.0000  a.u.
     unit-cell volume          =    8000.0000 (a.u.)^3
     number of atoms/cell      =           10
     number of atomic types    =            4
     number of electrons       =        24.00
     number of Kohn-Sham states=           12
     kinetic-energy cutoff     =      30.0000  Ry
     charge density cutoff     =     300.0000  Ry
     convergence threshold     =      5.0E-03
     mixing beta               =       0.7000
     number of iterations used =            8  plain     mixing
     Exchange-correlation      =  SLA  PW   PBE  PBE ( 1  4  3  4 0 0)


     Environ Module
     ==============

     Plese cite
         O. Andreussi, I. Dabo and N. Marzari, J. Chem. Phys. 136, 064102 (2012)         
     in publications or presentations arising from this work.

     compensation onset threshold      =               0.1000E+03 
     static permittivity               =                   100.00 
     epsilon calculation mode          =                   system 

     Electrostatic Setup
     -------------------
     electrostatic problem to solve    = generalized              
     numerical solver adopted          = iterative                
     type of auxiliary density adopted = full                     
     type of core tool for poisson     = fft                      
     type of core tool for s(r) deriv  = analytic                 



     celldm(1)=  20.000000  celldm(2)=   0.000000  celldm(3)=   0.000000
     celldm(4)=   0.000000  celldm(5)=   0.000000  celldm(6)=   0.000000

     crystal axes: (cart. coord. in units of alat)
               a(1) = (   1.000000   0.000000   0.000000 )  
               a(2) = (   0.000000   1.000000   0.000000 )  
               a(3) = (   0.000000   0.000000   1.000000 )  

     reciprocal axes: (cart. coord. in units 2 pi/alat)
               b(1) = (  1.000000  0.000000  0.000000 )  
               b(2) = (  0.000000  1.000000  0.000000 )  
               b(3) = (  0.000000  0.000000  1.000000 )  


     PseudoPot. # 1 for C  read from file:
     /Users/oliviero/PWSCF/espresso-6.1-Environ-1.0/Environ/tests/../..//pseudo/C.pbe-rrkjus.UPF
     MD5 check sum: 00fb224312de0c5b6853bd333518df6f
     Pseudo is Ultrasoft, Zval =  4.0
     Generated by new atomic code, or converted to UPF format
     Using radial grid of  627 points,  4 beta functions with: 
                l(1) =   0
                l(2) =   0
                l(3) =   1
                l(4) =   1
     Q(r) pseudized with 0 coefficients 


     PseudoPot. # 2 for H  read from file:
     /Users/oliviero/PWSCF/espresso-6.1-Environ-1.0/Environ/tests/../..//pseudo/H.pbe-rrkjus.UPF
     MD5 check sum: 7cc9d459525c9a0585f487a71c3c9563
     Pseudo is Ultrasoft, Zval =  1.0
     Generated by new atomic code, or converted to UPF format
     Using radial grid of 1061 points,  2 beta functions with: 
                l(1) =   0
                l(2) =   0
     Q(r) pseudized with 0 coefficients 


     PseudoPot. # 3 for N  read from file:
     /Users/oliviero/PWSCF/espresso-6.1-Environ-1.0/Environ/tests/../..//pseudo/N.pbe-rrkjus.UPF
     MD5 check sum: 0c3fbe5807a93f9ba59d5a7019aa238b
     Pseudo is Ultrasoft, Zval =  5.0
     Generated by new atomic code, or converted to UPF format
     Using radial grid of 1257 points,  4 beta functions with: 
                l(1) =   0
                l(2) =   0
                l(3) =   1
                l(4) =   1
     Q(r) pseudized with 0 coefficients 


     PseudoPot. # 4 for O  read from file:
     /Users/oliviero/PWSCF/espresso-6.1-Environ-1.0/Environ/tests/../..//pseudo/O.pbe-rrkjus.UPF
     MD5 check sum: 390ba29e75625707450f3bd3f0eb6be9
     Pseudo is Ultrasoft, Zval =  6.0
     Generated by new atomic code, or converted to UPF format
     Using radial grid of 1269 points,  4 beta functions with: 
                l(1) =   0
                l(2) =   0
                l(3) =   1
                l(4) =   1
     Q(r) pseudized with 0 coefficients 


     atomic species   valence    mass     pseudopotential
        C              4.00    12.00000     C ( 1.00)
        H              1.00     1.00000     H ( 1.00)
        N              5.00    14.00000     N ( 1.00)
        O              6.00    16.00000     O ( 1.00)

     No symmetry found



   Cartesian axes

     site n.     atom                  positions (alat units)
         1           C   tau(   1) = (   0.0000000   0.0000000   0.0000000  )
         2           C   tau(   2) = (   0.0000000   0.0000000   0.1455089  )
         3           N   tau(   3) = (   0.1170969   0.0000000  -0.0545024  )
         4           H   tau(   4) = (   0.0476617  -0.0825466   0.1792090  )
         5           H   tau(   5) = (  -0.0953183  -0.0000030   0.1792090  )
         6           H   tau(   6) = (   0.0476566   0.0825496   0.1792090  )
         7           O   tau(   7) = (  -0.0984002  -0.0000019  -0.0641310  )
         8           H   tau(   8) = (   0.1263131  -0.0000015  -0.1475548  )
         9           H   tau(   9) = (   0.1944645   0.0000134  -0.0025716  )
        10           H   tau(  10) = (  -0.0770366  -0.0000045  -0.1522861  )

     number of k points=     1
                       cart. coord. in units 2pi/alat
        k(    1) = (   0.0000000   0.0000000   0.0000000), wk =   2.0000000

     Dense  grid:   350738 G-vectors     FFT dimensions: ( 120, 120, 120)

     Smooth grid:    88755 G-vectors     FFT dimensions: (  72,  72,  72)

     Estimated max dynamical RAM per process >     298.98MB

     Initial potential from superposition of free atoms
     Check: negative starting charge=   -0.000452

     starting charge   24.42266, renormalised to   24.00000

     negative rho (up, down):  4.438E-04 0.000E+00
     Starting wfc are   22 randomized atomic wfcs

     total cpu time spent up to now is        9.4 secs

     Self-consistent Calculation

     iteration #  1     ecut=    30.00 Ry     beta=0.70
     Davidson diagonalization with overlap
     ethr =  1.00E-02,  avg # of iterations =  2.0

     negative rho (up, down):  1.277E-04 0.000E+00

     add environment contribution to local potential
     polarization accuracy = 4.1E-05, # of iterations =  15

     total cpu time spent up to now is       19.6 secs

     total energy              =     -80.23903180 Ry
     Harris-Foulkes estimate   =     -83.01879009 Ry
     estimated scf accuracy    <       3.73442311 Ry
     electrostatic embedding   =       0.00000000 Ry
     correction to one-el term =       0.00000000 Ry

     iteration #  2     ecut=    30.00 Ry     beta=0.70
     Davidson diagonalization with overlap
     ethr =  1.00E-02,  avg # of iterations = 10.0

     negative rho (up, down):  1.262E-04 0.000E+00

     add environment contribution to local potential
     polarization accuracy = 8.3E-05, # of iterations =  11

     total cpu time spent up to now is       28.9 secs

     total energy              =    -123.45051742 Ry
     Harris-Foulkes estimate   =     -56.02371922 Ry
     estimated scf accuracy    <      41.94701294 Ry
     electrostatic embedding   =     -34.94976144 Ry
     correction to one-el term =     -42.61033784 Ry

     iteration #  3     ecut=    30.00 Ry     beta=0.70
     Davidson diagonalization with overlap
     ethr =  1.00E-02,  avg # of iterations =  1.0

     add environment contribution to local potential
     polarization accuracy = 8.6E-05, # of iterations =  13

     total cpu time spent up to now is       38.4 secs

     total energy              =    -105.40558946 Ry
     Harris-Foulkes estimate   =     -38.80384848 Ry
     estimated scf accuracy    <      31.88028095 Ry
     electrostatic embedding   =     -48.88746822 Ry
     correction to one-el term =     -39.14654115 Ry

     iteration #  4     ecut=    30.00 Ry     beta=0.70
     Davidson diagonalization with overlap
     ethr =  1.00E-02,  avg # of iterations =  2.0

     add environment contribution to local potential
     polarization accuracy = 7.2E-05, # of iterations =  13

     total cpu time spent up to now is       47.9 secs

     total energy              =    -114.00366860 Ry
     Harris-Foulkes estimate   =       4.18247844 Ry
     estimated scf accuracy    <       9.41824701 Ry
     electrostatic embedding   =     -84.35914713 Ry
     correction to one-el term =     -41.70710111 Ry

     iteration #  5     ecut=    30.00 Ry     beta=0.70
     Davidson diagonalization with overlap
     ethr =  1.00E-02,  avg # of iterations =  2.0

     add environment contribution to local potential
     polarization accuracy = 7.1E-05, # of iterations =   7

     total cpu time spent up to now is       56.0 secs

     total energy              =    -139.03897479 Ry
     Harris-Foulkes estimate   =      30.35767244 Ry
     estimated scf accuracy    <       0.35049591 Ry
     electrostatic embedding   =    -109.67196002 Ry
     correction to one-el term =     -59.81512234 Ry

     iteration #  6     ecut=    30.00 Ry     beta=0.70
     Davidson diagonalization with overlap
     ethr =  1.46E-03,  avg # of iterations =  5.0

     add environment contribution to local potential
     polarization accuracy = 4.4E-05, # of iterations =   7

     total cpu time spent up to now is       63.4 secs

     total energy              =    -138.88372741 Ry
     Harris-Foulkes estimate   =      30.92351980 Ry
     estimated scf accuracy    <       0.50581537 Ry
     electrostatic embedding   =    -112.12085597 Ry
     correction to one-el term =     -57.83170033 Ry

     iteration #  7     ecut=    30.00 Ry     beta=0.70
     Davidson diagonalization with overlap
     ethr =  1.46E-03,  avg # of iterations =  1.0

     negative rho (up, down):  5.095E-06 0.000E+00

     add environment contribution to local potential
     polarization accuracy = 6.6E-05, # of iterations =   7

     total cpu time spent up to now is       70.6 secs

     total energy              =    -138.35502229 Ry
     Harris-Foulkes estimate   =      32.04698543 Ry
     estimated scf accuracy    <       0.32853533 Ry
     electrostatic embedding   =    -115.37596698 Ry
     correction to one-el term =     -55.18929516 Ry

     iteration #  8     ecut=    30.00 Ry     beta=0.70
     Davidson diagonalization with overlap
     ethr =  1.37E-03,  avg # of iterations =  1.0

     negative rho (up, down):  3.336E-05 0.000E+00

     add environment contribution to local potential
     polarization accuracy = 4.6E-05, # of iterations =   8

     total cpu time spent up to now is       78.3 secs

     total energy              =    -137.85076395 Ry
     Harris-Foulkes estimate   =      33.78186561 Ry
     estimated scf accuracy    <       0.14459641 Ry
     electrostatic embedding   =    -119.85014550 Ry
     correction to one-el term =     -51.88115824 Ry

     iteration #  9     ecut=    30.00 Ry     beta=0.70
     Davidson diagonalization with overlap
     ethr =  6.02E-04,  avg # of iterations =  3.0

     negative rho (up, down):  4.673E-05 0.000E+00

     add environment contribution to local potential
     polarization accuracy = 4.2E-05, # of iterations =   4

     total cpu time spent up to now is       84.4 secs

     total energy              =    -140.13183672 Ry
     Harris-Foulkes estimate   =      35.94876922 Ry
     estimated scf accuracy    <       0.02802715 Ry
     electrostatic embedding   =    -122.85112323 Ry
     correction to one-el term =     -53.24006594 Ry

     iteration # 10     ecut=    30.00 Ry     beta=0.70
     Davidson diagonalization with overlap
     ethr =  1.17E-04,  avg # of iterations =  5.0

     negative rho (up, down):  1.907E-04 0.000E+00

     add environment contribution to local potential
     polarization accuracy = 4.6E-05, # of iterations =   5

     total cpu time spent up to now is       91.1 secs

     total energy              =    -140.21500514 Ry
     Harris-Foulkes estimate   =      36.28941775 Ry
     estimated scf accuracy    <       0.06770466 Ry
     electrostatic embedding   =    -123.56889782 Ry
     correction to one-el term =     -52.93391154 Ry

     iteration # 11     ecut=    30.00 Ry     beta=0.70
     Davidson diagonalization with overlap
     ethr =  1.17E-04,  avg # of iterations =  1.0

     negative rho (up, down):  1.400E-04 0.000E+00

     add environment contribution to local potential
     polarization accuracy = 9.7E-05, # of iterations =   4

     total cpu time spent up to now is       97.2 secs

     total energy              =    -139.80658482 Ry
     Harris-Foulkes estimate   =      36.35636091 Ry
     estimated scf accuracy    <       0.06791705 Ry
     electrostatic embedding   =    -124.59619386 Ry
     correction to one-el term =     -51.61169617 Ry

     iteration # 12     ecut=    30.00 Ry     beta=0.70
     Davidson diagonalization with overlap
     ethr =  1.17E-04,  avg # of iterations =  2.0

     negative rho (up, down):  1.323E-04 0.000E+00

     add environment contribution to local potential
     polarization accuracy = 4.3E-05, # of iterations =   3

     total cpu time spent up to now is      102.9 secs

     total energy              =    -140.14962408 Ry
     Harris-Foulkes estimate   =      37.35564290 Ry
     estimated scf accuracy    <       0.02285742 Ry
     electrostatic embedding   =    -125.71530292 Ry
     correction to one-el term =     -51.80402618 Ry

     iteration # 13     ecut=    30.00 Ry     beta=0.70
     Davidson diagonalization with overlap
     ethr =  9.52E-05,  avg # of iterations =  3.0

     negative rho (up, down):  1.201E-04 0.000E+00

     add environment contribution to local potential
     polarization accuracy = 2.7E-05, # of iterations =   3

     total cpu time spent up to now is      108.7 secs

     total energy              =    -140.34031563 Ry
     Harris-Foulkes estimate   =      37.85591961 Ry
     estimated scf accuracy    <       0.01133476 Ry
     electrostatic embedding   =    -126.34659448 Ry
     correction to one-el term =     -51.85615326 Ry

     iteration # 14     ecut=    30.00 Ry     beta=0.70
     Davidson diagonalization with overlap
     ethr =  4.72E-05,  avg # of iterations =  5.0

     negative rho (up, down):  1.192E-04 0.000E+00

     add environment contribution to local potential
     polarization accuracy = 9.9E-06, # of iterations =   3

     total cpu time spent up to now is      114.5 secs

     total energy              =    -140.48344290 Ry
     Harris-Foulkes estimate   =      38.15751552 Ry
     estimated scf accuracy    <       0.02083426 Ry
     electrostatic embedding   =    -126.65110098 Ry
     correction to one-el term =     -51.99280391 Ry

     iteration # 15     ecut=    30.00 Ry     beta=0.70
     Davidson diagonalization with overlap
     ethr =  4.72E-05,  avg # of iterations =  1.0

     negative rho (up, down):  1.214E-04 0.000E+00

     add environment contribution to local potential
     polarization accuracy = 7.3E-05, # of iterations =   4

     total cpu time spent up to now is      120.6 secs

     total energy              =    -140.01530820 Ry
     Harris-Foulkes estimate   =      38.24516842 Ry
     estimated scf accuracy    <       0.01799348 Ry
     electrostatic embedding   =    -127.28503790 Ry
     correction to one-el term =     -50.98863402 Ry

     iteration # 16     ecut=    30.00 Ry     beta=0.70
     Davidson diagonalization with overlap
     ethr =  4.72E-05,  avg # of iterations =  3.0

     negative rho (up, down):  1.199E-04 0.000E+00

     add environment contribution to local potential
     polarization accuracy = 2.6E-05, # of iterations =   1

     total cpu time spent up to now is      125.7 secs

     total energy              =    -140.56442417 Ry
     Harris-Foulkes estimate   =      38.87934758 Ry
     estimated scf accuracy    <       0.00859162 Ry
     electrostatic embedding   =    -127.85133993 Ry
     correction to one-el term =     -51.59327479 Ry

     iteration # 17     ecut=    30.00 Ry     beta=0.70
     Davidson diagonalization with overlap
     ethr =  3.58E-05,  avg # of iterations =  1.0

     negative rho (up, down):  1.154E-04 0.000E+00

     add environment contribution to local potential
     polarization accuracy = 7.5E-05, # of iterations =   3

     total cpu time spent up to now is      131.4 secs

     total energy              =    -140.73491694 Ry
     Harris-Foulkes estimate   =      38.90625248 Ry
     estimated scf accuracy    <       0.00783614 Ry
     electrostatic embedding   =    -127.71148709 Ry
     correction to one-el term =     -51.92637651 Ry

     iteration # 18     ecut=    30.00 Ry     beta=0.70
     Davidson diagonalization with overlap
     ethr =  3.27E-05,  avg # of iterations =  1.0

     negative rho (up, down):  1.107E-04 0.000E+00

     add environment contribution to local potential
     polarization accuracy = 4.0E-05, # of iterations =   4

     total cpu time spent up to now is      137.4 secs

     total energy              =    -140.30270537 Ry
     Harris-Foulkes estimate   =      38.76077624 Ry
     estimated scf accuracy    <       0.01168386 Ry
     electrostatic embedding   =    -127.83550862 Ry
     correction to one-el term =     -51.23550579 Ry

     iteration # 19     ecut=    30.00 Ry     beta=0.70
     Davidson diagonalization with overlap
     ethr =  3.27E-05,  avg # of iterations =  1.0

     negative rho (up, down):  1.235E-04 0.000E+00

     total cpu time spent up to now is      141.4 secs

     End of self-consistent calculation

          k = 0.0000 0.0000 0.0000 ( 11060 PWs)   bands (ev):

   -11.6623  -5.0344  -4.8023  -4.3473  -4.1438  -3.1065  -2.7697  -2.6394
    -2.5235  -2.4456  -2.3601  -2.1415

     highest occupied level (ev):    -2.1415

!    total energy              =    -140.57933120 Ry
     Harris-Foulkes estimate   =      39.09643673 Ry
     estimated scf accuracy    <       0.00350459 Ry

     The total energy is the sum of the following terms:

     one-electron contribution =     -36.16550098 Ry
     hartree contribution      =      20.79552519 Ry
     xc contribution           =      -9.83887003 Ry
     ewald contribution        =      64.30784006 Ry
     electrostatic embedding   =    -128.10930105 Ry
     correction to one-el term =     -51.56902439 Ry

     convergence has been achieved in  19 iterations

     Forces acting on atoms (cartesian axes, Ry/au):

     atom    1 type  1   force =    -0.22164009   -0.00017433    0.94240375
     atom    2 type  1   force =    -0.34339907   -0.00110233    1.00985382
     atom    3 type  3   force =     7.88800478   -0.00022295   -3.88301049
     atom    4 type  2   force =    -0.31449484   -0.02863762    0.75126119
     atom    5 type  2   force =    -0.36533322    0.00025621    0.75422648
     atom    6 type  2   force =    -0.31441146    0.02908897    0.75208758
     atom    7 type  4   force =    -5.40440600    0.00111563   -2.46561183
     atom    8 type  2   force =    -0.32667018   -0.00014040    0.68743366
     atom    9 type  2   force =    -0.28590071   -0.00003740    0.77352887
     atom   10 type  2   force =    -0.31174920   -0.00014579    0.67782698

     Total force =    10.886138     Total SCF correction =     0.050215

     Writing output data file pwscf.save

     init_run     :      8.56s CPU      9.25s WALL (       1 calls)
     electrons    :    120.89s CPU    132.18s WALL (       1 calls)
     forces       :      2.52s CPU      2.92s WALL (       1 calls)

     Called by init_run:
     wfcinit      :      0.21s CPU      0.21s WALL (       1 calls)
     potinit      :      1.74s CPU      1.86s WALL (       1 calls)

     Called by electrons:
     c_bands      :      6.28s CPU      5.88s WALL (      19 calls)
     sum_band     :     24.44s CPU     24.84s WALL (      19 calls)
     v_of_rho     :     27.93s CPU     29.90s WALL (      20 calls)
     newd         :     11.56s CPU     16.93s WALL (      20 calls)
     mix_rho      :      2.92s CPU      3.30s WALL (      19 calls)

     Called by c_bands:
     init_us_2    :      0.25s CPU      0.35s WALL (      39 calls)
     regterg      :      5.96s CPU      5.46s WALL (      19 calls)

     Called by sum_band:
     sum_band:bec :      0.00s CPU      0.00s WALL (      19 calls)
     addusdens    :     19.54s CPU     19.76s WALL (      19 calls)

     Called by *egterg:
     h_psi        :      5.05s CPU      4.88s WALL (      70 calls)
     s_psi        :      0.34s CPU      0.11s WALL (      70 calls)
     g_psi        :      0.04s CPU      0.04s WALL (      50 calls)
     rdiaghg      :      0.02s CPU      0.02s WALL (      69 calls)

     Called by h_psi:
     h_psi:pot    :      5.01s CPU      4.85s WALL (      70 calls)
     h_psi:calbec :      0.18s CPU      0.18s WALL (      70 calls)
     vloc_psi     :      4.48s CPU      4.56s WALL (      70 calls)
     add_vuspsi   :      0.35s CPU      0.11s WALL (      70 calls)

     General routines
     calbec       :      0.24s CPU      0.24s WALL (      93 calls)
     fft          :     45.44s CPU     46.22s WALL (     855 calls)
     ffts         :      0.37s CPU      0.38s WALL (      39 calls)
     fftw         :      4.20s CPU      4.27s WALL (     756 calls)
     interpolate  :      2.90s CPU      3.20s WALL (      39 calls)
     davcio       :      0.00s CPU      0.00s WALL (       1 calls)


     Environ routines
     calc_eelect  :      0.09s CPU      0.09s WALL (      38 calls)
     calc_velect  :     46.34s CPU     49.89s WALL (      36 calls)
     dielectric   :      0.17s CPU      0.20s WALL (       2 calls)
     calc_felect  :      0.23s CPU      0.23s WALL (       1 calls)

     PWSCF        :  2m12.25s CPU     2m24.89s WALL


   This run was terminated on:  10: 7:10   8Nov2017            

=------------------------------------------------------------------------------=
   JOB DONE.
=------------------------------------------------------------------------------=

%%%% IONS %%%%%%%%%%%%%%%%%%%%%%%%%%%%%%%%%%%%%%%%%%%%%%%%%%%%%%%%%%%%%%%%%%%%%%
 number of ions             =         10
 ionic center of charge     =      0.0095530    -0.0000002     0.0063981
 total ionic charge         =    -25.0000000
 ionic dipole               =      0.0000000     0.0000000     0.0000000
 ionic quadrupole (pc)      =    -79.0828058    -5.4513517  -105.8059629
 ionic quadrupole (gauss)   =    -82.2078058    -8.5763517  -108.9309629
 ion   1 type =  1 coordinates =      0.0000000     0.0000000     0.0000000
 ion   2 type =  1 coordinates =      0.0000000     0.0000000     2.9101782
 ion   3 type =  3 coordinates =      2.3419379     0.0000000    -1.0900479
 ion   4 type =  2 coordinates =      0.9532347    -1.6509323     3.5841800
 ion   5 type =  2 coordinates =     -1.9063663    -0.0000596     3.5841809
 ion   6 type =  2 coordinates =      0.9531315     1.6509919     3.5841800
 ion   7 type =  4 coordinates =     -1.9680045    -0.0000375    -1.2826193
 ion   8 type =  2 coordinates =      2.5262613    -0.0000303    -2.9510950
 ion   9 type =  2 coordinates =      3.8892907     0.0002681    -0.0514326
 ion  10 type =  2 coordinates =     -1.5407317    -0.0000890    -3.0457220

%%%% SYSTEM %%%%%%%%%%%%%%%%%%%%%%%%%%%%%%%%%%%%%%%%%%%%%%%%%%%%%%%%%%%%%%%%%%%%
 system is built from all present ionic types
 system defined dimension   =  0 
 system defined axis        =  3 
 system center              =      0.0095530    -0.0000002     0.0063981 
 system width               =      0.5223840 

%%%% BOUNDARY %%%%%%%%%%%%%%%%%%%%%%%%%%%%%%%%%%%%%%%%%%%%%%%%%%%%%%%%%%%%%%%%%%
 boundary mode              = system               
 boundary is built as an analytic function centered on system position
 center of the boundary     =      0.0095530    -0.0000002     0.0063981 
 distance from the center   =      3.0000000 
 spread of the interface    =      0.5000000 
 dimensionality             =  0 
 axis                       =  3 
 volume of the QM region    =    117.8097245 
 surface of the QM region   =    114.6681319 

%%%% DIELECTRIC %%%%%%%%%%%%%%%%%%%%%%%%%%%%%%%%%%%%%%%%%%%%%%%%%%%%%%%%%%%%%%%%%
 dielectric build on homogeneous background
 environment bulk permitt.  =    100.0000000 
 dielectric flags
 need gradient              =  F 
 need factor depend. sqrt   =  F 
 need gradient of logarithm =  T 

%%%% ELECTRONS %%%%%%%%%%%%%%%%%%%%%%%%%%%%%%%%%%%%%%%%%%%%%%%%%%%%%%%%%%%%%%%%%
 number of electrons        =         24
 total electronic charge    =     24.0000000
 number of spin components  =  1

%%%% COMPUTE ELECTROSTATIC POTENTIAL %%%%%%%%%%%%%%%%%%%%%%%%%%%%%%%%%%%%%%%%%%%
 Starting from polarization: rhoiter =      0.000000 jellium =      0.000000
 Iteration #          1
 delta_qm =   0.500070E-02 delta_en =   0.432121E+02 tol =   0.100000E-03
 Iteration #          2
 delta_qm =   0.307043E-02 delta_en =   0.162908E+02 tol =   0.100000E-03
 Iteration #          3
 delta_qm =   0.179617E-02 delta_en =   0.557492E+01 tol =   0.100000E-03
 Iteration #          4
 delta_qm =   0.104530E-02 delta_en =   0.188809E+01 tol =   0.100000E-03
 Iteration #          5
 delta_qm =   0.613506E-03 delta_en =   0.650400E+00 tol =   0.100000E-03
 Iteration #          6
 delta_qm =   0.376985E-03 delta_en =   0.245580E+00 tol =   0.100000E-03
 Iteration #          7
 delta_qm =   0.235166E-03 delta_en =   0.955637E-01 tol =   0.100000E-03
 Iteration #          8
 delta_qm =   0.138854E-03 delta_en =   0.333167E-01 tol =   0.100000E-03
 Iteration #          9
 delta_qm =   0.815628E-04 delta_en =   0.114955E-01 tol =   0.100000E-03
 Iteration #         10
 delta_qm =   0.524162E-04 delta_en =   0.474760E-02 tol =   0.100000E-03
 Iteration #         11
 delta_qm =   0.332110E-04 delta_en =   0.190593E-02 tol =   0.100000E-03
 Iteration #         12
 delta_qm =   0.194336E-04 delta_en =   0.652606E-03 tol =   0.100000E-03
 Iteration #         13
 delta_qm =   0.119731E-04 delta_en =   0.247720E-03 tol =   0.100000E-03
 Iteration #         14
 delta_qm =   0.788930E-05 delta_en =   0.107553E-03 tol =   0.100000E-03
 Iteration #         15
 delta_qm =   0.488030E-05 delta_en =   0.411563E-04 tol =   0.100000E-03
 Charges are converged, EXIT

%%%% ELECTRONS %%%%%%%%%%%%%%%%%%%%%%%%%%%%%%%%%%%%%%%%%%%%%%%%%%%%%%%%%%%%%%%%%
 number of electrons        =         24
 total electronic charge    =     24.0000000
 number of spin components  =  1

%%%% COMPUTE ELECTROSTATIC POTENTIAL %%%%%%%%%%%%%%%%%%%%%%%%%%%%%%%%%%%%%%%%%%%
 Starting from polarization: rhoiter =      0.078482 jellium =      0.000000
 Iteration #          1
 delta_qm =   0.181130E-02 delta_en =   0.566923E+01 tol =   0.100000E-03
 Iteration #          2
 delta_qm =   0.103970E-02 delta_en =   0.186792E+01 tol =   0.100000E-03
 Iteration #          3
 delta_qm =   0.375277E-03 delta_en =   0.243360E+00 tol =   0.100000E-03
 Iteration #          4
 delta_qm =   0.233125E-03 delta_en =   0.939124E-01 tol =   0.100000E-03
 Iteration #          5
 delta_qm =   0.137887E-03 delta_en =   0.328542E-01 tol =   0.100000E-03
 Iteration #          6
 delta_qm =   0.762463E-04 delta_en =   0.100457E-01 tol =   0.100000E-03
 Iteration #          7
 delta_qm =   0.467062E-04 delta_en =   0.376957E-02 tol =   0.100000E-03
 Iteration #          8
 delta_qm =   0.298613E-04 delta_en =   0.154085E-02 tol =   0.100000E-03
 Iteration #          9
 delta_qm =   0.183934E-04 delta_en =   0.584615E-03 tol =   0.100000E-03
 Iteration #         10
 delta_qm =   0.111699E-04 delta_en =   0.215598E-03 tol =   0.100000E-03
 Iteration #         11
 delta_qm =   0.693951E-05 delta_en =   0.832151E-04 tol =   0.100000E-03
 Charges are converged, EXIT

%%%% ELECTRONS %%%%%%%%%%%%%%%%%%%%%%%%%%%%%%%%%%%%%%%%%%%%%%%%%%%%%%%%%%%%%%%%%
 number of electrons        =         24
 total electronic charge    =     24.0000000
 number of spin components  =  1

%%%% COMPUTE ELECTROSTATIC POTENTIAL %%%%%%%%%%%%%%%%%%%%%%%%%%%%%%%%%%%%%%%%%%%
 Starting from polarization: rhoiter =      0.430244 jellium =      0.000000
 Iteration #          1
 delta_qm =   0.418969E-02 delta_en =   0.303324E+02 tol =   0.100000E-03
 Iteration #          2
 delta_qm =   0.232386E-02 delta_en =   0.933176E+01 tol =   0.100000E-03
 Iteration #          3
 delta_qm =   0.881448E-03 delta_en =   0.134257E+01 tol =   0.100000E-03
 Iteration #          4
 delta_qm =   0.544064E-03 delta_en =   0.511497E+00 tol =   0.100000E-03
 Iteration #          5
 delta_qm =   0.332915E-03 delta_en =   0.191519E+00 tol =   0.100000E-03
 Iteration #          6
 delta_qm =   0.187156E-03 delta_en =   0.605276E-01 tol =   0.100000E-03
 Iteration #          7
 delta_qm =   0.113675E-03 delta_en =   0.223294E-01 tol =   0.100000E-03
 Iteration #          8
 delta_qm =   0.734080E-04 delta_en =   0.931173E-02 tol =   0.100000E-03
 Iteration #          9
 delta_qm =   0.456586E-04 delta_en =   0.360237E-02 tol =   0.100000E-03
 Iteration #         10
 delta_qm =   0.274508E-04 delta_en =   0.130213E-02 tol =   0.100000E-03
 Iteration #         11
 delta_qm =   0.170081E-04 delta_en =   0.499868E-03 tol =   0.100000E-03
 Iteration #         12
 delta_qm =   0.110361E-04 delta_en =   0.210464E-03 tol =   0.100000E-03
 Iteration #         13
 delta_qm =   0.705374E-05 delta_en =   0.859770E-04 tol =   0.100000E-03
 Charges are converged, EXIT

%%%% ELECTRONS %%%%%%%%%%%%%%%%%%%%%%%%%%%%%%%%%%%%%%%%%%%%%%%%%%%%%%%%%%%%%%%%%
 number of electrons        =         24
 total electronic charge    =     24.0000000
 number of spin components  =  1

%%%% COMPUTE ELECTROSTATIC POTENTIAL %%%%%%%%%%%%%%%%%%%%%%%%%%%%%%%%%%%%%%%%%%%
 Starting from polarization: rhoiter =      1.248449 jellium =      0.000000
 Iteration #          1
 delta_qm =   0.384858E-02 delta_en =   0.255943E+02 tol =   0.100000E-03
 Iteration #          2
 delta_qm =   0.213950E-02 delta_en =   0.790986E+01 tol =   0.100000E-03
 Iteration #          3
 delta_qm =   0.809566E-03 delta_en =   0.113253E+01 tol =   0.100000E-03
 Iteration #          4
 delta_qm =   0.499279E-03 delta_en =   0.430754E+00 tol =   0.100000E-03
 Iteration #          5
 delta_qm =   0.306095E-03 delta_en =   0.161904E+00 tol =   0.100000E-03
 Iteration #          6
 delta_qm =   0.171847E-03 delta_en =   0.510302E-01 tol =   0.100000E-03
 Iteration #          7
 delta_qm =   0.103966E-03 delta_en =   0.186779E-01 tol =   0.100000E-03
 Iteration #          8
 delta_qm =   0.673127E-04 delta_en =   0.782958E-02 tol =   0.100000E-03
 Iteration #          9
 delta_qm =   0.419207E-04 delta_en =   0.303670E-02 tol =   0.100000E-03
 Iteration #         10
 delta_qm =   0.250962E-04 delta_en =   0.108833E-02 tol =   0.100000E-03
 Iteration #         11
 delta_qm =   0.155423E-04 delta_en =   0.417422E-03 tol =   0.100000E-03
 Iteration #         12
 delta_qm =   0.101065E-04 delta_en =   0.176499E-03 tol =   0.100000E-03
 Iteration #         13
 delta_qm =   0.644567E-05 delta_en =   0.717926E-04 tol =   0.100000E-03
 Charges are converged, EXIT

%%%% ELECTRONS %%%%%%%%%%%%%%%%%%%%%%%%%%%%%%%%%%%%%%%%%%%%%%%%%%%%%%%%%%%%%%%%%
 number of electrons        =         24
 total electronic charge    =     24.0000000
 number of spin components  =  1

%%%% COMPUTE ELECTROSTATIC POTENTIAL %%%%%%%%%%%%%%%%%%%%%%%%%%%%%%%%%%%%%%%%%%%
 Starting from polarization: rhoiter =      1.999620 jellium =      0.000000
 Iteration #          1
 delta_qm =   0.278441E-03 delta_en =   0.133970E+00 tol =   0.100000E-03
 Iteration #          2
 delta_qm =   0.199214E-03 delta_en =   0.685781E-01 tol =   0.100000E-03
 Iteration #          3
 delta_qm =   0.657403E-04 delta_en =   0.746805E-02 tol =   0.100000E-03
 Iteration #          4
 delta_qm =   0.413160E-04 delta_en =   0.294971E-02 tol =   0.100000E-03
 Iteration #          5
 delta_qm =   0.211639E-04 delta_en =   0.773987E-03 tol =   0.100000E-03
 Iteration #          6
 delta_qm =   0.111196E-04 delta_en =   0.213659E-03 tol =   0.100000E-03
 Iteration #          7
 delta_qm =   0.642158E-05 delta_en =   0.712571E-04 tol =   0.100000E-03
 Charges are converged, EXIT

%%%% ELECTRONS %%%%%%%%%%%%%%%%%%%%%%%%%%%%%%%%%%%%%%%%%%%%%%%%%%%%%%%%%%%%%%%%%
 number of electrons        =         24
 total electronic charge    =     24.0000000
 number of spin components  =  1

%%%% COMPUTE ELECTROSTATIC POTENTIAL %%%%%%%%%%%%%%%%%%%%%%%%%%%%%%%%%%%%%%%%%%%
 Starting from polarization: rhoiter =      1.954031 jellium =      0.000000
 Iteration #          1
 delta_qm =   0.136620E-03 delta_en =   0.322532E-01 tol =   0.100000E-03
 Iteration #          2
 delta_qm =   0.713113E-04 delta_en =   0.878740E-02 tol =   0.100000E-03
 Iteration #          3
 delta_qm =   0.336164E-04 delta_en =   0.195275E-02 tol =   0.100000E-03
 Iteration #          4
 delta_qm =   0.213959E-04 delta_en =   0.791055E-03 tol =   0.100000E-03
 Iteration #          5
 delta_qm =   0.141434E-04 delta_en =   0.345663E-03 tol =   0.100000E-03
 Iteration #          6
 delta_qm =   0.832504E-05 delta_en =   0.119761E-03 tol =   0.100000E-03
 Iteration #          7
 delta_qm =   0.502511E-05 delta_en =   0.436351E-04 tol =   0.100000E-03
 Charges are converged, EXIT

%%%% ELECTRONS %%%%%%%%%%%%%%%%%%%%%%%%%%%%%%%%%%%%%%%%%%%%%%%%%%%%%%%%%%%%%%%%%
 number of electrons        =         24
 total electronic charge    =     24.0000000
 number of spin components  =  1

%%%% COMPUTE ELECTROSTATIC POTENTIAL %%%%%%%%%%%%%%%%%%%%%%%%%%%%%%%%%%%%%%%%%%%
 Starting from polarization: rhoiter =      1.977945 jellium =      0.000000
 Iteration #          1
 delta_qm =   0.127580E-03 delta_en =   0.281261E-01 tol =   0.100000E-03
 Iteration #          2
 delta_qm =   0.806912E-04 delta_en =   0.112511E-01 tol =   0.100000E-03
 Iteration #          3
 delta_qm =   0.406239E-04 delta_en =   0.285171E-02 tol =   0.100000E-03
 Iteration #          4
 delta_qm =   0.265128E-04 delta_en =   0.121466E-02 tol =   0.100000E-03
 Iteration #          5
 delta_qm =   0.170257E-04 delta_en =   0.500904E-03 tol =   0.100000E-03
 Iteration #          6
 delta_qm =   0.102355E-04 delta_en =   0.181035E-03 tol =   0.100000E-03
 Iteration #          7
 delta_qm =   0.617352E-05 delta_en =   0.658582E-04 tol =   0.100000E-03
 Charges are converged, EXIT

%%%% ELECTRONS %%%%%%%%%%%%%%%%%%%%%%%%%%%%%%%%%%%%%%%%%%%%%%%%%%%%%%%%%%%%%%%%%
 number of electrons        =         24
 total electronic charge    =     24.0000000
 number of spin components  =  1

%%%% COMPUTE ELECTROSTATIC POTENTIAL %%%%%%%%%%%%%%%%%%%%%%%%%%%%%%%%%%%%%%%%%%%
 Starting from polarization: rhoiter =      1.975071 jellium =      0.000000
 Iteration #          1
 delta_qm =   0.165835E-03 delta_en =   0.475220E-01 tol =   0.100000E-03
 Iteration #          2
 delta_qm =   0.899920E-04 delta_en =   0.139943E-01 tol =   0.100000E-03
 Iteration #          3
 delta_qm =   0.493621E-04 delta_en =   0.421047E-02 tol =   0.100000E-03
 Iteration #          4
 delta_qm =   0.323777E-04 delta_en =   0.181149E-02 tol =   0.100000E-03
 Iteration #          5
 delta_qm =   0.217499E-04 delta_en =   0.817445E-03 tol =   0.100000E-03
 Iteration #          6
 delta_qm =   0.129984E-04 delta_en =   0.291959E-03 tol =   0.100000E-03
 Iteration #          7
 delta_qm =   0.782332E-05 delta_en =   0.105761E-03 tol =   0.100000E-03
 Iteration #          8
 delta_qm =   0.515170E-05 delta_en =   0.458611E-04 tol =   0.100000E-03
 Charges are converged, EXIT

%%%% ELECTRONS %%%%%%%%%%%%%%%%%%%%%%%%%%%%%%%%%%%%%%%%%%%%%%%%%%%%%%%%%%%%%%%%%
 number of electrons        =         24
 total electronic charge    =     24.0000000
 number of spin components  =  1

%%%% COMPUTE ELECTROSTATIC POTENTIAL %%%%%%%%%%%%%%%%%%%%%%%%%%%%%%%%%%%%%%%%%%%
 Starting from polarization: rhoiter =      1.992342 jellium =      0.000000
 Iteration #          1
 delta_qm =   0.309544E-04 delta_en =   0.165573E-02 tol =   0.100000E-03
 Iteration #          2
 delta_qm =   0.166737E-04 delta_en =   0.480406E-03 tol =   0.100000E-03
 Iteration #          3
 delta_qm =   0.765533E-05 delta_en =   0.101268E-03 tol =   0.100000E-03
 Iteration #          4
 delta_qm =   0.495837E-05 delta_en =   0.424836E-04 tol =   0.100000E-03
 Charges are converged, EXIT

%%%% ELECTRONS %%%%%%%%%%%%%%%%%%%%%%%%%%%%%%%%%%%%%%%%%%%%%%%%%%%%%%%%%%%%%%%%%
 number of electrons        =         24
 total electronic charge    =     24.0000000
 number of spin components  =  1

%%%% COMPUTE ELECTROSTATIC POTENTIAL %%%%%%%%%%%%%%%%%%%%%%%%%%%%%%%%%%%%%%%%%%%
 Starting from polarization: rhoiter =      1.997249 jellium =      0.000000
 Iteration #          1
 delta_qm =   0.396682E-04 delta_en =   0.271912E-02 tol =   0.100000E-03
 Iteration #          2
 delta_qm =   0.208146E-04 delta_en =   0.748654E-03 tol =   0.100000E-03
 Iteration #          3
 delta_qm =   0.119525E-04 delta_en =   0.246865E-03 tol =   0.100000E-03
 Iteration #          4
 delta_qm =   0.799758E-05 delta_en =   0.110525E-03 tol =   0.100000E-03
 Iteration #          5
 delta_qm =   0.516066E-05 delta_en =   0.460208E-04 tol =   0.100000E-03
 Charges are converged, EXIT

%%%% ELECTRONS %%%%%%%%%%%%%%%%%%%%%%%%%%%%%%%%%%%%%%%%%%%%%%%%%%%%%%%%%%%%%%%%%
 number of electrons        =         24
 total electronic charge    =     24.0000000
 number of spin components  =  1

%%%% COMPUTE ELECTROSTATIC POTENTIAL %%%%%%%%%%%%%%%%%%%%%%%%%%%%%%%%%%%%%%%%%%%
 Starting from polarization: rhoiter =      2.001339 jellium =      0.000000
 Iteration #          1
 delta_qm =   0.307198E-04 delta_en =   0.163072E-02 tol =   0.100000E-03
 Iteration #          2
 delta_qm =   0.158092E-04 delta_en =   0.431880E-03 tol =   0.100000E-03
 Iteration #          3
 delta_qm =   0.107082E-04 delta_en =   0.198143E-03 tol =   0.100000E-03
 Iteration #          4
 delta_qm =   0.750002E-05 delta_en =   0.972006E-04 tol =   0.100000E-03
 Charges are converged, EXIT

%%%% ELECTRONS %%%%%%%%%%%%%%%%%%%%%%%%%%%%%%%%%%%%%%%%%%%%%%%%%%%%%%%%%%%%%%%%%
 number of electrons        =         24
 total electronic charge    =     24.0000000
 number of spin components  =  1

%%%% COMPUTE ELECTROSTATIC POTENTIAL %%%%%%%%%%%%%%%%%%%%%%%%%%%%%%%%%%%%%%%%%%%
 Starting from polarization: rhoiter =      2.002814 jellium =      0.000000
 Iteration #          1
 delta_qm =   0.218666E-04 delta_en =   0.826239E-03 tol =   0.100000E-03
 Iteration #          2
 delta_qm =   0.146867E-04 delta_en =   0.372726E-03 tol =   0.100000E-03
 Iteration #          3
 delta_qm =   0.499683E-05 delta_en =   0.431452E-04 tol =   0.100000E-03
 Charges are converged, EXIT

%%%% ELECTRONS %%%%%%%%%%%%%%%%%%%%%%%%%%%%%%%%%%%%%%%%%%%%%%%%%%%%%%%%%%%%%%%%%
 number of electrons        =         24
 total electronic charge    =     24.0000000
 number of spin components  =  1

%%%% COMPUTE ELECTROSTATIC POTENTIAL %%%%%%%%%%%%%%%%%%%%%%%%%%%%%%%%%%%%%%%%%%%
 Starting from polarization: rhoiter =      2.000387 jellium =      0.000000
 Iteration #          1
 delta_qm =   0.170001E-04 delta_en =   0.499398E-03 tol =   0.100000E-03
 Iteration #          2
 delta_qm =   0.105801E-04 delta_en =   0.193429E-03 tol =   0.100000E-03
 Iteration #          3
 delta_qm =   0.397506E-05 delta_en =   0.273043E-04 tol =   0.100000E-03
 Charges are converged, EXIT

%%%% ELECTRONS %%%%%%%%%%%%%%%%%%%%%%%%%%%%%%%%%%%%%%%%%%%%%%%%%%%%%%%%%%%%%%%%%
 number of electrons        =         24
 total electronic charge    =     24.0000000
 number of spin components  =  1

%%%% COMPUTE ELECTROSTATIC POTENTIAL %%%%%%%%%%%%%%%%%%%%%%%%%%%%%%%%%%%%%%%%%%%
 Starting from polarization: rhoiter =      2.002057 jellium =      0.000000
 Iteration #          1
 delta_qm =   0.107609E-04 delta_en =   0.200096E-03 tol =   0.100000E-03
 Iteration #          2
 delta_qm =   0.764267E-05 delta_en =   0.100933E-03 tol =   0.100000E-03
 Iteration #          3
 delta_qm =   0.239853E-05 delta_en =   0.994110E-05 tol =   0.100000E-03
 Charges are converged, EXIT

%%%% ELECTRONS %%%%%%%%%%%%%%%%%%%%%%%%%%%%%%%%%%%%%%%%%%%%%%%%%%%%%%%%%%%%%%%%%
 number of electrons        =         24
 total electronic charge    =     24.0000000
 number of spin components  =  1

%%%% COMPUTE ELECTROSTATIC POTENTIAL %%%%%%%%%%%%%%%%%%%%%%%%%%%%%%%%%%%%%%%%%%%
 Starting from polarization: rhoiter =      2.001337 jellium =      0.000000
 Iteration #          1
 delta_qm =   0.522653E-04 delta_en =   0.472032E-02 tol =   0.100000E-03
 Iteration #          2
 delta_qm =   0.331560E-04 delta_en =   0.189963E-02 tol =   0.100000E-03
 Iteration #          3
 delta_qm =   0.105340E-04 delta_en =   0.191749E-03 tol =   0.100000E-03
 Iteration #          4
 delta_qm =   0.648197E-05 delta_en =   0.726035E-04 tol =   0.100000E-03
 Charges are converged, EXIT

%%%% ELECTRONS %%%%%%%%%%%%%%%%%%%%%%%%%%%%%%%%%%%%%%%%%%%%%%%%%%%%%%%%%%%%%%%%%
 number of electrons        =         24
 total electronic charge    =     24.0000000
 number of spin components  =  1

%%%% COMPUTE ELECTROSTATIC POTENTIAL %%%%%%%%%%%%%%%%%%%%%%%%%%%%%%%%%%%%%%%%%%%
 Starting from polarization: rhoiter =      2.010686 jellium =      0.000000
 Iteration #          1
 delta_qm =   0.391406E-05 delta_en =   0.264728E-04 tol =   0.100000E-03
 Charges are converged, EXIT

%%%% ELECTRONS %%%%%%%%%%%%%%%%%%%%%%%%%%%%%%%%%%%%%%%%%%%%%%%%%%%%%%%%%%%%%%%%%
 number of electrons        =         24
 total electronic charge    =     24.0000000
 number of spin components  =  1

%%%% COMPUTE ELECTROSTATIC POTENTIAL %%%%%%%%%%%%%%%%%%%%%%%%%%%%%%%%%%%%%%%%%%%
 Starting from polarization: rhoiter =      2.011227 jellium =      0.000000
 Iteration #          1
 delta_qm =   0.309536E-04 delta_en =   0.165564E-02 tol =   0.100000E-03
 Iteration #          2
 delta_qm =   0.203813E-04 delta_en =   0.717808E-03 tol =   0.100000E-03
 Iteration #          3
 delta_qm =   0.658536E-05 delta_en =   0.749381E-04 tol =   0.100000E-03
 Charges are converged, EXIT

%%%% ELECTRONS %%%%%%%%%%%%%%%%%%%%%%%%%%%%%%%%%%%%%%%%%%%%%%%%%%%%%%%%%%%%%%%%%
 number of electrons        =         24
 total electronic charge    =     24.0000000
 number of spin components  =  1

%%%% COMPUTE ELECTROSTATIC POTENTIAL %%%%%%%%%%%%%%%%%%%%%%%%%%%%%%%%%%%%%%%%%%%
 Starting from polarization: rhoiter =      2.006540 jellium =      0.000000
 Iteration #          1
 delta_qm =   0.406203E-04 delta_en =   0.285121E-02 tol =   0.100000E-03
 Iteration #          2
 delta_qm =   0.251931E-04 delta_en =   0.109675E-02 tol =   0.100000E-03
 Iteration #          3
 delta_qm =   0.767912E-05 delta_en =   0.101898E-03 tol =   0.100000E-03
 Iteration #          4
 delta_qm =   0.481804E-05 delta_en =   0.401129E-04 tol =   0.100000E-03
 Charges are converged, EXIT

%%%% ELECTRONS %%%%%%%%%%%%%%%%%%%%%%%%%%%%%%%%%%%%%%%%%%%%%%%%%%%%%%%%%%%%%%%%%
 number of electrons        =         24
 total electronic charge    =     24.0000000
 number of spin components  =  1
