
     Program PWSCF v.6.3MaX starts on 21Apr2019 at 23:15:20 

     This program is part of the open-source Quantum ESPRESSO suite
     for quantum simulation of materials; please cite
         "P. Giannozzi et al., J. Phys.:Condens. Matter 21 395502 (2009);
         "P. Giannozzi et al., J. Phys.:Condens. Matter 29 465901 (2017);
          URL http://www.quantum-espresso.org", 
     in publications or presentations arising from this work. More details at
     http://www.quantum-espresso.org/quote

     Parallel version (MPI), running on     1 processors

     MPI processes distributed on     1 nodes
     Reading input from charged.in

     Current dimensions of program PWSCF are:
     Max number of different atomic species (ntypx) = 10
     Max number of k-points (npk) =  40000
     Max angular momentum in pseudopotentials (lmaxx) =  3
               file C.pbe-rrkjus.UPF: wavefunction(s)  2S 2P renormalized
               file H.pbe-rrkjus.UPF: wavefunction(s)  1S renormalized
               file N.pbe-rrkjus.UPF: wavefunction(s)  2S renormalized
               file O.pbe-rrkjus.UPF: wavefunction(s)  2S renormalized

     gamma-point specific algorithms are used

     Subspace diagonalization in iterative solution of the eigenvalue problem:
     a serial algorithm will be used

 
     G-vector sticks info
     --------------------
     sticks:   dense  smooth     PW     G-vecs:    dense   smooth      PW
     Sum        9549    3809    949               701475   177509   22119
 


     bravais-lattice index     =            1
     lattice parameter (alat)  =      20.0000  a.u.
     unit-cell volume          =    8000.0000 (a.u.)^3
     number of atoms/cell      =           10
     number of atomic types    =            4
     number of electrons       =        24.00
     number of Kohn-Sham states=           12
     kinetic-energy cutoff     =      30.0000  Ry
     charge density cutoff     =     300.0000  Ry
     convergence threshold     =      5.0E-03
     mixing beta               =       0.7000
     number of iterations used =            8  plain     mixing
     Exchange-correlation      = SLA PW PBE PBE ( 1  4  3  4 0 0)
 

     Environ Module
     ==============

     Plese cite
         O. Andreussi, I. Dabo and N. Marzari, J. Chem. Phys. 136, 064102 (2012)         
     in publications or presentations arising from this work.

     compensation onset threshold      =               0.1000E+03 
     static permittivity               =                   100.00 
     epsilon calculation mode          =               electronic 

     Electrostatic Setup
     -------------------
     electrostatic problem to solve    = generalized              
     numerical solver adopted          = sd                       
     type of auxiliary density adopted = none                     
     type of core tool for poisson     = fft                      
     type of core tool for s(r) deriv  = analytic                 



     celldm(1)=  20.000000  celldm(2)=   0.000000  celldm(3)=   0.000000
     celldm(4)=   0.000000  celldm(5)=   0.000000  celldm(6)=   0.000000

     crystal axes: (cart. coord. in units of alat)
               a(1) = (   1.000000   0.000000   0.000000 )  
               a(2) = (   0.000000   1.000000   0.000000 )  
               a(3) = (   0.000000   0.000000   1.000000 )  

     reciprocal axes: (cart. coord. in units 2 pi/alat)
               b(1) = (  1.000000  0.000000  0.000000 )  
               b(2) = (  0.000000  1.000000  0.000000 )  
               b(3) = (  0.000000  0.000000  1.000000 )  


     PseudoPot. # 1 for C  read from file:
     /home/fnattino/Programs/quantumespresso/q-e-qe-6.3-develop/Environ/tests/../..//pseudo/C.pbe-rrkjus.UPF
     MD5 check sum: c9ac5a99bc85b198593446162950cd17
     Pseudo is Ultrasoft, Zval =  4.0
     Generated by new atomic code, or converted to UPF format
     Using radial grid of  627 points,  4 beta functions with: 
                l(1) =   0
                l(2) =   0
                l(3) =   1
                l(4) =   1
     Q(r) pseudized with 0 coefficients 


     PseudoPot. # 2 for H  read from file:
     /home/fnattino/Programs/quantumespresso/q-e-qe-6.3-develop/Environ/tests/../..//pseudo/H.pbe-rrkjus.UPF
     MD5 check sum: 2d52a7f45632fd764c17cc6affed14c8
     Pseudo is Ultrasoft, Zval =  1.0
     Generated by new atomic code, or converted to UPF format
     Using radial grid of 1061 points,  2 beta functions with: 
                l(1) =   0
                l(2) =   0
     Q(r) pseudized with 0 coefficients 


     PseudoPot. # 3 for N  read from file:
     /home/fnattino/Programs/quantumespresso/q-e-qe-6.3-develop/Environ/tests/../..//pseudo/N.pbe-rrkjus.UPF
     MD5 check sum: 28c76d763763edb36c62a6ca2be9aebd
     Pseudo is Ultrasoft, Zval =  5.0
     Generated by new atomic code, or converted to UPF format
     Using radial grid of 1257 points,  4 beta functions with: 
                l(1) =   0
                l(2) =   0
                l(3) =   1
                l(4) =   1
     Q(r) pseudized with 0 coefficients 


     PseudoPot. # 4 for O  read from file:
     /home/fnattino/Programs/quantumespresso/q-e-qe-6.3-develop/Environ/tests/../..//pseudo/O.pbe-rrkjus.UPF
     MD5 check sum: fadcf19ee70a498d3030e2e79cf929a4
     Pseudo is Ultrasoft, Zval =  6.0
     Generated by new atomic code, or converted to UPF format
     Using radial grid of 1269 points,  4 beta functions with: 
                l(1) =   0
                l(2) =   0
                l(3) =   1
                l(4) =   1
     Q(r) pseudized with 0 coefficients 


     atomic species   valence    mass     pseudopotential
        C              4.00    12.00000     C ( 1.00)
        H              1.00     1.00000     H ( 1.00)
        N              5.00    14.00000     N ( 1.00)
        O              6.00    16.00000     O ( 1.00)

     No symmetry found



   Cartesian axes

     site n.     atom                  positions (alat units)
         1           C   tau(   1) = (   0.0000000   0.0000000   0.0000000  )
         2           C   tau(   2) = (   0.0000000   0.0000000   0.1455089  )
         3           N   tau(   3) = (   0.1170969   0.0000000  -0.0545024  )
         4           H   tau(   4) = (   0.0476617  -0.0825466   0.1792090  )
         5           H   tau(   5) = (  -0.0953183  -0.0000030   0.1792090  )
         6           H   tau(   6) = (   0.0476566   0.0825496   0.1792090  )
         7           O   tau(   7) = (  -0.0984002  -0.0000019  -0.0641310  )
         8           H   tau(   8) = (   0.1263131  -0.0000015  -0.1475548  )
         9           H   tau(   9) = (   0.1944645   0.0000134  -0.0025716  )
        10           H   tau(  10) = (  -0.0770366  -0.0000045  -0.1522861  )

     number of k points=     1
                       cart. coord. in units 2pi/alat
        k(    1) = (   0.0000000   0.0000000   0.0000000), wk =   2.0000000

     Dense  grid:   350738 G-vectors     FFT dimensions: ( 120, 120, 120)

     Smooth grid:    88755 G-vectors     FFT dimensions: (  72,  72,  72)

     Estimated max dynamical RAM per process >     691.80 MB

     Initial potential from superposition of free atoms
     Check: negative starting charge=   -0.000452

     starting charge   24.42266, renormalised to   24.00000

     negative rho (up, down):  4.438E-04 0.000E+00
     Starting wfcs are   22 randomized atomic wfcs

     total cpu time spent up to now is        5.0 secs

     Self-consistent Calculation

     iteration #  1     ecut=    30.00 Ry     beta= 0.70
     Davidson diagonalization with overlap
     ethr =  1.00E-02,  avg # of iterations =  2.0

     negative rho (up, down):  1.277E-04 0.000E+00

     add environment contribution to local potential
     polarization accuracy = 6.2E-06, # of iterations =  41

     total cpu time spent up to now is       11.8 secs

     total energy              =     -80.23905785 Ry
     Harris-Foulkes estimate   =     -83.01882218 Ry
     estimated scf accuracy    <       3.73443027 Ry
     electrostatic embedding   =       0.00000000 Ry
     correction to one-el term =       0.00000000 Ry

     iteration #  2     ecut=    30.00 Ry     beta= 0.70
     Davidson diagonalization with overlap
     ethr =  1.00E-02,  avg # of iterations =  4.0

     negative rho (up, down):  6.920E-04 0.000E+00

     add environment contribution to local potential
     polarization accuracy = 6.4E-06, # of iterations =  59

     total cpu time spent up to now is       20.2 secs

     total energy              =     -80.96159072 Ry
     Harris-Foulkes estimate   =     -76.58374408 Ry
     estimated scf accuracy    <       1.54143782 Ry
     electrostatic embedding   =      -0.18544471 Ry
     correction to one-el term =      -5.01782790 Ry

     iteration #  3     ecut=    30.00 Ry     beta= 0.70
     Davidson diagonalization with overlap
     ethr =  6.42E-03,  avg # of iterations =  3.0

     negative rho (up, down):  3.243E-04 0.000E+00

     add environment contribution to local potential
     polarization accuracy = 7.7E-06, # of iterations =  73

     total cpu time spent up to now is       29.9 secs

     total energy              =     -81.32008265 Ry
     Harris-Foulkes estimate   =     -77.00548701 Ry
     estimated scf accuracy    <       0.24273717 Ry
     electrostatic embedding   =      -0.15280447 Ry
     correction to one-el term =      -4.29119178 Ry

     iteration #  4     ecut=    30.00 Ry     beta= 0.70
     Davidson diagonalization with overlap
     ethr =  1.01E-03,  avg # of iterations =  4.0

     negative rho (up, down):  8.667E-05 0.000E+00

     add environment contribution to local potential
     polarization accuracy = 8.2E-06, # of iterations =  89

     total cpu time spent up to now is       40.9 secs

     total energy              =     -81.37925438 Ry
     Harris-Foulkes estimate   =     -77.20731705 Ry
     estimated scf accuracy    <       0.02093643 Ry
     electrostatic embedding   =      -0.12841320 Ry
     correction to one-el term =      -4.05415830 Ry

     iteration #  5     ecut=    30.00 Ry     beta= 0.70
     Davidson diagonalization with overlap
     ethr =  8.72E-05,  avg # of iterations =  4.0

     negative rho (up, down):  2.756E-04 0.000E+00

     the potential shift due to the Gaussian-smeared nuclei is    -0.0668 ev

     total cpu time spent up to now is       43.1 secs

     End of self-consistent calculation

          k = 0.0000 0.0000 0.0000 ( 11060 PWs)   bands (ev):

   -28.9375 -23.1992 -18.6810 -16.0122 -14.7185 -13.4442 -11.7059 -10.9635
    -9.6059  -9.5911  -9.3543  -7.4402

     highest occupied level (ev):    -7.4402

!    total energy              =     -81.38471723 Ry
     Harris-Foulkes estimate   =     -77.44086177 Ry
     estimated scf accuracy    <       0.00247569 Ry

     The total energy is the sum of the following terms:

     one-electron contribution =    -241.93635618 Ry
     hartree contribution      =     123.13422127 Ry
     xc contribution           =     -22.94472048 Ry
     ewald contribution        =      64.30784006 Ry
     electrostatic embedding   =      -0.12263267 Ry
     correction to one-el term =      -3.82306923 Ry

     convergence has been achieved in   5 iterations

     Forces acting on atoms (cartesian axes, Ry/au):

     atom    1 type  1   force =     0.21833942    0.00001204    0.09997038
     atom    2 type  1   force =    -0.03323587   -0.00000468   -0.08063039
     atom    3 type  3   force =    -0.13914416   -0.00000059    0.04521458
     atom    4 type  2   force =     0.01776062   -0.02856665    0.00858956
     atom    5 type  2   force =    -0.03290975   -0.00000261    0.01192223
     atom    6 type  2   force =     0.01776406    0.02857233    0.00859083
     atom    7 type  4   force =    -0.08357359   -0.00003013   -0.01003441
     atom    8 type  2   force =     0.00524195    0.00000586   -0.04816160
     atom    9 type  2   force =     0.03845050    0.00001016    0.03891654
     atom   10 type  2   force =    -0.00869317    0.00000426   -0.07437772

     Total force =     0.329160     Total SCF correction =     0.120926
     SCF correction compared to forces is large: reduce conv_thr to get better values

     Writing output data file pwscf.save/
 
     init_run     :      3.94s CPU      4.40s WALL (       1 calls)
     electrons    :     31.33s CPU     38.10s WALL (       1 calls)
     forces       :      0.77s CPU      0.98s WALL (       1 calls)

     Called by init_run:
     wfcinit      :      0.13s CPU      0.14s WALL (       1 calls)
     potinit      :      1.49s CPU      1.60s WALL (       1 calls)
     hinit0       :      1.96s CPU      2.00s WALL (       1 calls)

     Called by electrons:
     c_bands      :      1.24s CPU      1.23s WALL (       5 calls)
     sum_band     :      1.98s CPU      2.83s WALL (       5 calls)
     v_of_rho     :      2.77s CPU      3.03s WALL (       6 calls)
     newd         :      1.46s CPU      2.61s WALL (       6 calls)
     mix_rho      :      0.23s CPU      0.24s WALL (       5 calls)

     Called by c_bands:
     init_us_2    :      0.05s CPU      0.05s WALL (      11 calls)
     regterg      :      1.16s CPU      1.16s WALL (       5 calls)

     Called by sum_band:
     sum_band:bec :      0.00s CPU      0.00s WALL (       5 calls)
     addusdens    :      1.61s CPU      2.45s WALL (       5 calls)

     Called by *egterg:
     h_psi        :      1.19s CPU      1.18s WALL (      23 calls)
     s_psi        :      0.00s CPU      0.02s WALL (      23 calls)
     g_psi        :      0.00s CPU      0.01s WALL (      17 calls)
     rdiaghg      :      0.01s CPU      0.01s WALL (      22 calls)

     Called by h_psi:
     h_psi:pot    :      1.19s CPU      1.18s WALL (      23 calls)
     h_psi:calbec :      0.02s CPU      0.02s WALL (      23 calls)
     vloc_psi     :      1.14s CPU      1.14s WALL (      23 calls)
     add_vuspsi   :      0.02s CPU      0.02s WALL (      23 calls)

     General routines
     calbec       :      0.04s CPU      0.03s WALL (      32 calls)
     fft          :     11.80s CPU     11.83s WALL (     674 calls)
     ffts         :      0.02s CPU      0.03s WALL (      11 calls)
     fftw         :      1.05s CPU      1.02s WALL (     244 calls)
     interpolate  :      0.15s CPU      0.18s WALL (       6 calls)
 
     Parallel routines
 
     Environ routines
     calc_eelect  :      0.02s CPU      0.01s WALL (      10 calls)
     calc_velect  :     20.73s CPU     25.11s WALL (       8 calls)
     dielectric   :      0.32s CPU      0.35s WALL (       7 calls)
     calc_felect  :      0.08s CPU      0.09s WALL (       1 calls)
 
     PWSCF        :    36.69s CPU        44.16s WALL

 
   This run was terminated on:  23:16: 4  21Apr2019            

=------------------------------------------------------------------------------=
   JOB DONE.
=------------------------------------------------------------------------------=

%%%% IONS %%%%%%%%%%%%%%%%%%%%%%%%%%%%%%%%%%%%%%%%%%%%%%%%%%%%%%%%%%%%%%%%%%%%%%
 number of ions             =         10
 ionic center of charge     =      0.0095530    -0.0000002     0.0063981
 total ionic charge         =    -25.0000000
 ionic dipole               =      0.0000000     0.0000000     0.0000000
 ionic quadrupole (pc)      =    -79.0828058    -5.4513517  -105.8059629
 ionic quadrupole (gauss)   =    -82.2078058    -8.5763517  -108.9309629
 ion   1 type =  1 coordinates =      0.0000000     0.0000000     0.0000000
 ion   2 type =  1 coordinates =      0.0000000     0.0000000     2.9101782
 ion   3 type =  3 coordinates =      2.3419379     0.0000000    -1.0900479
 ion   4 type =  2 coordinates =      0.9532347    -1.6509323     3.5841800
 ion   5 type =  2 coordinates =     -1.9063663    -0.0000596     3.5841809
 ion   6 type =  2 coordinates =      0.9531315     1.6509919     3.5841800
 ion   7 type =  4 coordinates =     -1.9680045    -0.0000375    -1.2826193
 ion   8 type =  2 coordinates =      2.5262613    -0.0000303    -2.9510950
 ion   9 type =  2 coordinates =      3.8892907     0.0002681    -0.0514326
 ion  10 type =  2 coordinates =     -1.5407317    -0.0000890    -3.0457220

%%%% SYSTEM %%%%%%%%%%%%%%%%%%%%%%%%%%%%%%%%%%%%%%%%%%%%%%%%%%%%%%%%%%%%%%%%%%%%
 system is built from all present ionic types
 system defined dimension   =  0 
 system defined axis        =  3 
 system center              =      0.0095530    -0.0000002     0.0063981 
 system width               =      0.2021425 

%%%% ELECTRONS %%%%%%%%%%%%%%%%%%%%%%%%%%%%%%%%%%%%%%%%%%%%%%%%%%%%%%%%%%%%%%%%%
 number of electrons        =         24
 total electronic charge    =     24.0000000
 number of spin components  =  1

%%%% BOUNDARY %%%%%%%%%%%%%%%%%%%%%%%%%%%%%%%%%%%%%%%%%%%%%%%%%%%%%%%%%%%%%%%%%%
 boundary label             = solvent              
 boundary mode              = electronic           
 boundary is built as a function of a smooth density
 function type              =  2 
 using the modified SCCS function with parameters 
 rhomax                     =      0.0050000 
 rhomin                     =      0.0001000 
 volume of the QM region    =   2771.6247530 
 surface of the QM region   =    905.6008160 

%%%% DIELECTRIC %%%%%%%%%%%%%%%%%%%%%%%%%%%%%%%%%%%%%%%%%%%%%%%%%%%%%%%%%%%%%%%%%
 dielectric build on homogeneous background
 environment bulk permitt.  =    100.0000000 
 dielectric flags
 need gradient              =  F 
 need factor depend. sqrt   =  T 
 total dielectric charge    =      0.0000000

%%%% DENSITY %%%%%%%%%%%%%%%%%%%%%%%%%%%%%%%%%%%%%%%%%%%%%%%%%%%%%%%%%%%%%%%%%%%
 density label              = vreference                                                                      
 integral of density        =      0.000000000    

%%%% DENSITY %%%%%%%%%%%%%%%%%%%%%%%%%%%%%%%%%%%%%%%%%%%%%%%%%%%%%%%%%%%%%%%%%%%
 density label              = velectrostatic                                                                  
 integral of density        =      0.000000000    

%%%% CHARGES %%%%%%%%%%%%%%%%%%%%%%%%%%%%%%%%%%%%%%%%%%%%%%%%%%%%%%%%%%%%%%%%%%%
 total number of charges    =         34
 total charge               =     -1.0000000

%%%% DENSITY %%%%%%%%%%%%%%%%%%%%%%%%%%%%%%%%%%%%%%%%%%%%%%%%%%%%%%%%%%%%%%%%%%%
 density label              = vsoftcavity                                                                     
 integral of density        =      0.000000000    

%%%% ELECTRONS %%%%%%%%%%%%%%%%%%%%%%%%%%%%%%%%%%%%%%%%%%%%%%%%%%%%%%%%%%%%%%%%%
 number of electrons        =         24
 total electronic charge    =     24.0000000
 number of spin components  =  1

%%%% BOUNDARY %%%%%%%%%%%%%%%%%%%%%%%%%%%%%%%%%%%%%%%%%%%%%%%%%%%%%%%%%%%%%%%%%%
 boundary label             = solvent              
 boundary mode              = electronic           
 boundary is built as a function of a smooth density
 function type              =  2 
 using the modified SCCS function with parameters 
 rhomax                     =      0.0050000 
 rhomin                     =      0.0001000 
 volume of the QM region    =    989.6663037 
 surface of the QM region   =    490.3846795 

%%%% DIELECTRIC %%%%%%%%%%%%%%%%%%%%%%%%%%%%%%%%%%%%%%%%%%%%%%%%%%%%%%%%%%%%%%%%%
 dielectric build on homogeneous background
 environment bulk permitt.  =    100.0000000 
 dielectric flags
 need gradient              =  F 
 need factor depend. sqrt   =  T 
 total dielectric charge    =      0.0000000

%%%% DENSITY %%%%%%%%%%%%%%%%%%%%%%%%%%%%%%%%%%%%%%%%%%%%%%%%%%%%%%%%%%%%%%%%%%%
 density label              = vreference                                                                      
 integral of density        =    -0.1947413424E-12

%%%% COMPUTE ELECTROSTATIC POTENTIAL %%%%%%%%%%%%%%%%%%%%%%%%%%%%%%%%%%%%%%%%%%%
 Iteration #          1
  pAp =    92.0128131107395       rzold =    89.1167871489850       alpha = 
  0.968525840436275     
 delta_qm =   0.144051E-01 delta_en =   0.358571E+03 tol =   0.100000E-04
 Iteration #          2
  pAp =    136.114909491980       rzold =    17.6132548542910       alpha = 
  0.129399893957456     
 delta_qm =   0.336507E-02 delta_en =   0.195674E+02 tol =   0.100000E-04
 Iteration #          3
  pAp =   0.908310649909956       rzold =   0.241839805106377       alpha = 
  0.266252306003845     
 delta_qm =   0.195624E-02 delta_en =   0.661287E+01 tol =   0.100000E-04
 Iteration #          4
  pAp =   0.435846359775067       rzold =   9.237392195720233E-002  alpha = 
  0.211941478655173     
 delta_qm =   0.169610E-02 delta_en =   0.497102E+01 tol =   0.100000E-04
 Iteration #          5
  pAp =   0.183051952483504       rzold =   4.411589662187895E-002  alpha = 
  0.241002054462404     
 delta_qm =   0.107770E-02 delta_en =   0.200697E+01 tol =   0.100000E-04
 Iteration #          6
  pAp =   0.143497237011567       rzold =   2.995279446977302E-002  alpha = 
  0.208734294078140     
 delta_qm =   0.103949E-02 delta_en =   0.186716E+01 tol =   0.100000E-04
 Iteration #          7
  pAp =   6.550562070859833E-002  rzold =   1.561117809647778E-002  alpha = 
  0.238318146253801     
 delta_qm =   0.650222E-03 delta_en =   0.730579E+00 tol =   0.100000E-04
 Iteration #          8
  pAp =   5.190017996466710E-002  rzold =   1.077144674629195E-002  alpha = 
  0.207541606861961     
 delta_qm =   0.651750E-03 delta_en =   0.734017E+00 tol =   0.100000E-04
 Iteration #          9
  pAp =   2.391468990788384E-002  rzold =   5.679826905393079E-003  alpha = 
  0.237503681932361     
 delta_qm =   0.406247E-03 delta_en =   0.285183E+00 tol =   0.100000E-04
 Iteration #         10
  pAp =   1.902486941566235E-002  rzold =   3.943222306398507E-003  alpha = 
  0.207266721271276     
 delta_qm =   0.417526E-03 delta_en =   0.301239E+00 tol =   0.100000E-04
 Iteration #         11
  pAp =   8.808391934347463E-003  rzold =   2.091161136962590E-003  alpha = 
  0.237405550587311     
 delta_qm =   0.261227E-03 delta_en =   0.117918E+00 tol =   0.100000E-04
 Iteration #         12
  pAp =   7.034039618182096E-003  rzold =   1.458226595910750E-003  alpha = 
  0.207309977632401     
 delta_qm =   0.273074E-03 delta_en =   0.128856E+00 tol =   0.100000E-04
 Iteration #         13
  pAp =   3.269836143254233E-003  rzold =   7.767844788754907E-004  alpha = 
  0.237560674249081     
 delta_qm =   0.172491E-03 delta_en =   0.514135E-01 tol =   0.100000E-04
 Iteration #         14
  pAp =   2.622870135521112E-003  rzold =   5.441997919541469E-004  alpha = 
  0.207482553018594     
 delta_qm =   0.182170E-03 delta_en =   0.573450E-01 tol =   0.100000E-04
 Iteration #         15
  pAp =   1.224861860629917E-003  rzold =   2.913306496324561E-004  alpha = 
  0.237847759814018     
 delta_qm =   0.116780E-03 delta_en =   0.235656E-01 tol =   0.100000E-04
 Iteration #         16
  pAp =   9.881719452208065E-004  rzold =   2.052890216045602E-004  alpha = 
  0.207746255697118     
 delta_qm =   0.123787E-03 delta_en =   0.264786E-01 tol =   0.100000E-04
 Iteration #         17
  pAp =   4.641926989310229E-004  rzold =   1.105967758132275E-004  alpha = 
  0.238256172636747     
 delta_qm =   0.808618E-04 delta_en =   0.112987E-01 tol =   0.100000E-04
 Iteration #         18
  pAp =   3.773599368604072E-004  rzold =   7.853210008858855E-005  alpha = 
  0.208109267618515     
 delta_qm =   0.855213E-04 delta_en =   0.126384E-01 tol =   0.100000E-04
 Iteration #         19
  pAp =   1.786533908860055E-004  rzold =   4.266385396777128E-005  alpha = 
  0.238807971996423     
 delta_qm =   0.570571E-04 delta_en =   0.562552E-02 tol =   0.100000E-04
 Iteration #         20
  pAp =   1.467141934624201E-004  rzold =   3.060337927406277E-005  alpha = 
  0.208591810729625     
 delta_qm =   0.599398E-04 delta_en =   0.620833E-02 tol =   0.100000E-04
 Iteration #         21
  pAp =   7.017664961081454E-005  rzold =   1.680939884522936E-005  alpha = 
  0.239529799989753     
 delta_qm =   0.408535E-04 delta_en =   0.288405E-02 tol =   0.100000E-04
 Iteration #         22
  pAp =   5.839641842576200E-005  rzold =   1.221715122579947E-005  alpha = 
  0.209210625499761     
 delta_qm =   0.425203E-04 delta_en =   0.312418E-02 tol =   0.100000E-04
 Iteration #         23
  pAp =   2.830195902032453E-005  rzold =   6.804796261042908E-006  alpha = 
  0.240435520953025     
 delta_qm =   0.295624E-04 delta_en =   0.151016E-02 tol =   0.100000E-04
 Iteration #         24
  pAp =   2.394348381838350E-005  rzold =   5.027328146161718E-006  alpha = 
  0.209966443659373     
 delta_qm =   0.304616E-04 delta_en =   0.160343E-02 tol =   0.100000E-04
 Iteration #         25
  pAp =   1.179185796659431E-005  rzold =   2.847857234321284E-006  alpha = 
  0.241510476329439     
 delta_qm =   0.215463E-04 delta_en =   0.802209E-03 tol =   0.100000E-04
 Iteration #         26
  pAp =   1.017319773939464E-005  rzold =   2.144851520515725E-006  alpha = 
  0.210833562411749     
 delta_qm =   0.219953E-04 delta_en =   0.835997E-03 tol =   0.100000E-04
 Iteration #         27
  pAp =   5.103105598790663E-006  rzold =   1.238532797485124E-006  alpha = 
  0.242701777086218     
 delta_qm =   0.157776E-04 delta_en =   0.430158E-03 tol =   0.100000E-04
 Iteration #         28
  pAp =   4.499041067596950E-006  rzold =   9.527065051748968E-007  alpha = 
  0.211757681439383     
 delta_qm =   0.159815E-04 delta_en =   0.441345E-03 tol =   0.100000E-04
 Iteration #         29
  pAp =   2.301415594082050E-006  rzold =   5.613703911485913E-007  alpha = 
  0.243923953844808     
 delta_qm =   0.115890E-04 delta_en =   0.232077E-03 tol =   0.100000E-04
 Iteration #         30
  pAp =   2.074525217622705E-006  rzold =   4.411843065064551E-007  alpha = 
  0.212667603535824     
 delta_qm =   0.116697E-04 delta_en =   0.235323E-03 tol =   0.100000E-04
 Iteration #         31
  pAp =   1.081809807677551E-006  rzold =   2.651326265528914E-007  alpha = 
  0.245082476301526     
 delta_qm =   0.853073E-05 delta_en =   0.125752E-03 tol =   0.100000E-04
 Iteration #         32
  pAp =   9.958515265750197E-007  rzold =   2.126114044909851E-007  alpha = 
  0.213497091501389     
 delta_qm =   0.855574E-05 delta_en =   0.126491E-03 tol =   0.100000E-04
 Iteration #         33
  pAp =   5.284859163832159E-007  rzold =   1.300620365460250E-007  alpha = 
  0.246103126902845     
 delta_qm =   0.629069E-05 delta_en =   0.683817E-04 tol =   0.100000E-04
 Iteration #         34
  pAp =   4.955594104622989E-007  rzold =   1.061507497764819E-007  alpha = 
  0.214203882592918     
 delta_qm =   0.629402E-05 delta_en =   0.684541E-04 tol =   0.100000E-04
 Iteration #         35
  pAp =   2.669337939369819E-007  rzold =   6.591913627284766E-008  alpha = 
  0.246949385091383     
 delta_qm =   0.464670E-05 delta_en =   0.373106E-04 tol =   0.100000E-04
 Iteration #         36
  pAp =   2.541552610789223E-007  rzold =   5.458627908658730E-008  alpha = 
  0.214775326132780     
 delta_qm =   0.464388E-05 delta_en =   0.372654E-04 tol =   0.100000E-04
 Iteration #         37
  pAp =   1.385558044858205E-007  rzold =   3.430930327602501E-008  alpha = 
  0.247620829768529     
 delta_qm =   0.343834E-05 delta_en =   0.204288E-04 tol =   0.100000E-04
 Iteration #         38
  pAp =   1.335269908898366E-007  rzold =   2.873787751206163E-008  alpha = 
  0.215221486836105     
 delta_qm =   0.343546E-05 delta_en =   0.203945E-04 tol =   0.100000E-04
 Iteration #         39
  pAp =   7.347790708241775E-008  rzold =   1.823279155385016E-008  alpha = 
  0.248139778034220     
 delta_qm =   0.254889E-05 delta_en =   0.112265E-04 tol =   0.100000E-04
 Iteration #         40
  pAp =   7.147349466721125E-008  rzold =   1.540709668919719E-008  alpha = 
  0.215563780124848     
 delta_qm =   0.254767E-05 delta_en =   0.112158E-04 tol =   0.100000E-04
 Iteration #         41
  pAp =   3.961307665756710E-008  rzold =   9.845314746586729E-009  alpha = 
  0.248536987714788     
 delta_qm =   0.189312E-05 delta_en =   0.619298E-05 tol =   0.100000E-04
 Charges are converged, EXIT

%%%% DENSITY %%%%%%%%%%%%%%%%%%%%%%%%%%%%%%%%%%%%%%%%%%%%%%%%%%%%%%%%%%%%%%%%%%%
 density label              = velectrostatic                                                                  
 integral of density        =     0.1146210698E-11

%%%% CHARGES %%%%%%%%%%%%%%%%%%%%%%%%%%%%%%%%%%%%%%%%%%%%%%%%%%%%%%%%%%%%%%%%%%%
 total number of charges    =         34
 total charge               =     -1.0000000

%%%% DENSITY %%%%%%%%%%%%%%%%%%%%%%%%%%%%%%%%%%%%%%%%%%%%%%%%%%%%%%%%%%%%%%%%%%%
 density label              = vsoftcavity                                                                     
 integral of density        =      71.22744381    

%%%% ELECTRONS %%%%%%%%%%%%%%%%%%%%%%%%%%%%%%%%%%%%%%%%%%%%%%%%%%%%%%%%%%%%%%%%%
 number of electrons        =         24
 total electronic charge    =     24.0000000
 number of spin components  =  1

%%%% BOUNDARY %%%%%%%%%%%%%%%%%%%%%%%%%%%%%%%%%%%%%%%%%%%%%%%%%%%%%%%%%%%%%%%%%%
 boundary label             = solvent              
 boundary mode              = electronic           
 boundary is built as a function of a smooth density
 function type              =  2 
 using the modified SCCS function with parameters 
 rhomax                     =      0.0050000 
 rhomin                     =      0.0001000 
 volume of the QM region    =    837.6757710 
 surface of the QM region   =    448.9929608 

%%%% DIELECTRIC %%%%%%%%%%%%%%%%%%%%%%%%%%%%%%%%%%%%%%%%%%%%%%%%%%%%%%%%%%%%%%%%%
 dielectric build on homogeneous background
 environment bulk permitt.  =    100.0000000 
 dielectric flags
 need gradient              =  F 
 need factor depend. sqrt   =  T 
 total dielectric charge    =      0.9813672

%%%% DENSITY %%%%%%%%%%%%%%%%%%%%%%%%%%%%%%%%%%%%%%%%%%%%%%%%%%%%%%%%%%%%%%%%%%%
 density label              = vreference                                                                      
 integral of density        =    -0.2938883704E-12

%%%% COMPUTE ELECTROSTATIC POTENTIAL %%%%%%%%%%%%%%%%%%%%%%%%%%%%%%%%%%%%%%%%%%%
 Warning: bad guess with residual norm =   0.739952E+03, reset to no guess
 Iteration #          1
  pAp =    95.4532966094098       rzold =    92.7270418819565       alpha = 
  0.971438862519238     
 delta_qm =   0.202002E-01 delta_en =   0.705105E+03 tol =   0.100000E-04
 Iteration #          2
  pAp =    172.617733752234       rzold =    19.5453957354400       alpha = 
  0.113229361263046     
 delta_qm =   0.430270E-02 delta_en =   0.319909E+02 tol =   0.100000E-04
 Iteration #          3
  pAp =    1.16214989285502       rzold =   0.247084785916365       alpha = 
  0.212610083635046     
 delta_qm =   0.230204E-02 delta_en =   0.915733E+01 tol =   0.100000E-04
 Iteration #          4
  pAp =   0.449525510056335       rzold =   8.774100217175290E-002  alpha = 
  0.195185813060436     
 delta_qm =   0.233867E-02 delta_en =   0.945112E+01 tol =   0.100000E-04
 Iteration #          5
  pAp =   0.250267041796623       rzold =   5.069138737221046E-002  alpha = 
  0.202549193087136     
 delta_qm =   0.138266E-02 delta_en =   0.330350E+01 tol =   0.100000E-04
 Iteration #          6
  pAp =   0.174982251151781       rzold =   3.369925270077383E-002  alpha = 
  0.192586690815532     
 delta_qm =   0.158809E-02 delta_en =   0.435807E+01 tol =   0.100000E-04
 Iteration #          7
  pAp =   0.103121871088793       rzold =   2.069799029565133E-002  alpha = 
  0.200713874536173     
 delta_qm =   0.918562E-03 delta_en =   0.145801E+01 tol =   0.100000E-04
 Iteration #          8
  pAp =   7.304733348124380E-002  rzold =   1.399568868519395E-002  alpha = 
  0.191597530234113     
 delta_qm =   0.110882E-02 delta_en =   0.212455E+01 tol =   0.100000E-04
 Iteration #          9
  pAp =   4.343283075553353E-002  rzold =   8.694219350363368E-003  alpha = 
  0.200176207701030     
 delta_qm =   0.648092E-03 delta_en =   0.725801E+00 tol =   0.100000E-04
 Iteration #         10
  pAp =   3.097000386762385E-002  rzold =   5.928647202141391E-003  alpha = 
  0.191431916750234     
 delta_qm =   0.793848E-03 delta_en =   0.108898E+01 tol =   0.100000E-04
 Iteration #         11
  pAp =   1.853901502090234E-002  rzold =   3.711983575730289E-003  alpha = 
  0.200225501276368     
 delta_qm =   0.478079E-03 delta_en =   0.394951E+00 tol =   0.100000E-04
 Iteration #         12
  pAp =   1.331158067991564E-002  rzold =   2.550761834965199E-003  alpha = 
  0.191619755482064     
 delta_qm =   0.581571E-03 delta_en =   0.584453E+00 tol =   0.100000E-04
 Iteration #         13
  pAp =   8.029004934408075E-003  rzold =   1.610194360223607E-003  alpha = 
  0.200547187774560     
 delta_qm =   0.364114E-03 delta_en =   0.229097E+00 tol =   0.100000E-04
 Iteration #         14
  pAp =   5.815754539261471E-003  rzold =   1.116643005091644E-003  alpha = 
  0.192003118005294     
 delta_qm =   0.434655E-03 delta_en =   0.326463E+00 tol =   0.100000E-04
 Iteration #         15
  pAp =   3.541889686510226E-003  rzold =   7.121201893299846E-004  alpha = 
  0.201056569334215     
 delta_qm =   0.283367E-03 delta_en =   0.138753E+00 tol =   0.100000E-04
 Iteration #         16
  pAp =   2.595170780918327E-003  rzold =   4.997001955454334E-004  alpha = 
  0.192550023767072     
 delta_qm =   0.330246E-03 delta_en =   0.188460E+00 tol =   0.100000E-04
 Iteration #         17
  pAp =   1.600546858047186E-003  rzold =   3.229000223340979E-004  alpha = 
  0.201743560777762     
 delta_qm =   0.223498E-03 delta_en =   0.863158E-01 tol =   0.100000E-04
 Iteration #         18
  pAp =   1.190294486398418E-003  rzold =   2.300347150865309E-004  alpha = 
  0.193258658017116     
 delta_qm =   0.254192E-03 delta_en =   0.111652E+00 tol =   0.100000E-04
 Iteration #         19
  pAp =   7.459377696148755E-004  rzold =   1.511293172462782E-004  alpha = 
  0.202603117045951     
 delta_qm =   0.177588E-03 delta_en =   0.544967E-01 tol =   0.100000E-04
 Iteration #         20
  pAp =   5.650449618156444E-004  rzold =   1.096831044439247E-004  alpha = 
  0.194113941112726     
 delta_qm =   0.197584E-03 delta_en =   0.674600E-01 tol =   0.100000E-04
 Iteration #         21
  pAp =   3.609685138743008E-004  rzold =   7.349398575929525E-005  alpha = 
  0.203602206105123     
 delta_qm =   0.141591E-03 delta_en =   0.346428E-01 tol =   0.100000E-04
 Iteration #         22
  pAp =   2.793273822028788E-004  rzold =   5.448779778431977E-005  alpha = 
  0.195067871093084     
 delta_qm =   0.154689E-03 delta_en =   0.413487E-01 tol =   0.100000E-04
 Iteration #         23
  pAp =   1.822989859064170E-004  rzold =   3.731106174533220E-005  alpha = 
  0.204669606689342     
 delta_qm =   0.113002E-03 delta_en =   0.220658E-01 tol =   0.100000E-04
 Iteration #         24
  pAp =   1.443154722711027E-004  rzold =   2.829181763162484E-005  alpha = 
  0.196041472105482     
 delta_qm =   0.121725E-03 delta_en =   0.256037E-01 tol =   0.100000E-04
 Iteration #         25
  pAp =   9.626144660974694E-005  rzold =   1.980197816986184E-005  alpha = 
  0.205710373854456     
 delta_qm =   0.901627E-04 delta_en =   0.140475E-01 tol =   0.100000E-04
 Iteration #         26
  pAp =   7.791313601926845E-005  rzold =   1.534482178490869E-005  alpha = 
  0.196947813538321     
 delta_qm =   0.961250E-04 delta_en =   0.159668E-01 tol =   0.100000E-04
 Iteration #         27
  pAp =   5.303464464647419E-005  rzold =   1.095894772644461E-005  alpha = 
  0.206637525328892     
 delta_qm =   0.718852E-04 delta_en =   0.892942E-02 tol =   0.100000E-04
 Iteration #         28
  pAp =   4.378141768016177E-005  rzold =   8.656534668821049E-006  alpha = 
  0.197721662008754     
 delta_qm =   0.760944E-04 delta_en =   0.100057E-01 tol =   0.100000E-04
 Iteration #         29
  pAp =   3.032185022835427E-005  rzold =   6.288733581453148E-006  alpha = 
  0.207399401226924     
 delta_qm =   0.572680E-04 delta_en =   0.566718E-02 tol =   0.100000E-04
 Iteration #         30
  pAp =   2.544039566953982E-005  rzold =   5.045736968206219E-006  alpha = 
  0.198335632580100     
 delta_qm =   0.603406E-04 delta_en =   0.629163E-02 tol =   0.100000E-04
 Iteration #         31
  pAp =   1.786277184955198E-005  rzold =   3.715206869669101E-006  alpha = 
  0.207986022603893     
 delta_qm =   0.455956E-04 delta_en =   0.359244E-02 tol =   0.100000E-04
 Iteration #         32
  pAp =   1.517506800885541E-005  rzold =   3.016746654328179E-006  alpha = 
  0.198796252680236     
 delta_qm =   0.479076E-04 delta_en =   0.396600E-02 tol =   0.100000E-04
 Iteration #         33
  pAp =   1.076518453331897E-005  rzold =   2.243648687579570E-006  alpha = 
  0.208417113578994     
 delta_qm =   0.362896E-04 delta_en =   0.227567E-02 tol =   0.100000E-04
 Iteration #         34
  pAp =   9.229460777018125E-006  rzold =   1.837855237390341E-006  alpha = 
  0.199129210448210     
 delta_qm =   0.380726E-04 delta_en =   0.250478E-02 tol =   0.100000E-04
 Iteration #         35
  pAp =   6.596146826761563E-006  rzold =   1.376781851862285E-006  alpha = 
  0.208725167589732     
 delta_qm =   0.288799E-04 delta_en =   0.144123E-02 tol =   0.100000E-04
 Iteration #         36
  pAp =   5.692185463161587E-006  rzold =   1.134824776785650E-006  alpha = 
  0.199365390346108     
 delta_qm =   0.302804E-04 delta_en =   0.158441E-02 tol =   0.100000E-04
 Iteration #         37
  pAp =   4.089538499796776E-006  rzold =   8.544808167332407E-007  alpha = 
  0.208943091445576     
 delta_qm =   0.229852E-04 delta_en =   0.912938E-03 tol =   0.100000E-04
 Iteration #         38
  pAp =   3.545378105830776E-006  rzold =   7.074188171689229E-007  alpha = 
  0.199532686233238     
 delta_qm =   0.240997E-04 delta_en =   0.100361E-02 tol =   0.100000E-04
 Iteration #         39
  pAp =   2.556634900989286E-006  rzold =   5.345881085053862E-007  alpha = 
  0.209098337935748     
 delta_qm =   0.182983E-04 delta_en =   0.578585E-03 tol =   0.100000E-04
 Iteration #         40
  pAp =   2.223700485449746E-006  rzold =   4.439685035038508E-007  alpha = 
  0.199653013707940     
 delta_qm =   0.191929E-04 delta_en =   0.636536E-03 tol =   0.100000E-04
 Iteration #         41
  pAp =   1.607815429846353E-006  rzold =   3.363735310399848E-007  alpha = 
  0.209211533112435     
 delta_qm =   0.145726E-04 delta_en =   0.366959E-03 tol =   0.100000E-04
 Iteration #         42
  pAp =   1.401760269228495E-006  rzold =   2.799907729036116E-007  alpha = 
  0.199742266241940     
 delta_qm =   0.152946E-04 delta_en =   0.404224E-03 tol =   0.100000E-04
 Iteration #         43
  pAp =   1.015511488664632E-006  rzold =   2.125437456596989E-007  alpha = 
  0.209297233987168     
 delta_qm =   0.116109E-04 delta_en =   0.232956E-03 tol =   0.100000E-04
 Iteration #         44
  pAp =   8.869470607906153E-007  rzold =   1.772221482905202E-007  alpha = 
  0.199811416176909     
 delta_qm =   0.121958E-04 delta_en =   0.257017E-03 tol =   0.100000E-04
 Iteration #         45
  pAp =   6.435231045216787E-007  rzold =   1.347314192144604E-007  alpha = 
  0.209365317682889     
 delta_qm =   0.925604E-05 delta_en =   0.148045E-03 tol =   0.100000E-04
 Iteration #         46
  pAp =   5.628452367032967E-007  rzold =   1.124946403846084E-007  alpha = 
  0.199867802104026     
 delta_qm =   0.973087E-05 delta_en =   0.163624E-03 tol =   0.100000E-04
 Iteration #         47
  pAp =   4.088710053056619E-007  rzold =   8.562671200276640E-008  alpha = 
  0.209422313863400     
 delta_qm =   0.738317E-05 delta_en =   0.941954E-04 tol =   0.100000E-04
 Iteration #         48
  pAp =   3.580306812889398E-007  rzold =   7.157614296577305E-008  alpha = 
  0.199916227034211     
 delta_qm =   0.776914E-05 delta_en =   0.104301E-03 tol =   0.100000E-04
 Iteration #         49
  pAp =   2.603578475064906E-007  rzold =   5.453779869243433E-008  alpha = 
  0.209472459596497     
 delta_qm =   0.589301E-05 delta_en =   0.600092E-04 tol =   0.100000E-04
 Iteration #         50
  pAp =   2.282180378467518E-007  rzold =   4.563442932031899E-008  alpha = 
  0.199959782981582     
 delta_qm =   0.620695E-05 delta_en =   0.665734E-04 tol =   0.100000E-04
 Iteration #         51
  pAp =   1.661138399418315E-007  rzold =   3.480391631278528E-008  alpha = 
  0.209518462308575     
 delta_qm =   0.470677E-05 delta_en =   0.382815E-04 tol =   0.100000E-04
 Iteration #         52
  pAp =   1.457443801962656E-007  rzold =   2.914893880440852E-008  alpha = 
  0.200000430652320     
 delta_qm =   0.496221E-05 delta_en =   0.425495E-04 tol =   0.100000E-04
 Iteration #         53
  pAp =   1.061755435718898E-007  rzold =   2.225036191504134E-008  alpha = 
  0.209562024987195     
 delta_qm =   0.376195E-05 delta_en =   0.244552E-04 tol =   0.100000E-04
 Iteration #         54
  pAp =   9.323829339253200E-008  rzold =   1.865133151905083E-008  alpha = 
  0.200039391975237     
 delta_qm =   0.396981E-05 delta_en =   0.272322E-04 tol =   0.100000E-04
 Iteration #         55
  pAp =   6.798093432105465E-008  rzold =   1.424908917868242E-008  alpha = 
  0.209604197426708     
 delta_qm =   0.300898E-05 delta_en =   0.156452E-04 tol =   0.100000E-04
 Iteration #         56
  pAp =   5.974858638395111E-008  rzold =   1.195434241771756E-008  alpha = 
  0.200077410047789     
 delta_qm =   0.317810E-05 delta_en =   0.174533E-04 tol =   0.100000E-04
 Iteration #         57
  pAp =   4.359846126582304E-008  rzold =   9.140225881227808E-009  alpha = 
  0.209645607112122     
 delta_qm =   0.240851E-05 delta_en =   0.100240E-04 tol =   0.100000E-04
 Iteration #         58
  pAp =   3.835085532188965E-008  rzold =   7.674578306740192E-009  alpha = 
  0.200114919010939     
 delta_qm =   0.254609E-05 delta_en =   0.112019E-04 tol =   0.100000E-04
 Iteration #         59
  pAp =   2.800684163828951E-008  rzold =   5.872659664758909E-009  alpha = 
  0.209686609457959     
 delta_qm =   0.192935E-05 delta_en =   0.643229E-05 tol =   0.100000E-04
 Charges are converged, EXIT

%%%% DENSITY %%%%%%%%%%%%%%%%%%%%%%%%%%%%%%%%%%%%%%%%%%%%%%%%%%%%%%%%%%%%%%%%%%%
 density label              = velectrostatic                                                                  
 integral of density        =    -0.1320556833E-11

%%%% CHARGES %%%%%%%%%%%%%%%%%%%%%%%%%%%%%%%%%%%%%%%%%%%%%%%%%%%%%%%%%%%%%%%%%%%
 total number of charges    =         34
 total charge               =     -1.0000000

%%%% DENSITY %%%%%%%%%%%%%%%%%%%%%%%%%%%%%%%%%%%%%%%%%%%%%%%%%%%%%%%%%%%%%%%%%%%
 density label              = vsoftcavity                                                                     
 integral of density        =      49.60206136    

%%%% ELECTRONS %%%%%%%%%%%%%%%%%%%%%%%%%%%%%%%%%%%%%%%%%%%%%%%%%%%%%%%%%%%%%%%%%
 number of electrons        =         24
 total electronic charge    =     24.0000000
 number of spin components  =  1

%%%% BOUNDARY %%%%%%%%%%%%%%%%%%%%%%%%%%%%%%%%%%%%%%%%%%%%%%%%%%%%%%%%%%%%%%%%%%
 boundary label             = solvent              
 boundary mode              = electronic           
 boundary is built as a function of a smooth density
 function type              =  2 
 using the modified SCCS function with parameters 
 rhomax                     =      0.0050000 
 rhomin                     =      0.0001000 
 volume of the QM region    =    757.1451779 
 surface of the QM region   =    424.1890029 

%%%% DIELECTRIC %%%%%%%%%%%%%%%%%%%%%%%%%%%%%%%%%%%%%%%%%%%%%%%%%%%%%%%%%%%%%%%%%
 dielectric build on homogeneous background
 environment bulk permitt.  =    100.0000000 
 dielectric flags
 need gradient              =  F 
 need factor depend. sqrt   =  T 
 total dielectric charge    =      0.9822880

%%%% DENSITY %%%%%%%%%%%%%%%%%%%%%%%%%%%%%%%%%%%%%%%%%%%%%%%%%%%%%%%%%%%%%%%%%%%
 density label              = vreference                                                                      
 integral of density        =    -0.9560089346E-12

%%%% COMPUTE ELECTROSTATIC POTENTIAL %%%%%%%%%%%%%%%%%%%%%%%%%%%%%%%%%%%%%%%%%%%
 Warning: bad guess with residual norm =   0.919184E+03, reset to no guess
 Iteration #          1
  pAp =    95.9547386894175       rzold =    93.3874449793496       alpha = 
  0.973244742832580     
 delta_qm =   0.225243E-01 delta_en =   0.876692E+03 tol =   0.100000E-04
 Iteration #          2
  pAp =    216.526750223087       rzold =    21.4226543344148       alpha = 
  9.893768004342708E-002
 delta_qm =   0.444864E-02 delta_en =   0.341979E+02 tol =   0.100000E-04
 Iteration #          3
  pAp =    1.24400163316257       rzold =   0.263898953877318       alpha = 
  0.212137144230606     
 delta_qm =   0.216501E-02 delta_en =   0.809957E+01 tol =   0.100000E-04
 Iteration #          4
  pAp =   0.416505672189148       rzold =   7.849366765042991E-002  alpha = 
  0.188457619887548     
 delta_qm =   0.236535E-02 delta_en =   0.966797E+01 tol =   0.100000E-04
 Iteration #          5
  pAp =   0.295343730298741       rzold =   5.089842402772644E-002  alpha = 
  0.172336226593476     
 delta_qm =   0.133007E-02 delta_en =   0.305696E+01 tol =   0.100000E-04
 Iteration #          6
  pAp =   0.173353187683647       rzold =   3.169857555527310E-002  alpha = 
  0.182855452379220     
 delta_qm =   0.166578E-02 delta_en =   0.479487E+01 tol =   0.100000E-04
 Iteration #          7
  pAp =   0.133349512263553       rzold =   2.280618232666783E-002  alpha = 
  0.171025614863844     
 delta_qm =   0.945699E-03 delta_en =   0.154543E+01 tol =   0.100000E-04
 Iteration #          8
  pAp =   7.977993971641695E-002  rzold =   1.452255410383549E-002  alpha = 
  0.182032653264177     
 delta_qm =   0.120917E-02 delta_en =   0.252648E+01 tol =   0.100000E-04
 Iteration #          9
  pAp =   6.187287281227182E-002  rzold =   1.055987656815710E-002  alpha = 
  0.170670539255495     
 delta_qm =   0.708993E-03 delta_en =   0.868615E+00 tol =   0.100000E-04
 Iteration #         10
  pAp =   3.729791658065751E-002  rzold =   6.785122501378612E-003  alpha = 
  0.181916930579906     
 delta_qm =   0.902388E-03 delta_en =   0.140712E+01 tol =   0.100000E-04
 Iteration #         11
  pAp =   2.912674058123065E-002  rzold =   4.973160307506166E-003  alpha = 
  0.170742081271905     
 delta_qm =   0.552840E-03 delta_en =   0.528132E+00 tol =   0.100000E-04
 Iteration #         12
  pAp =   1.768906093778990E-002  rzold =   3.221882489294635E-003  alpha = 
  0.182139826451250     
 delta_qm =   0.690487E-03 delta_en =   0.823863E+00 tol =   0.100000E-04
 Iteration #         13
  pAp =   1.393075661535310E-002  rzold =   2.382663865365996E-003  alpha = 
  0.171036213692805     
 delta_qm =   0.443582E-03 delta_en =   0.340010E+00 tol =   0.100000E-04
 Iteration #         14
  pAp =   8.538638228913979E-003  rzold =   1.558905618877466E-003  alpha = 
  0.182570753917014     
 delta_qm =   0.539875E-03 delta_en =   0.503652E+00 tol =   0.100000E-04
 Iteration #         15
  pAp =   6.799473398751977E-003  rzold =   1.166078604092725E-003  alpha = 
  0.171495428499912     
 delta_qm =   0.362964E-03 delta_en =   0.227652E+00 tol =   0.100000E-04
 Iteration #         16
  pAp =   4.218113962305195E-003  rzold =   7.726826107528131E-004  alpha = 
  0.183182013965915     
 delta_qm =   0.429700E-03 delta_en =   0.319062E+00 tol =   0.100000E-04
 Iteration #         17
  pAp =   3.408141601701732E-003  rzold =   5.865781155423092E-004  alpha = 
  0.172110840479581     
 delta_qm =   0.300703E-03 delta_en =   0.156249E+00 tol =   0.100000E-04
 Iteration #         18
  pAp =   2.147269043855892E-003  rzold =   3.950276640197050E-004  alpha = 
  0.183967474942193     
 delta_qm =   0.346859E-03 delta_en =   0.207898E+00 tol =   0.100000E-04
 Iteration #         19
  pAp =   1.767013983499397E-003  rzold =   3.054659561265893E-004  alpha = 
  0.172871272654925     
 delta_qm =   0.250890E-03 delta_en =   0.108771E+00 tol =   0.100000E-04
 Iteration #         20
  pAp =   1.134575166098116E-003  rzold =   2.097842076677735E-004  alpha = 
  0.184901110068570     
 delta_qm =   0.283004E-03 delta_en =   0.138398E+00 tol =   0.100000E-04
 Iteration #         21
  pAp =   9.540903375522867E-004  rzold =   1.657616059362421E-004  alpha = 
  0.173737852079608     
 delta_qm =   0.210060E-03 delta_en =   0.762486E-01 tol =   0.100000E-04
 Iteration #         22
  pAp =   6.259339877080827E-004  rzold =   1.163734658628415E-004  alpha = 
  0.185919710621489     
 delta_qm =   0.232729E-03 delta_en =   0.935935E-01 tol =   0.100000E-04
 Iteration #         23
  pAp =   5.389188552861962E-004  rzold =   9.411671162020741E-005  alpha = 
  0.174639856625959     
 delta_qm =   0.176102E-03 delta_en =   0.535888E-01 tol =   0.100000E-04
 Iteration #         24
  pAp =   3.615609783659116E-004  rzold =   6.758702955095051E-005  alpha = 
  0.186931205508992     
 delta_qm =   0.192461E-03 delta_en =   0.640073E-01 tol =   0.100000E-04
 Iteration #         25
  pAp =   3.186647011977622E-004  rzold =   5.592341886222343E-005  alpha = 
  0.175492982599028     
 delta_qm =   0.147651E-03 delta_en =   0.376717E-01 tol =   0.100000E-04
 Iteration #         26
  pAp =   2.183640133773322E-004  rzold =   4.101846286080728E-005  alpha = 
  0.187844426498644     
 delta_qm =   0.159780E-03 delta_en =   0.441151E-01 tol =   0.100000E-04
 Iteration #         27
  pAp =   1.965614175417858E-004  rzold =   3.463976115054390E-005  alpha = 
  0.176228690165912     
 delta_qm =   0.123748E-03 delta_en =   0.264619E-01 tol =   0.100000E-04
 Iteration #         28
  pAp =   1.371726177176237E-004  rzold =   2.587072708608664E-005  alpha = 
  0.188599791390894     
 delta_qm =   0.132999E-03 delta_en =   0.305659E-01 tol =   0.100000E-04
 Iteration #         29
  pAp =   1.256496571744393E-004  rzold =   2.221659131863048E-005  alpha = 
  0.176813783803542     
 delta_qm =   0.103663E-03 delta_en =   0.185690E-01 tol =   0.100000E-04
 Iteration #         30
  pAp =   8.896699788399121E-005  rzold =   1.683080908057788E-005  alpha = 
  0.189180364414729     
 delta_qm =   0.110903E-03 delta_en =   0.212535E-01 tol =   0.100000E-04
 Iteration #         31
  pAp =   8.259305404866894E-005  rzold =   1.463960532369005E-005  alpha = 
  0.177249836470068     
 delta_qm =   0.867996E-04 delta_en =   0.130191E-01 tol =   0.100000E-04
 Iteration #         32
  pAp =   5.911581452188908E-005  rzold =   1.120848153443580E-005  alpha = 
  0.189602082371471     
 delta_qm =   0.925890E-04 delta_en =   0.148137E-01 tol =   0.100000E-04
 Iteration #         33
  pAp =   5.541716860714325E-005  rzold =   9.839849986101357E-006  alpha = 
  0.177559594497814     
 delta_qm =   0.726574E-04 delta_en =   0.912229E-02 tol =   0.100000E-04
 Iteration #         34
  pAp =   3.997021780232949E-005  rzold =   7.590199709154998E-006  alpha = 
  0.189896381017785     
 delta_qm =   0.773625E-04 delta_en =   0.103420E-01 tol =   0.100000E-04
 Iteration #         35
  pAp =   3.772460983988911E-005  rzold =   6.706401813294750E-006  alpha = 
  0.177772595707632     
 delta_qm =   0.608085E-04 delta_en =   0.638957E-02 tol =   0.100000E-04
 Iteration #         36
  pAp =   2.735311991756530E-005  rzold =   5.199733183237616E-006  alpha = 
  0.190096530081693     
 delta_qm =   0.646771E-04 delta_en =   0.722843E-02 tol =   0.100000E-04
 Iteration #         37
  pAp =   2.593572130452297E-005  rzold =   4.614385870818140E-006  alpha = 
  0.177916234394971     
 delta_qm =   0.508880E-04 delta_en =   0.447480E-02 tol =   0.100000E-04
 Iteration #         38
  pAp =   1.887223929685280E-005  rzold =   3.590080618963173E-006  alpha = 
  0.190230770312555     
 delta_qm =   0.540942E-04 delta_en =   0.505645E-02 tol =   0.100000E-04
 Iteration #         39
  pAp =   1.794969868834755E-005  rzold =   3.195266566932882E-006  alpha = 
  0.178012267638072     
 delta_qm =   0.425860E-04 delta_en =   0.313384E-02 tol =   0.100000E-04
 Iteration #         40
  pAp =   1.309220141708501E-005  rzold =   2.491713916357924E-006  alpha = 
  0.190320469184525     
 delta_qm =   0.452575E-04 delta_en =   0.353936E-02 tol =   0.100000E-04
 Iteration #         41
  pAp =   1.247791648187735E-005  rzold =   2.222024176632993E-006  alpha = 
  0.178076538648116     
 delta_qm =   0.356404E-04 delta_en =   0.219497E-02 tol =   0.100000E-04
 Iteration #         42
  pAp =   9.115616533144092E-006  rzold =   1.735437863157331E-006  alpha = 
  0.190380744609795     
 delta_qm =   0.378741E-04 delta_en =   0.247872E-02 tol =   0.100000E-04
 Iteration #         43
  pAp =   8.699937546849074E-006  rzold =   1.549632874235884E-006  alpha = 
  0.178119999815071     
 delta_qm =   0.298304E-04 delta_en =   0.153767E-02 tol =   0.100000E-04
 Iteration #         44
  pAp =   6.362452427475810E-006  rzold =   1.211550055824608E-006  alpha = 
  0.190421864781670     
 delta_qm =   0.317022E-04 delta_en =   0.173669E-02 tol =   0.100000E-04
 Iteration #         45
  pAp =   6.078036624779053E-006  rzold =   1.082802128892057E-006  alpha = 
  0.178149984236302     
 delta_qm =   0.249706E-04 delta_en =   0.107746E-02 tol =   0.100000E-04
 Iteration #         46
  pAp =   4.448269608126692E-006  rzold =   8.471757488059462E-007  alpha = 
  0.190450629893973     
 delta_qm =   0.265413E-04 delta_en =   0.121727E-02 tol =   0.100000E-04
 Iteration #         47
  pAp =   4.252210018472783E-006  rzold =   7.576218093813067E-007  alpha = 
  0.178171305295361     
 delta_qm =   0.209053E-04 delta_en =   0.755193E-03 tol =   0.100000E-04
 Iteration #         48
  pAp =   3.113641628921258E-006  rzold =   5.930599087942652E-007  alpha = 
  0.190471473430208     
 delta_qm =   0.222246E-04 delta_en =   0.853514E-03 tol =   0.100000E-04
 Iteration #         49
  pAp =   2.977814737190702E-006  rzold =   5.306081247779896E-007  alpha = 
  0.178187084022081     
 delta_qm =   0.175045E-04 delta_en =   0.529474E-03 tol =   0.100000E-04
 Iteration #         50
  pAp =   2.181313418621465E-006  rzold =   4.155124126835343E-007  alpha = 
  0.190487258335452     
 delta_qm =   0.186132E-04 delta_en =   0.598667E-03 tol =   0.100000E-04
 Iteration #         51
  pAp =   2.086901088548507E-006  rzold =   3.718843743166979E-007  alpha = 
  0.178199329310501     
 delta_qm =   0.146593E-04 delta_en =   0.371337E-03 tol =   0.100000E-04
 Iteration #         52
  pAp =   1.529152174094408E-006  rzold =   2.913032186759130E-007  alpha = 
  0.190499823111737     
 delta_qm =   0.155913E-04 delta_en =   0.420056E-03 tol =   0.100000E-04
 Iteration #         53
  pAp =   1.463379505197734E-006  rzold =   2.607878796878938E-007  alpha = 
  0.178209328996073     
 delta_qm =   0.122785E-04 delta_en =   0.260515E-03 tol =   0.100000E-04
 Iteration #         54
  pAp =   1.072531554772117E-006  rzold =   2.043283566483170E-007  alpha = 
  0.190510345116821     
 delta_qm =   0.130622E-04 delta_en =   0.294831E-03 tol =   0.100000E-04
 Iteration #         55
  pAp =   1.026640339666326E-006  rzold =   1.829656928959036E-007  alpha = 
  0.178217907310529     
 delta_qm =   0.102861E-04 delta_en =   0.182827E-03 tol =   0.100000E-04
 Iteration #         56
  pAp =   7.525933802663784E-007  rzold =   1.433837730910909E-007  alpha = 
  0.190519577836760     
 delta_qm =   0.109451E-04 delta_en =   0.207006E-03 tol =   0.100000E-04
 Iteration #         57
  pAp =   7.205393257281923E-007  rzold =   1.284185478472027E-007  alpha = 
  0.178225591944507     
 delta_qm =   0.861841E-05 delta_en =   0.128351E-03 tol =   0.100000E-04
 Iteration #         58
  pAp =   5.282981390971568E-007  rzold =   1.006555900086650E-007  alpha = 
  0.190528004093828     
 delta_qm =   0.917266E-05 delta_en =   0.145390E-03 tol =   0.100000E-04
 Iteration #         59
  pAp =   5.058914279600846E-007  rzold =   9.016640598166254E-008  alpha = 
  0.178232721485798     
 delta_qm =   0.722236E-05 delta_en =   0.901369E-04 tol =   0.100000E-04
 Iteration #         60
  pAp =   3.709813167492336E-007  rzold =   7.068527178348839E-008  alpha = 
  0.190535934269888     
 delta_qm =   0.768851E-05 delta_en =   0.102148E-03 tol =   0.100000E-04
 Iteration #         61
  pAp =   3.553090133272109E-007  rzold =   6.333010589931510E-008  alpha = 
  0.178239514123986     
 delta_qm =   0.605351E-05 delta_en =   0.633225E-04 tol =   0.100000E-04
 Iteration #         62
  pAp =   2.605977211275535E-007  rzold =   4.965521985575240E-008  alpha = 
  0.190543568995555     
 delta_qm =   0.644556E-05 delta_en =   0.717902E-04 tol =   0.100000E-04
 Iteration #         63
  pAp =   2.496305614107855E-007  rzold =   4.449567686541294E-008  alpha = 
  0.178246111429410     
 delta_qm =   0.507470E-05 delta_en =   0.445004E-04 tol =   0.100000E-04
 Iteration #         64
  pAp =   1.831174271421821E-007  rzold =   3.489321600957145E-008  alpha = 
  0.190551039047084     
 delta_qm =   0.540444E-05 delta_en =   0.504714E-04 tol =   0.100000E-04
 Iteration #         65
  pAp =   1.754397839032832E-007  rzold =   3.127259870968104E-008  alpha = 
  0.178252606187209     
 delta_qm =   0.425490E-05 delta_en =   0.312841E-04 tol =   0.100000E-04
 Iteration #         66
  pAp =   1.287141820875761E-007  rzold =   2.452757254657735E-008  alpha = 
  0.190558430693278     
 delta_qm =   0.453224E-05 delta_en =   0.354951E-04 tol =   0.100000E-04
 Iteration #         67
  pAp =   1.233375296883650E-007  rzold =   2.198603211359777E-008  alpha = 
  0.178259060069952     
 delta_qm =   0.356817E-05 delta_en =   0.220007E-04 tol =   0.100000E-04
 Iteration #         68
  pAp =   9.050227029949838E-008  rzold =   1.724663770272986E-008  alpha = 
  0.190565801782162     
 delta_qm =   0.380143E-05 delta_en =   0.249711E-04 tol =   0.100000E-04
 Iteration #         69
  pAp =   8.673582311729618E-008  rzold =   1.546200616396292E-008  alpha = 
  0.178265514850226     
 delta_qm =   0.299281E-05 delta_en =   0.154776E-04 tol =   0.100000E-04
 Iteration #         70
  pAp =   6.365442588816774E-008  rzold =   1.213082712296317E-008  alpha = 
  0.190573191945449     
 delta_qm =   0.318899E-05 delta_en =   0.175732E-04 tol =   0.100000E-04
 Iteration #         71
  pAp =   6.101518921618702E-008  rzold =   1.087729978220503E-008  alpha = 
  0.178271999512530     
 delta_qm =   0.251068E-05 delta_en =   0.108925E-04 tol =   0.100000E-04
 Iteration #         72
  pAp =   4.478516797041478E-008  rzold =   8.535185484853798E-009  alpha = 
  0.190580629071039     
 delta_qm =   0.267567E-05 delta_en =   0.123711E-04 tol =   0.100000E-04
 Iteration #         73
  pAp =   4.293528073370350E-008  rzold =   7.654438938908410E-009  alpha = 
  0.178278534764530     
 delta_qm =   0.210659E-05 delta_en =   0.766842E-05 tol =   0.100000E-04
 Charges are converged, EXIT

%%%% DENSITY %%%%%%%%%%%%%%%%%%%%%%%%%%%%%%%%%%%%%%%%%%%%%%%%%%%%%%%%%%%%%%%%%%%
 density label              = velectrostatic                                                                  
 integral of density        =    -0.8340324316E-12

%%%% CHARGES %%%%%%%%%%%%%%%%%%%%%%%%%%%%%%%%%%%%%%%%%%%%%%%%%%%%%%%%%%%%%%%%%%%
 total number of charges    =         34
 total charge               =     -1.0000000

%%%% DENSITY %%%%%%%%%%%%%%%%%%%%%%%%%%%%%%%%%%%%%%%%%%%%%%%%%%%%%%%%%%%%%%%%%%%
 density label              = vsoftcavity                                                                     
 integral of density        =      37.81274370    

%%%% ELECTRONS %%%%%%%%%%%%%%%%%%%%%%%%%%%%%%%%%%%%%%%%%%%%%%%%%%%%%%%%%%%%%%%%%
 number of electrons        =         24
 total electronic charge    =     24.0000000
 number of spin components  =  1

%%%% BOUNDARY %%%%%%%%%%%%%%%%%%%%%%%%%%%%%%%%%%%%%%%%%%%%%%%%%%%%%%%%%%%%%%%%%%
 boundary label             = solvent              
 boundary mode              = electronic           
 boundary is built as a function of a smooth density
 function type              =  2 
 using the modified SCCS function with parameters 
 rhomax                     =      0.0050000 
 rhomin                     =      0.0001000 
 volume of the QM region    =    717.0746160 
 surface of the QM region   =    412.4200185 

%%%% DIELECTRIC %%%%%%%%%%%%%%%%%%%%%%%%%%%%%%%%%%%%%%%%%%%%%%%%%%%%%%%%%%%%%%%%%
 dielectric build on homogeneous background
 environment bulk permitt.  =    100.0000000 
 dielectric flags
 need gradient              =  F 
 need factor depend. sqrt   =  T 
 total dielectric charge    =      0.9824173

%%%% DENSITY %%%%%%%%%%%%%%%%%%%%%%%%%%%%%%%%%%%%%%%%%%%%%%%%%%%%%%%%%%%%%%%%%%%
 density label              = vreference                                                                      
 integral of density        =    -0.6008033577E-12

%%%% COMPUTE ELECTROSTATIC POTENTIAL %%%%%%%%%%%%%%%%%%%%%%%%%%%%%%%%%%%%%%%%%%%
 Warning: bad guess with residual norm =   0.139383E+04, reset to no guess
 Iteration #          1
  pAp =    95.8691351092208       rzold =    93.2740062633162       alpha = 
  0.972930507373953     
 delta_qm =   0.276969E-01 delta_en =   0.132558E+04 tol =   0.100000E-04
 Iteration #          2
  pAp =    257.399232652179       rzold =    23.5292412380219       alpha = 
  9.141146613213386E-002
 delta_qm =   0.522812E-02 delta_en =   0.472319E+02 tol =   0.100000E-04
 Iteration #          3
  pAp =    1.74826713903477       rzold =   0.328895873415718       alpha = 
  0.188126783414406     
 delta_qm =   0.235798E-02 delta_en =   0.960780E+01 tol =   0.100000E-04
 Iteration #          4
  pAp =   0.517674809986436       rzold =   8.894336347349299E-002  alpha = 
  0.171813195770185     
 delta_qm =   0.276252E-02 delta_en =   0.131873E+02 tol =   0.100000E-04
 Iteration #          5
  pAp =   0.364512883179339       rzold =   5.831871404415564E-002  alpha = 
  0.159990817157107     
 delta_qm =   0.149001E-02 delta_en =   0.383636E+01 tol =   0.100000E-04
 Iteration #          6
  pAp =   0.224858457751444       rzold =   3.778971192182637E-002  alpha = 
  0.168059997830273     
 delta_qm =   0.200051E-02 delta_en =   0.691553E+01 tol =   0.100000E-04
 Iteration #          7
  pAp =   0.174063987724965       rzold =   2.768717782947187E-002  alpha = 
  0.159063216874129     
 delta_qm =   0.110022E-02 delta_en =   0.209173E+01 tol =   0.100000E-04
 Iteration #          8
  pAp =   0.109654295535379       rzold =   1.836749094706836E-002  alpha = 
  0.167503615406860     
 delta_qm =   0.149129E-02 delta_en =   0.384296E+01 tol =   0.100000E-04
 Iteration #          9
  pAp =   8.563692270452795E-002  rzold =   1.360282230587330E-002  alpha = 
  0.158842960212465     
 delta_qm =   0.856506E-03 delta_en =   0.126766E+01 tol =   0.100000E-04
 Iteration #         10
  pAp =   5.432684476943692E-002  rzold =   9.097966877004806E-003  alpha = 
  0.167467242311174     
 delta_qm =   0.114309E-02 delta_en =   0.225790E+01 tol =   0.100000E-04
 Iteration #         11
  pAp =   4.269217418370694E-002  rzold =   6.785283385693162E-003  alpha = 
  0.158935062817267     
 delta_qm =   0.692258E-03 delta_en =   0.828095E+00 tol =   0.100000E-04
 Iteration #         12
  pAp =   2.725807038896865E-002  rzold =   4.570317296065685E-003  alpha = 
  0.167668409056398     
 delta_qm =   0.898503E-03 delta_en =   0.139503E+01 tol =   0.100000E-04
 Iteration #         13
  pAp =   2.157607715860937E-002  rzold =   3.434635757173070E-003  alpha = 
  0.159187220731762     
 delta_qm =   0.574688E-03 delta_en =   0.570699E+00 tol =   0.100000E-04
 Iteration #         14
  pAp =   1.388518392057328E-002  rzold =   2.332989898261754E-003  alpha = 
  0.168020093331643     
 delta_qm =   0.721782E-03 delta_en =   0.900234E+00 tol =   0.100000E-04
 Iteration #         15
  pAp =   1.109541005433902E-002  rzold =   1.770462090025116E-003  alpha = 
  0.159567071550704     
 delta_qm =   0.485850E-03 delta_en =   0.407895E+00 tol =   0.100000E-04
 Iteration #         16
  pAp =   7.215179481016317E-003  rzold =   1.215866659113150E-003  alpha = 
  0.168515095475059     
 delta_qm =   0.590368E-03 delta_en =   0.602267E+00 tol =   0.100000E-04
 Iteration #         17
  pAp =   5.838464186344575E-003  rzold =   9.346235117386251E-004  alpha = 
  0.160080370780485     
 delta_qm =   0.415494E-03 delta_en =   0.298313E+00 tol =   0.100000E-04
 Iteration #         18
  pAp =   3.848917933606122E-003  rzold =   6.510956241340237E-004  alpha = 
  0.169163290921093     
 delta_qm =   0.489876E-03 delta_en =   0.414682E+00 tol =   0.100000E-04
 Iteration #         19
  pAp =   3.165487465924441E-003  rzold =   5.087951149899408E-004  alpha = 
  0.160731994824485     
 delta_qm =   0.357673E-03 delta_en =   0.221064E+00 tol =   0.100000E-04
 Iteration #         20
  pAp =   2.123063197327079E-003  rzold =   3.608356169134848E-004  alpha = 
  0.169959903863330     
 delta_qm =   0.411025E-03 delta_en =   0.291932E+00 tol =   0.100000E-04
 Iteration #         21
  pAp =   1.781134208627445E-003  rzold =   2.876603578093644E-004  alpha = 
  0.161504032888705     
 delta_qm =   0.308906E-03 delta_en =   0.164891E+00 tol =   0.100000E-04
 Iteration #         22
  pAp =   1.219178310302934E-003  rzold =   2.083177986950306E-004  alpha = 
  0.170867375948699     
 delta_qm =   0.347746E-03 delta_en =   0.208962E+00 tol =   0.100000E-04
 Iteration #         23
  pAp =   1.046213697246142E-003  rzold =   1.698487027930171E-004  alpha = 
  0.162346089752118     
 delta_qm =   0.267110E-03 delta_en =   0.123289E+00 tol =   0.100000E-04
 Iteration #         24
  pAp =   7.322107937321837E-004  rzold =   1.258038268033569E-004  alpha = 
  0.171813674259180     
 delta_qm =   0.295997E-03 delta_en =   0.151398E+00 tol =   0.100000E-04
 Iteration #         25
  pAp =   6.433112265770972E-004  rzold =   1.049777173526122E-004  alpha = 
  0.163183406437928     
 delta_qm =   0.230985E-03 delta_en =   0.921961E-01 tol =   0.100000E-04
 Iteration #         26
  pAp =   4.602831494907490E-004  rzold =   7.949624649098244E-005  alpha = 
  0.172711615836765     
 delta_qm =   0.253039E-03 delta_en =   0.110642E+00 tol =   0.100000E-04
 Iteration #         27
  pAp =   4.135360464710574E-004  rzold =   6.779564787152098E-005  alpha = 
  0.163941326155387     
 delta_qm =   0.199661E-03 delta_en =   0.688859E-01 tol =   0.100000E-04
 Iteration #         28
  pAp =   3.018521650228925E-004  rzold =   5.236811023196134E-005  alpha = 
  0.173489264945275     
 delta_qm =   0.216969E-03 delta_en =   0.813463E-01 tol =   0.100000E-04
 Iteration #         29
  pAp =   2.764913793401870E-004  rzold =   4.550230284786870E-005  alpha = 
  0.164570421531602     
 delta_qm =   0.172491E-03 delta_en =   0.514133E-01 tol =   0.100000E-04
 Iteration #         30
  pAp =   2.051930841643193E-004  rzold =   3.572631061464627E-005  alpha = 
  0.174110695592628     
 delta_qm =   0.186428E-03 delta_en =   0.600571E-01 tol =   0.100000E-04
 Iteration #         31
  pAp =   1.908791518507603E-004  rzold =   3.150573134903800E-005  alpha = 
  0.165055906019904     
 delta_qm =   0.148948E-03 delta_en =   0.383368E-01 tol =   0.100000E-04
 Iteration #         32
  pAp =   1.434809863731472E-004  rzold =   2.504835961025330E-005  alpha = 
  0.174576159834242     
 delta_qm =   0.160416E-03 delta_en =   0.444671E-01 tol =   0.100000E-04
 Iteration #         33
  pAp =   1.350244666655961E-004  rzold =   2.233440862823126E-005  alpha = 
  0.165410085888693     
 delta_qm =   0.128577E-03 delta_en =   0.285675E-01 tol =   0.100000E-04
 Iteration #         34
  pAp =   1.024469677580473E-004  rzold =   1.791884206031502E-005  alpha = 
  0.174908466814114     
 delta_qm =   0.138171E-03 delta_en =   0.329898E-01 tol =   0.100000E-04
 Iteration #         35
  pAp =   9.720775288343101E-005  rzold =   1.610327585017617E-005  alpha = 
  0.165658348974354     
 delta_qm =   0.110972E-03 delta_en =   0.212799E-01 tol =   0.100000E-04
 Iteration #         36
  pAp =   7.423786752794193E-005  rzold =   1.300187770998308E-005  alpha = 
  0.175138081722099     
 delta_qm =   0.119096E-03 delta_en =   0.245097E-01 tol =   0.100000E-04
 Iteration #         37
  pAp =   7.084381311045817E-005  rzold =   1.174788280053116E-005  alpha = 
  0.165827928858292     
 delta_qm =   0.957707E-04 delta_en =   0.158493E-01 tol =   0.100000E-04
 Iteration #         38
  pAp =   5.434551123492386E-005  rzold =   9.526422100636363E-006  alpha = 
  0.175293632982045     
 delta_qm =   0.102707E-03 delta_en =   0.182284E-01 tol =   0.100000E-04
 Iteration #         39
  pAp =   5.206131890064924E-005  rzold =   8.639166499741826E-006  alpha = 
  0.165942136737417     
 delta_qm =   0.826533E-04 delta_en =   0.118050E-01 tol =   0.100000E-04
 Iteration #         40
  pAp =   4.005717388300854E-005  rzold =   7.025950481503679E-006  alpha = 
  0.175398057337339     
 delta_qm =   0.886091E-04 delta_en =   0.135675E-01 tol =   0.100000E-04
 Iteration #         41
  pAp =   3.847290865038864E-005  rzold =   6.387223113374225E-006  alpha = 
  0.166018721678058     
 delta_qm =   0.713379E-04 delta_en =   0.879396E-02 tol =   0.100000E-04
 Iteration #         42
  pAp =   2.966149383104819E-005  rzold =   5.204647959200605E-006  alpha = 
  0.175468167208512     
 delta_qm =   0.764699E-04 delta_en =   0.101047E-01 tol =   0.100000E-04
 Iteration #         43
  pAp =   2.853781381925115E-005  rzold =   4.739283472120673E-006  alpha = 
  0.166070305950473     
 delta_qm =   0.615786E-04 delta_en =   0.655245E-02 tol =   0.100000E-04
 Iteration #         44
  pAp =   2.203157453065836E-005  rzold =   3.866886047741799E-006  alpha = 
  0.175515646526342     
 delta_qm =   0.660110E-04 delta_en =   0.752967E-02 tol =   0.100000E-04
 Iteration #         45
  pAp =   2.122179240633378E-005  rzold =   3.525056441167912E-006  alpha = 
  0.166105500123347     
 delta_qm =   0.531617E-04 delta_en =   0.488362E-02 tol =   0.100000E-04
 Iteration #         46
  pAp =   1.639858136295431E-005  rzold =   2.878743950033221E-006  alpha = 
  0.175548353014032     
 delta_qm =   0.569953E-04 delta_en =   0.561335E-02 tol =   0.100000E-04
 Iteration #         47
  pAp =   1.580856128838804E-005  rzold =   2.626276738901153E-006  alpha = 
  0.166130028595977     
 delta_qm =   0.459022E-04 delta_en =   0.364092E-02 tol =   0.100000E-04
 Iteration #         48
  pAp =   1.222345580762441E-005  rzold =   2.146090038118060E-006  alpha = 
  0.175571464559101     
 delta_qm =   0.492208E-04 delta_en =   0.418641E-02 tol =   0.100000E-04
 Iteration #         49
  pAp =   1.179033638008509E-005  rzold =   1.958936524683470E-006  alpha = 
  0.166147636635057     
 delta_qm =   0.396403E-04 delta_en =   0.271530E-02 tol =   0.100000E-04
 Iteration #         50
  pAp =   9.120658972038985E-006  rzold =   1.601481464659068E-006  alpha = 
  0.175588350531326     
 delta_qm =   0.425147E-04 delta_en =   0.312335E-02 tol =   0.100000E-04
 Iteration #         51
  pAp =   8.801110263914890E-006  rzold =   1.462399089880680E-006  alpha = 
  0.166160750863060     
 delta_qm =   0.342381E-04 delta_en =   0.202565E-02 tol =   0.100000E-04
 Iteration #         52
  pAp =   6.810586763334614E-006  rzold =   1.195947120239997E-006  alpha = 
  0.175601187063423     
 delta_qm =   0.367284E-04 delta_en =   0.233103E-02 tol =   0.100000E-04
 Iteration #         53
  pAp =   6.574023336583562E-006  rzold =   1.092411602791321E-006  alpha = 
  0.166170934732190     
 delta_qm =   0.295769E-04 delta_en =   0.151164E-02 tol =   0.100000E-04
 Iteration #         54
  pAp =   5.088525133438535E-006  rzold =   8.936028899821257E-007  alpha = 
  0.175611373934254     
 delta_qm =   0.317348E-04 delta_en =   0.174027E-02 tol =   0.100000E-04
 Iteration #         55
  pAp =   4.912986952335054E-006  rzold =   8.164362062123019E-007  alpha = 
  0.166179192848103     
 delta_qm =   0.255544E-04 delta_en =   0.112843E-02 tol =   0.100000E-04
 Iteration #         56
  pAp =   3.803627377759695E-006  rzold =   6.679923180519189E-007  alpha = 
  0.175619810173246     
 delta_qm =   0.274244E-04 delta_en =   0.129963E-02 tol =   0.100000E-04
 Iteration #         57
  pAp =   3.673159852657270E-006  rzold =   6.104283693743741E-007  alpha = 
  0.166186170452879     
 delta_qm =   0.220824E-04 delta_en =   0.842626E-03 tol =   0.100000E-04
 Iteration #         58
  pAp =   2.844259957706197E-006  rzold =   4.995290527637278E-007  alpha = 
  0.175627073541682     
 delta_qm =   0.237030E-04 delta_en =   0.970844E-03 tol =   0.100000E-04
 Iteration #         59
  pAp =   2.747177731822702E-006  rzold =   4.565597380873145E-007  alpha = 
  0.166192282646524     
 delta_qm =   0.190850E-04 delta_en =   0.629403E-03 tol =   0.100000E-04
 Iteration #         60
  pAp =   2.127568227874877E-006  rzold =   3.736723316299350E-007  alpha = 
  0.175633536322912     
 delta_qm =   0.204895E-04 delta_en =   0.725446E-03 tol =   0.100000E-04
 Iteration #         61
  pAp =   2.055265874585715E-006  rzold =   3.415806615814376E-007  alpha = 
  0.166197797474884     
 delta_qm =   0.164970E-04 delta_en =   0.470277E-03 tol =   0.100000E-04
 Iteration #         62
  pAp =   1.591934763549005E-006  rzold =   2.796065297218944E-007  alpha = 
  0.175639439582655     
 delta_qm =   0.177141E-04 delta_en =   0.542227E-03 tol =   0.100000E-04
 Iteration #         63
  pAp =   1.538051437786296E-006  rzold =   2.556285925520827E-007  alpha = 
  0.166202889104936     
 delta_qm =   0.142620E-04 delta_en =   0.351484E-03 tol =   0.100000E-04
 Iteration #         64
  pAp =   1.191472039878411E-006  rzold =   2.092760356927719E-007  alpha = 
  0.175644940618270     
 delta_qm =   0.153167E-04 delta_en =   0.405391E-03 tol =   0.100000E-04
 Iteration #         65
  pAp =   1.151294026332392E-006  rzold =   1.913538996249414E-007  alpha = 
  0.166207671757428     
 delta_qm =   0.123316E-04 delta_en =   0.262774E-03 tol =   0.100000E-04
 Iteration #         66
  pAp =   8.919725941276616E-007  rzold =   1.566751138963557E-007  alpha = 
  0.175650143208247     
 delta_qm =   0.132455E-04 delta_en =   0.303166E-03 tol =   0.100000E-04
 Iteration #         67
  pAp =   8.620005602071225E-007  rzold =   1.432750278937774E-007  alpha = 
  0.166212221323094     
 delta_qm =   0.106639E-04 delta_en =   0.196507E-03 tol =   0.100000E-04
 Iteration #         68
  pAp =   6.679169419281859E-007  rzold =   1.173230284952988E-007  alpha = 
  0.175655116872171     
 delta_qm =   0.114558E-04 delta_en =   0.226776E-03 tol =   0.100000E-04
 Iteration #         69
  pAp =   6.455497562622074E-007  rzold =   1.073010785937718E-007  alpha = 
  0.166216589120961     
 delta_qm =   0.922306E-05 delta_en =   0.146992E-03 tol =   0.100000E-04
 Iteration #         70
  pAp =   5.002559409012722E-007  rzold =   8.787491311916239E-008  alpha = 
  0.175659909127406     
 delta_qm =   0.990922E-05 delta_en =   0.169677E-03 tol =   0.100000E-04
 Iteration #         71
  pAp =   4.835582896366032E-007  rzold =   8.037745090173826E-008  alpha = 
  0.166220810653753     
 delta_qm =   0.797793E-05 delta_en =   0.109983E-03 tol =   0.100000E-04
 Iteration #         72
  pAp =   3.747635633824032E-007  rzold =   6.583267395101071E-008  alpha = 
  0.175664553290193     
 delta_qm =   0.857244E-05 delta_en =   0.126985E-03 tol =   0.100000E-04
 Iteration #         73
  pAp =   3.622944657904686E-007  rzold =   6.022236539783730E-008  alpha = 
  0.166224911182239     
 delta_qm =   0.690179E-05 delta_en =   0.823129E-04 tol =   0.100000E-04
 Iteration #         74
  pAp =   2.808114920003256E-007  rzold =   4.932989461236159E-008  alpha = 
  0.175669073444845     
 delta_qm =   0.741688E-05 delta_en =   0.950574E-04 tol =   0.100000E-04
 Iteration #         75
  pAp =   2.714974043534089E-007  rzold =   4.513071739759641E-008  alpha = 
  0.166228909278446     
 delta_qm =   0.597157E-05 delta_en =   0.616198E-04 tol =   0.100000E-04
 Iteration #         76
  pAp =   2.104565147527635E-007  rzold =   3.697162993771821E-008  alpha = 
  0.175673487614062     
 delta_qm =   0.641783E-05 delta_en =   0.711738E-04 tol =   0.100000E-04
 Iteration #         77
  pAp =   2.034972460408964E-007  rzold =   3.382792088746052E-008  alpha = 
  0.166232819095066     
 delta_qm =   0.516736E-05 delta_en =   0.461404E-04 tol =   0.100000E-04
 Iteration #         78
  pAp =   1.577603158399188E-007  rzold =   2.771498675799479E-008  alpha = 
  0.175677809786572     
 delta_qm =   0.555399E-05 delta_en =   0.533032E-04 tol =   0.100000E-04
 Iteration #         79
  pAp =   1.525591733255414E-007  rzold =   2.536092617796736E-008  alpha = 
  0.166236651819360     
 delta_qm =   0.447200E-05 delta_en =   0.345579E-04 tol =   0.100000E-04
 Iteration #         80
  pAp =   1.182821593616916E-007  rzold =   2.078005237924932E-008  alpha = 
  0.175682051218786     
 delta_qm =   0.480695E-05 delta_en =   0.399285E-04 tol =   0.100000E-04
 Iteration #         81
  pAp =   1.143940299295332E-007  rzold =   1.901691119304131E-008  alpha = 
  0.166240416608767     
 delta_qm =   0.387067E-05 delta_en =   0.258890E-04 tol =   0.100000E-04
 Iteration #         82
  pAp =   8.870032562462650E-008  rzold =   1.558342503483732E-008  alpha = 
  0.175686221274827     
 delta_qm =   0.416085E-05 delta_en =   0.299163E-04 tol =   0.100000E-04
 Iteration #         83
  pAp =   8.579305670010638E-008  rzold =   1.426259131588874E-008  alpha = 
  0.166244121196710     
 delta_qm =   0.335059E-05 delta_en =   0.193993E-04 tol =   0.100000E-04
 Iteration #         84
  pAp =   6.652950127719118E-008  rzold =   1.168858989924551E-008  alpha = 
  0.175690327972634     
 delta_qm =   0.360198E-05 delta_en =   0.224195E-04 tol =   0.100000E-04
 Iteration #         85
  pAp =   6.435515593072240E-008  rzold =   1.069890130874921E-008  alpha = 
  0.166247772288307     
 delta_qm =   0.290072E-05 delta_en =   0.145397E-04 tol =   0.100000E-04
 Iteration #         86
  pAp =   4.990972244819865E-008  rzold =   8.768857658786052E-009  alpha = 
  0.175694378342562     
 delta_qm =   0.311850E-05 delta_en =   0.168049E-04 tol =   0.100000E-04
 Iteration #         87
  pAp =   4.828317253337939E-008  rzold =   8.027143862713445E-009  alpha = 
  0.166251375821754     
 delta_qm =   0.251154E-05 delta_en =   0.108999E-04 tol =   0.100000E-04
 Iteration #         88
  pAp =   3.744870140341139E-008  rzold =   6.579676119725102E-009  alpha = 
  0.175698378665962     
 delta_qm =   0.270020E-05 delta_en =   0.125990E-04 tol =   0.100000E-04
 Iteration #         89
  pAp =   3.623167808206223E-008  rzold =   6.023695362143445E-009  alpha = 
  0.166254937143684     
 delta_qm =   0.217481E-05 delta_en =   0.817312E-05 tol =   0.100000E-04
 Charges are converged, EXIT

%%%% DENSITY %%%%%%%%%%%%%%%%%%%%%%%%%%%%%%%%%%%%%%%%%%%%%%%%%%%%%%%%%%%%%%%%%%%
 density label              = velectrostatic                                                                  
 integral of density        =    -0.7714651963E-12

%%%% CHARGES %%%%%%%%%%%%%%%%%%%%%%%%%%%%%%%%%%%%%%%%%%%%%%%%%%%%%%%%%%%%%%%%%%%
 total number of charges    =         34
 total charge               =     -1.0000000

%%%% DENSITY %%%%%%%%%%%%%%%%%%%%%%%%%%%%%%%%%%%%%%%%%%%%%%%%%%%%%%%%%%%%%%%%%%%
 density label              = vsoftcavity                                                                     
 integral of density        =      33.74491340    

%%%% ELECTRONS %%%%%%%%%%%%%%%%%%%%%%%%%%%%%%%%%%%%%%%%%%%%%%%%%%%%%%%%%%%%%%%%%
 number of electrons        =         24
 total electronic charge    =     24.0000000
 number of spin components  =  1

%%%% BOUNDARY %%%%%%%%%%%%%%%%%%%%%%%%%%%%%%%%%%%%%%%%%%%%%%%%%%%%%%%%%%%%%%%%%%
 boundary label             = solvent              
 boundary mode              = electronic           
 boundary is built as a function of a smooth density
 function type              =  2 
 using the modified SCCS function with parameters 
 rhomax                     =      0.0050000 
 rhomin                     =      0.0001000 
 volume of the QM region    =    717.0746160 
 surface of the QM region   =    412.4200185 

%%%% DIELECTRIC %%%%%%%%%%%%%%%%%%%%%%%%%%%%%%%%%%%%%%%%%%%%%%%%%%%%%%%%%%%%%%%%%
 dielectric build on homogeneous background
 environment bulk permitt.  =    100.0000000 
 dielectric flags
 need gradient              =  F 
 need factor depend. sqrt   =  T 
 total dielectric charge    =      0.9823775

%%%% DENSITY %%%%%%%%%%%%%%%%%%%%%%%%%%%%%%%%%%%%%%%%%%%%%%%%%%%%%%%%%%%%%%%%%%%
 density label              = vreference                                                                      
 integral of density        =    -0.6008033577E-12

%%%% DENSITY %%%%%%%%%%%%%%%%%%%%%%%%%%%%%%%%%%%%%%%%%%%%%%%%%%%%%%%%%%%%%%%%%%%
 density label              = velectrostatic                                                                  
 integral of density        =    -0.7714651963E-12

%%%% CHARGES %%%%%%%%%%%%%%%%%%%%%%%%%%%%%%%%%%%%%%%%%%%%%%%%%%%%%%%%%%%%%%%%%%%
 total number of charges    =         34
 total charge               =     -1.0000000

%%%% DENSITY %%%%%%%%%%%%%%%%%%%%%%%%%%%%%%%%%%%%%%%%%%%%%%%%%%%%%%%%%%%%%%%%%%%
 density label              = vsoftcavity                                                                     
 integral of density        =      33.74491340    
