
     Program PWSCF v.6.1 (svn rev. 13369) starts on 29Sep2017 at 16:11:31 

     This program is part of the open-source Quantum ESPRESSO suite
     for quantum simulation of materials; please cite
         "P. Giannozzi et al., J. Phys.:Condens. Matter 21 395502 (2009);
          URL http://www.quantum-espresso.org", 
     in publications or presentations arising from this work. More details at
     http://www.quantum-espresso.org/quote

     Serial version
     Reading input from pw.in

     Current dimensions of program PWSCF are:
     Max number of different atomic species (ntypx) = 10
     Max number of k-points (npk) =  40000
     Max angular momentum in pseudopotentials (lmaxx) =  3
               file H.pbe-rrkjus.UPF: wavefunction(s)  1S renormalized
               file O.pbe-rrkjus.UPF: wavefunction(s)  2S renormalized

     gamma-point specific algorithms are used

     G-vector sticks info
     --------------------
     sticks:   dense  smooth     PW     G-vecs:    dense   smooth      PW
     Sum        9549    3809    949               701475   177509   22119



     bravais-lattice index     =            1
     lattice parameter (alat)  =      20.0000  a.u.
     unit-cell volume          =    8000.0000 (a.u.)^3
     number of atoms/cell      =            3
     number of atomic types    =            2
     number of electrons       =         8.00
     number of Kohn-Sham states=            4
     kinetic-energy cutoff     =      30.0000  Ry
     charge density cutoff     =     300.0000  Ry
     convergence threshold     =      5.0E-03
     mixing beta               =       0.7000
     number of iterations used =            8  plain     mixing
     Exchange-correlation      =  SLA  PW   PBE  PBE ( 1  4  3  4 0 0)


     Environ Module
     ==============

     Plese cite
         O. Andreussi, I. Dabo and N. Marzari, J. Chem. Phys. 136, 064102 (2012)         
     in publications or presentations arising from this work.

     compensation onset threshold      =               0.1000E+03 
     static permittivity               =                   100.00 
     epsilon calculation mode          =               electronic 

     Electrostatic Setup
     -------------------
     electrostatic problem to solve    = generalized              
     numerical solver adopted          = iterative                
     type of auxiliary density adopted = full                     
     type of core tool for poisson     = fft                      
     type of core tool for s(r) deriv  = analytic                 



     celldm(1)=  20.000000  celldm(2)=   0.000000  celldm(3)=   0.000000
     celldm(4)=   0.000000  celldm(5)=   0.000000  celldm(6)=   0.000000

     crystal axes: (cart. coord. in units of alat)
               a(1) = (   1.000000   0.000000   0.000000 )  
               a(2) = (   0.000000   1.000000   0.000000 )  
               a(3) = (   0.000000   0.000000   1.000000 )  

     reciprocal axes: (cart. coord. in units 2 pi/alat)
               b(1) = (  1.000000  0.000000  0.000000 )  
               b(2) = (  0.000000  1.000000  0.000000 )  
               b(3) = (  0.000000  0.000000  1.000000 )  


     PseudoPot. # 1 for H  read from file:
     /Users/oliviero/PWSCF/espresso-6.1-Environ-1.0/Environ/tests/../..//pseudo/H.pbe-rrkjus.UPF
     MD5 check sum: 7cc9d459525c9a0585f487a71c3c9563
     Pseudo is Ultrasoft, Zval =  1.0
     Generated by new atomic code, or converted to UPF format
     Using radial grid of 1061 points,  2 beta functions with: 
                l(1) =   0
                l(2) =   0
     Q(r) pseudized with 0 coefficients 


     PseudoPot. # 2 for O  read from file:
     /Users/oliviero/PWSCF/espresso-6.1-Environ-1.0/Environ/tests/../..//pseudo/O.pbe-rrkjus.UPF
     MD5 check sum: 390ba29e75625707450f3bd3f0eb6be9
     Pseudo is Ultrasoft, Zval =  6.0
     Generated by new atomic code, or converted to UPF format
     Using radial grid of 1269 points,  4 beta functions with: 
                l(1) =   0
                l(2) =   0
                l(3) =   1
                l(4) =   1
     Q(r) pseudized with 0 coefficients 


     atomic species   valence    mass     pseudopotential
        H              1.00     1.00000     H ( 1.00)
        O              6.00    16.00000     O ( 1.00)

     No symmetry found



   Cartesian axes

     site n.     atom                  positions (alat units)
         1           O   tau(   1) = (   0.5895000   0.6025000   0.5750000  )
         2           H   tau(   2) = (   0.6725000   0.5610000   0.5750000  )
         3           H   tau(   3) = (   0.5280000   0.5330000   0.5750000  )

     number of k points=     1
                       cart. coord. in units 2pi/alat
        k(    1) = (   0.0000000   0.0000000   0.0000000), wk =   2.0000000

     Dense  grid:   350738 G-vectors     FFT dimensions: ( 120, 120, 120)

     Smooth grid:    88755 G-vectors     FFT dimensions: (  72,  72,  72)

     Estimated max dynamical RAM per process >     270.62MB

     Initial potential from superposition of free atoms
     Check: negative starting charge=   -0.000775

     starting charge    7.80759, renormalised to    8.00000

     negative rho (up, down):  7.936E-04 0.000E+00
     Starting wfc are    6 randomized atomic wfcs

     total cpu time spent up to now is       12.5 secs

     Self-consistent Calculation

     iteration #  1     ecut=    30.00 Ry     beta=0.70
     Davidson diagonalization with overlap
     ethr =  1.00E-02,  avg # of iterations =  2.0

     negative rho (up, down):  2.595E-04 0.000E+00

     add environment contribution to local potential
     polarization accuracy = 6.8E-05, # of iterations =  16

     total cpu time spent up to now is       23.8 secs

     total energy              =     -34.06236055 Ry
     Harris-Foulkes estimate   =     -34.58697711 Ry
     estimated scf accuracy    <       0.68458994 Ry
     electrostatic embedding   =       0.00000000 Ry
     correction to one-el term =       0.00000000 Ry

     iteration #  2     ecut=    30.00 Ry     beta=0.70
     Davidson diagonalization with overlap
     ethr =  8.56E-03,  avg # of iterations =  2.0

     negative rho (up, down):  2.656E-03 0.000E+00

     add environment contribution to local potential
     polarization accuracy = 6.1E-05, # of iterations =  13

     total cpu time spent up to now is       34.0 secs

     total energy              =     -34.21524076 Ry
     Harris-Foulkes estimate   =     -33.93989879 Ry
     estimated scf accuracy    <       0.35516341 Ry
     electrostatic embedding   =      -0.03422355 Ry
     correction to one-el term =      -0.42417660 Ry

     iteration #  3     ecut=    30.00 Ry     beta=0.70
     Davidson diagonalization with overlap
     ethr =  4.44E-03,  avg # of iterations =  2.0

     negative rho (up, down):  2.204E-04 0.000E+00

     add environment contribution to local potential
     polarization accuracy = 8.3E-05, # of iterations =  13

     total cpu time spent up to now is       44.2 secs

     total energy              =     -34.28761974 Ry
     Harris-Foulkes estimate   =     -33.97790084 Ry
     estimated scf accuracy    <       0.01536784 Ry
     electrostatic embedding   =      -0.02907748 Ry
     correction to one-el term =      -0.28929097 Ry

     iteration #  4     ecut=    30.00 Ry     beta=0.70
     Davidson diagonalization with overlap
     ethr =  1.92E-04,  avg # of iterations =  2.0

     negative rho (up, down):  2.142E-04 0.000E+00

     total cpu time spent up to now is       47.6 secs

     End of self-consistent calculation

          k = 0.0000 0.0000 0.0000 ( 11060 PWs)   bands (ev):

   -24.5402 -12.3135  -8.7687  -6.7987

     highest occupied level (ev):    -6.7987

!    total energy              =     -34.29567570 Ry
     Harris-Foulkes estimate   =     -34.17186667 Ry
     estimated scf accuracy    <       0.00017796 Ry

     The total energy is the sum of the following terms:

     one-electron contribution =     -63.79276847 Ry
     hartree contribution      =      33.46032699 Ry
     xc contribution           =      -8.39674154 Ry
     ewald contribution        =       4.55735774 Ry
     electrostatic embedding   =      -0.03354561 Ry
     correction to one-el term =      -0.09030482 Ry

     convergence has been achieved in   4 iterations

     Forces acting on atoms (cartesian axes, Ry/au):

     atom    1 type  2   force =     0.00236649   -0.01253185   -0.00000281
     atom    2 type  1   force =    -0.00876467    0.00476505    0.00000111
     atom    3 type  1   force =     0.00639818    0.00776680    0.00000171

     Total force =     0.019064     Total SCF correction =     0.023797
     SCF correction compared to forces is large: reduce conv_thr to get better values

     Writing output data file pwscf.save

     init_run     :     11.88s CPU     12.36s WALL (       1 calls)
     electrons    :     32.74s CPU     35.30s WALL (       1 calls)
     forces       :      1.28s CPU      1.41s WALL (       1 calls)

     Called by init_run:
     wfcinit      :      0.07s CPU      0.07s WALL (       1 calls)
     potinit      :      1.72s CPU      1.84s WALL (       1 calls)

     Called by electrons:
     c_bands      :      0.52s CPU      0.54s WALL (       4 calls)
     sum_band     :      2.94s CPU      2.98s WALL (       4 calls)
     v_of_rho     :      6.16s CPU      6.63s WALL (       5 calls)
     newd         :      1.54s CPU      2.06s WALL (       5 calls)
     mix_rho      :      0.47s CPU      0.53s WALL (       4 calls)

     Called by c_bands:
     init_us_2    :      0.03s CPU      0.05s WALL (       9 calls)
     regterg      :      0.48s CPU      0.49s WALL (       4 calls)

     Called by sum_band:
     sum_band:bec :      0.00s CPU      0.00s WALL (       4 calls)
     addusdens    :      1.93s CPU      1.95s WALL (       4 calls)

     Called by *egterg:
     h_psi        :      0.48s CPU      0.48s WALL (      13 calls)
     s_psi        :      0.01s CPU      0.01s WALL (      13 calls)
     g_psi        :      0.01s CPU      0.01s WALL (       8 calls)
     rdiaghg      :      0.00s CPU      0.00s WALL (      12 calls)

     Called by h_psi:
     h_psi:pot    :      0.48s CPU      0.48s WALL (      13 calls)
     h_psi:calbec :      0.01s CPU      0.01s WALL (      13 calls)
     vloc_psi     :      0.46s CPU      0.46s WALL (      13 calls)
     add_vuspsi   :      0.01s CPU      0.01s WALL (      13 calls)

     General routines
     calbec       :      0.01s CPU      0.01s WALL (      21 calls)
     fft          :     16.98s CPU     17.13s WALL (     287 calls)
     ffts         :      0.09s CPU      0.09s WALL (       9 calls)
     fftw         :      0.38s CPU      0.38s WALL (      62 calls)
     interpolate  :      0.73s CPU      0.79s WALL (       9 calls)
     davcio       :      0.00s CPU      0.00s WALL (       1 calls)


     Environ routines
     calc_eelect  :      0.02s CPU      0.02s WALL (       8 calls)
     calc_velect  :     17.45s CPU     18.67s WALL (       6 calls)
     dielectric   :      0.29s CPU      0.35s WALL (       5 calls)
     calc_felect  :      0.24s CPU      0.25s WALL (       1 calls)

     PWSCF        :    46.09s CPU        49.41s WALL


   This run was terminated on:  16:12:21  29Sep2017            

=------------------------------------------------------------------------------=
   JOB DONE.
=------------------------------------------------------------------------------=

%%%% IONS %%%%%%%%%%%%%%%%%%%%%%%%%%%%%%%%%%%%%%%%%%%%%%%%%%%%%%%%%%%%%%%%%%%%%%
 number of ions             =          3
 ionic center of charge     =      0.5921875     0.5886250     0.5750000
 total ionic charge         =     -8.0000000
 ionic dipole               =      0.0000000     0.0000000     0.0000000
 ionic quadrupole (pc)      =     -4.2453875    -2.0049500     0.0000000
 ionic quadrupole (gauss)   =     -5.2453875    -3.0049500    -1.0000000
 ion   1 type =  2 coordinates =     11.7900000    12.0500000    11.5000000
 ion   2 type =  1 coordinates =     13.4500000    11.2200000    11.5000000
 ion   3 type =  1 coordinates =     10.5600000    10.6600000    11.5000000

%%%% SYSTEM %%%%%%%%%%%%%%%%%%%%%%%%%%%%%%%%%%%%%%%%%%%%%%%%%%%%%%%%%%%%%%%%%%%%
 system is built from all present ionic types
 system defined dimension   =  0 
 system defined axis        =  3 
 system center              =      0.5921875     0.5886250     0.5750000 
 system width               =      0.1209428 

%%%% ELECTRONS %%%%%%%%%%%%%%%%%%%%%%%%%%%%%%%%%%%%%%%%%%%%%%%%%%%%%%%%%%%%%%%%%
 number of electrons        =          8
 total electronic charge    =      8.0000000
 number of spin components  =  1

%%%% BOUNDARY %%%%%%%%%%%%%%%%%%%%%%%%%%%%%%%%%%%%%%%%%%%%%%%%%%%%%%%%%%%%%%%%%%
 boundary mode              = electronic           
 boundary is built as a function of a smooth density
 function type              =  2 
 using the modified SCCS function with parameters 
 rhomax                     =      0.0050000 
 rhomin                     =      0.0001000 

%%%% DIELECTRIC %%%%%%%%%%%%%%%%%%%%%%%%%%%%%%%%%%%%%%%%%%%%%%%%%%%%%%%%%%%%%%%%%
 dielectric build on homogeneous background
 environment bulk permitt.  =    100.0000000 
 dielectric flags
 need gradient              =  F 
 need factor depend. sqrt   =  F 
 need gradient of logarithm =  T 

%%%% COMPUTE ELECTROSTATIC POTENTIAL %%%%%%%%%%%%%%%%%%%%%%%%%%%%%%%%%%%%%%%%%%%
 Starting from polarization: rhoiter =      0.000000
 Iteration #          1
 delta_qm =   0.168745E-02 delta_en =   0.492046E+01 tol =   0.100000E-03
 Iteration #          2
 delta_qm =   0.849391E-03 delta_en =   0.124669E+01 tol =   0.100000E-03
 Iteration #          3
 delta_qm =   0.567685E-03 delta_en =   0.556876E+00 tol =   0.100000E-03
 Iteration #          4
 delta_qm =   0.412206E-03 delta_en =   0.293611E+00 tol =   0.100000E-03
 Iteration #          5
 delta_qm =   0.309245E-03 delta_en =   0.165253E+00 tol =   0.100000E-03
 Iteration #          6
 delta_qm =   0.228757E-03 delta_en =   0.904258E-01 tol =   0.100000E-03
 Iteration #          7
 delta_qm =   0.162182E-03 delta_en =   0.454518E-01 tol =   0.100000E-03
 Iteration #          8
 delta_qm =   0.111749E-03 delta_en =   0.215790E-01 tol =   0.100000E-03
 Iteration #          9
 delta_qm =   0.779932E-04 delta_en =   0.105113E-01 tol =   0.100000E-03
 Iteration #         10
 delta_qm =   0.564436E-04 delta_en =   0.550521E-02 tol =   0.100000E-03
 Iteration #         11
 delta_qm =   0.413074E-04 delta_en =   0.294848E-02 tol =   0.100000E-03
 Iteration #         12
 delta_qm =   0.293765E-04 delta_en =   0.149122E-02 tol =   0.100000E-03
 Iteration #         13
 delta_qm =   0.199626E-04 delta_en =   0.688615E-03 tol =   0.100000E-03
 Iteration #         14
 delta_qm =   0.131780E-04 delta_en =   0.300084E-03 tol =   0.100000E-03
 Iteration #         15
 delta_qm =   0.884694E-05 delta_en =   0.135248E-03 tol =   0.100000E-03
 Iteration #         16
 delta_qm =   0.626207E-05 delta_en =   0.677610E-04 tol =   0.100000E-03
 Charges are converged, EXIT

%%%% ELECTRONS %%%%%%%%%%%%%%%%%%%%%%%%%%%%%%%%%%%%%%%%%%%%%%%%%%%%%%%%%%%%%%%%%
 number of electrons        =          8
 total electronic charge    =      8.0000000
 number of spin components  =  1

%%%% BOUNDARY %%%%%%%%%%%%%%%%%%%%%%%%%%%%%%%%%%%%%%%%%%%%%%%%%%%%%%%%%%%%%%%%%%
 boundary mode              = electronic           
 boundary is built as a function of a smooth density
 function type              =  2 
 using the modified SCCS function with parameters 
 rhomax                     =      0.0050000 
 rhomin                     =      0.0001000 

%%%% DIELECTRIC %%%%%%%%%%%%%%%%%%%%%%%%%%%%%%%%%%%%%%%%%%%%%%%%%%%%%%%%%%%%%%%%%
 dielectric build on homogeneous background
 environment bulk permitt.  =    100.0000000 
 dielectric flags
 need gradient              =  F 
 need factor depend. sqrt   =  F 
 need gradient of logarithm =  T 

%%%% COMPUTE ELECTROSTATIC POTENTIAL %%%%%%%%%%%%%%%%%%%%%%%%%%%%%%%%%%%%%%%%%%%
 Starting from polarization: rhoiter =      0.327709
 Iteration #          1
 delta_qm =   0.319783E-03 delta_en =   0.176707E+00 tol =   0.100000E-03
 Iteration #          2
 delta_qm =   0.180045E-03 delta_en =   0.560149E-01 tol =   0.100000E-03
 Iteration #          3
 delta_qm =   0.144426E-03 delta_en =   0.360443E-01 tol =   0.100000E-03
 Iteration #          4
 delta_qm =   0.115322E-03 delta_en =   0.229808E-01 tol =   0.100000E-03
 Iteration #          5
 delta_qm =   0.868011E-04 delta_en =   0.130195E-01 tol =   0.100000E-03
 Iteration #          6
 delta_qm =   0.631811E-04 delta_en =   0.689793E-02 tol =   0.100000E-03
 Iteration #          7
 delta_qm =   0.459808E-04 delta_en =   0.365339E-02 tol =   0.100000E-03
 Iteration #          8
 delta_qm =   0.339517E-04 delta_en =   0.199190E-02 tol =   0.100000E-03
 Iteration #          9
 delta_qm =   0.250691E-04 delta_en =   0.108598E-02 tol =   0.100000E-03
 Iteration #         10
 delta_qm =   0.180761E-04 delta_en =   0.564615E-03 tol =   0.100000E-03
 Iteration #         11
 delta_qm =   0.126015E-04 delta_en =   0.274404E-03 tol =   0.100000E-03
 Iteration #         12
 delta_qm =   0.859967E-05 delta_en =   0.127793E-03 tol =   0.100000E-03
 Iteration #         13
 delta_qm =   0.592240E-05 delta_en =   0.606093E-04 tol =   0.100000E-03
 Charges are converged, EXIT

%%%% ELECTRONS %%%%%%%%%%%%%%%%%%%%%%%%%%%%%%%%%%%%%%%%%%%%%%%%%%%%%%%%%%%%%%%%%
 number of electrons        =          8
 total electronic charge    =      8.0000000
 number of spin components  =  1

%%%% BOUNDARY %%%%%%%%%%%%%%%%%%%%%%%%%%%%%%%%%%%%%%%%%%%%%%%%%%%%%%%%%%%%%%%%%%
 boundary mode              = electronic           
 boundary is built as a function of a smooth density
 function type              =  2 
 using the modified SCCS function with parameters 
 rhomax                     =      0.0050000 
 rhomin                     =      0.0001000 

%%%% DIELECTRIC %%%%%%%%%%%%%%%%%%%%%%%%%%%%%%%%%%%%%%%%%%%%%%%%%%%%%%%%%%%%%%%%%
 dielectric build on homogeneous background
 environment bulk permitt.  =    100.0000000 
 dielectric flags
 need gradient              =  F 
 need factor depend. sqrt   =  F 
 need gradient of logarithm =  T 

%%%% COMPUTE ELECTROSTATIC POTENTIAL %%%%%%%%%%%%%%%%%%%%%%%%%%%%%%%%%%%%%%%%%%%
 Starting from polarization: rhoiter =      0.266396
 Iteration #          1
 delta_qm =   0.453472E-03 delta_en =   0.355341E+00 tol =   0.100000E-03
 Iteration #          2
 delta_qm =   0.228941E-03 delta_en =   0.905714E-01 tol =   0.100000E-03
 Iteration #          3
 delta_qm =   0.167143E-03 delta_en =   0.482747E-01 tol =   0.100000E-03
 Iteration #          4
 delta_qm =   0.134323E-03 delta_en =   0.311775E-01 tol =   0.100000E-03
 Iteration #          5
 delta_qm =   0.102363E-03 delta_en =   0.181063E-01 tol =   0.100000E-03
 Iteration #          6
 delta_qm =   0.737607E-04 delta_en =   0.940143E-02 tol =   0.100000E-03
 Iteration #          7
 delta_qm =   0.519625E-04 delta_en =   0.466578E-02 tol =   0.100000E-03
 Iteration #          8
 delta_qm =   0.371911E-04 delta_en =   0.239013E-02 tol =   0.100000E-03
 Iteration #          9
 delta_qm =   0.273674E-04 delta_en =   0.129422E-02 tol =   0.100000E-03
 Iteration #         10
 delta_qm =   0.202267E-04 delta_en =   0.706960E-03 tol =   0.100000E-03
 Iteration #         11
 delta_qm =   0.145885E-04 delta_en =   0.367759E-03 tol =   0.100000E-03
 Iteration #         12
 delta_qm =   0.101593E-04 delta_en =   0.178348E-03 tol =   0.100000E-03
 Iteration #         13
 delta_qm =   0.691055E-05 delta_en =   0.825219E-04 tol =   0.100000E-03
 Charges are converged, EXIT

%%%% ELECTRONS %%%%%%%%%%%%%%%%%%%%%%%%%%%%%%%%%%%%%%%%%%%%%%%%%%%%%%%%%%%%%%%%%
 number of electrons        =          8
 total electronic charge    =      8.0000000
 number of spin components  =  1

%%%% BOUNDARY %%%%%%%%%%%%%%%%%%%%%%%%%%%%%%%%%%%%%%%%%%%%%%%%%%%%%%%%%%%%%%%%%%
 boundary mode              = electronic           
 boundary is built as a function of a smooth density
 function type              =  2 
 using the modified SCCS function with parameters 
 rhomax                     =      0.0050000 
 rhomin                     =      0.0001000 

%%%% DIELECTRIC %%%%%%%%%%%%%%%%%%%%%%%%%%%%%%%%%%%%%%%%%%%%%%%%%%%%%%%%%%%%%%%%%
 dielectric build on homogeneous background
 environment bulk permitt.  =    100.0000000 
 dielectric flags
 need gradient              =  F 
 need factor depend. sqrt   =  F 
 need gradient of logarithm =  T 
