
     Program PWSCF v.6.7MaX starts on  1Oct2021 at 20:20:37 

     This program is part of the open-source Quantum ESPRESSO suite
     for quantum simulation of materials; please cite
         "P. Giannozzi et al., J. Phys.:Condens. Matter 21 395502 (2009);
         "P. Giannozzi et al., J. Phys.:Condens. Matter 29 465901 (2017);
          URL http://www.quantum-espresso.org", 
     in publications or presentations arising from this work. More details at
     http://www.quantum-espresso.org/quote

     Parallel version (MPI), running on     1 processors

     MPI processes distributed on     1 nodes
     Reading input from neutral.in

     Current dimensions of program PWSCF are:
     Max number of different atomic species (ntypx) = 10
     Max number of k-points (npk) =  40000
     Max angular momentum in pseudopotentials (lmaxx) =  3

     Reading input from environ.in

     ================================================================================

     Reading ENVIRON namelist

     Reading BOUNDARY namelist

     Checking boundary derivatives
     derivatives               = lowmem         ! SSCS default

     Reading ELECTROSTATIC namelist

     Setting up electrostatic problem
     problem                   = generalized    
     solver                    = cg             

     Checking PBC correction
     pbc_correction            = none           ! default

     ================================================================================
 
     file H.pbe-rrkjus.UPF: wavefunction(s)  1S renormalized
     file O.pbe-rrkjus.UPF: wavefunction(s)  2S renormalized

     gamma-point specific algorithms are used

     Subspace diagonalization in iterative solution of the eigenvalue problem:
     a serial algorithm will be used

 
     G-vector sticks info
     --------------------
     sticks:   dense  smooth     PW     G-vecs:    dense   smooth      PW
     Sum        9549    3809    949               701475   177509   22119
 


     bravais-lattice index     =            1
     lattice parameter (alat)  =      20.0000  a.u.
     unit-cell volume          =    8000.0000 (a.u.)^3
     number of atoms/cell      =            3
     number of atomic types    =            2
     number of electrons       =         8.00
     number of Kohn-Sham states=            4
     kinetic-energy cutoff     =      30.0000  Ry
     charge density cutoff     =     300.0000  Ry
     scf convergence threshold =      5.0E-03
     mixing beta               =       0.7000
     number of iterations used =            8  plain     mixing
     Exchange-correlation= SLA  PW   PBE  PBE
                           (   1   4   3   4   0   0   0)
 

     Environ Module
     ==============

     Please cite
         O. Andreussi, I. Dabo and N. Marzari, J. Chem. Phys. 136, 064102 (2012)         
     in publications or presentations arising from this work.

     compensation onset threshold      =               0.1000E+03
     static permittivity               =                   100.00
     epsilon calculation mode          =                    ionic

     Electrostatic Setup
     -------------------
     electrostatic problem to solve    = generalized             
     numerical solver adopted          = cg                      
     type of auxiliary density adopted = none                    
     type of core tool for poisson     = fft                     



     celldm(1)=  20.000000  celldm(2)=   0.000000  celldm(3)=   0.000000
     celldm(4)=   0.000000  celldm(5)=   0.000000  celldm(6)=   0.000000

     crystal axes: (cart. coord. in units of alat)
               a(1) = (   1.000000   0.000000   0.000000 )  
               a(2) = (   0.000000   1.000000   0.000000 )  
               a(3) = (   0.000000   0.000000   1.000000 )  

     reciprocal axes: (cart. coord. in units 2 pi/alat)
               b(1) = (  1.000000  0.000000  0.000000 )  
               b(2) = (  0.000000  1.000000  0.000000 )  
               b(3) = (  0.000000  0.000000  1.000000 )  


     PseudoPot. # 1 for H  read from file:
     /home/simplogic86/Work/QE1/Environ/tests/../..//pseudo/H.pbe-rrkjus.UPF
     MD5 check sum: 2d52a7f45632fd764c17cc6affed14c8
     Pseudo is Ultrasoft, Zval =  1.0
     Generated by new atomic code, or converted to UPF format
     Using radial grid of 1061 points,  2 beta functions with: 
                l(1) =   0
                l(2) =   0
     Q(r) pseudized with 0 coefficients 


     PseudoPot. # 2 for O  read from file:
     /home/simplogic86/Work/QE1/Environ/tests/../..//pseudo/O.pbe-rrkjus.UPF
     MD5 check sum: fadcf19ee70a498d3030e2e79cf929a4
     Pseudo is Ultrasoft, Zval =  6.0
     Generated by new atomic code, or converted to UPF format
     Using radial grid of 1269 points,  4 beta functions with: 
                l(1) =   0
                l(2) =   0
                l(3) =   1
                l(4) =   1
     Q(r) pseudized with 0 coefficients 


     atomic species   valence    mass     pseudopotential
        H              1.00     1.00000     H ( 1.00)
        O              6.00    16.00000     O ( 1.00)

     No symmetry found



   Cartesian axes

     site n.     atom                  positions (alat units)
         1           O   tau(   1) = (   0.5895000   0.6025000   0.5750000  )
         2           H   tau(   2) = (   0.6725000   0.5610000   0.5750000  )
         3           H   tau(   3) = (   0.5280000   0.5330000   0.5750000  )

     number of k points=     1
                       cart. coord. in units 2pi/alat
        k(    1) = (   0.0000000   0.0000000   0.0000000), wk =   2.0000000

     Dense  grid:   350738 G-vectors     FFT dimensions: ( 120, 120, 120)

     Smooth grid:    88755 G-vectors     FFT dimensions: (  72,  72,  72)

     Estimated max dynamical RAM per process >     530.91 MB

     Initial potential from superposition of free atoms

     starting charge    7.80759, renormalised to    8.00000

     negative rho (up, down):  7.936E-04 0.000E+00
     Starting wfcs are    6 randomized atomic wfcs

     total cpu time spent up to now is        5.0 secs

     Self-consistent Calculation

     iteration #  1     ecut=    30.00 Ry     beta= 0.70
     Davidson diagonalization with overlap
     ethr =  1.00E-02,  avg # of iterations =  2.0

     negative rho (up, down):  2.568E-04 0.000E+00

     add environment contribution to local potential
     Polarization accuracy = 5.5E-06, # of iterations =  11

     total cpu time spent up to now is        7.8 secs

     total energy              =     -34.06919233 Ry
     estimated scf accuracy    <       0.67469661 Ry
     electrostatic embedding   =       0.00000000 Ry
     correction to one-el term =       0.00000000 Ry

     iteration #  2     ecut=    30.00 Ry     beta= 0.70
     Davidson diagonalization with overlap
     ethr =  8.43E-03,  avg # of iterations =  2.0

     negative rho (up, down):  2.260E-03 0.000E+00

     add environment contribution to local potential
     Polarization accuracy = 6.0E-06, # of iterations =  11

     total cpu time spent up to now is       10.9 secs

     total energy              =     -34.24845607 Ry
     estimated scf accuracy    <       0.29162972 Ry
     electrostatic embedding   =      -0.05126569 Ry
     correction to one-el term =      -0.43373287 Ry

     iteration #  3     ecut=    30.00 Ry     beta= 0.70
     Davidson diagonalization with overlap
     ethr =  3.65E-03,  avg # of iterations =  2.0

     negative rho (up, down):  3.077E-04 0.000E+00

     add environment contribution to local potential
     Polarization accuracy = 6.3E-06, # of iterations =  11

     total cpu time spent up to now is       13.7 secs

     total energy              =     -34.30406025 Ry
     estimated scf accuracy    <       0.00817731 Ry
     electrostatic embedding   =      -0.04244340 Ry
     correction to one-el term =      -0.33174262 Ry

     iteration #  4     ecut=    30.00 Ry     beta= 0.70
     Davidson diagonalization with overlap
     ethr =  1.02E-04,  avg # of iterations =  2.0

     negative rho (up, down):  2.103E-04 0.000E+00

     the potential shift due to the Gaussian-smeared nuclei is    -0.0214 ev

     total cpu time spent up to now is       14.8 secs

     End of self-consistent calculation

          k = 0.0000 0.0000 0.0000 ( 11060 PWs)   bands (ev):

   -24.8758 -12.5859  -9.2099  -7.2340

     highest occupied level (ev):    -7.2340

!    total energy              =     -34.30834055 Ry
     estimated scf accuracy    <       0.00089725 Ry

     The total energy is the sum of the following terms:
     one-electron contribution =     -63.99903792 Ry
     hartree contribution      =      33.59264207 Ry
     xc contribution           =      -8.42081802 Ry
     ewald contribution        =       4.55735774 Ry
     electrostatic embedding   =      -0.04629089 Ry
     correction to one-el term =       0.00780646 Ry

     convergence has been achieved in   4 iterations

     Forces acting on atoms (cartesian axes, Ry/au):

     atom    1 type  2   force =     0.00034100   -0.00208782   -0.00001361
     atom    2 type  1   force =    -0.00837864   -0.00057759    0.00000704
     atom    3 type  1   force =     0.00803765    0.00266540    0.00000657

     Total force =     0.012113     Total SCF correction =     0.037366
     SCF correction compared to forces is large: reduce conv_thr to get better values

     Writing output data file /home/simplogic86/Work/QE1/Environ/tests/../..//tempdir/pwscf.save/
 
     init_run     :      4.72s CPU      4.96s WALL (       1 calls)
     electrons    :      8.92s CPU      9.76s WALL (       1 calls)
     forces       :      2.22s CPU      2.37s WALL (       1 calls)

     Called by init_run:
     wfcinit      :      0.03s CPU      0.03s WALL (       1 calls)
     potinit      :      0.51s CPU      0.53s WALL (       1 calls)
     hinit0       :      3.67s CPU      3.76s WALL (       1 calls)

     Called by electrons:
     c_bands      :      0.27s CPU      0.27s WALL (       4 calls)
     sum_band     :      0.78s CPU      1.00s WALL (       4 calls)
     v_of_rho     :      1.98s CPU      2.21s WALL (       5 calls)
     newd         :      0.64s CPU      0.82s WALL (       5 calls)
     mix_rho      :      0.16s CPU      0.17s WALL (       4 calls)

     Called by c_bands:
     init_us_2    :      0.02s CPU      0.02s WALL (       9 calls)
     regterg      :      0.25s CPU      0.25s WALL (       4 calls)

     Called by *egterg:
     rdiaghg      :      0.00s CPU      0.00s WALL (      12 calls)
     h_psi        :      0.26s CPU      0.26s WALL (      13 calls)
     s_psi        :      0.00s CPU      0.00s WALL (      13 calls)
     g_psi        :      0.00s CPU      0.00s WALL (       8 calls)

     Called by h_psi:
     h_psi:calbec :      0.00s CPU      0.00s WALL (      13 calls)
     vloc_psi     :      0.25s CPU      0.25s WALL (      13 calls)
     add_vuspsi   :      0.00s CPU      0.00s WALL (      13 calls)

     General routines
     calbec       :      0.00s CPU      0.00s WALL (      21 calls)
     fft          :      0.94s CPU      0.94s WALL (      55 calls)
     ffts         :      0.03s CPU      0.03s WALL (       9 calls)
     fftw         :      0.21s CPU      0.21s WALL (      62 calls)
     interpolate  :      0.14s CPU      0.14s WALL (       5 calls)
 
     Parallel routines
 
     Environ routines
 
     PWSCF        :     15.92s CPU     17.16s WALL

 
   This run was terminated on:  20:20:54   1Oct2021            

=------------------------------------------------------------------------------=
   JOB DONE.
=------------------------------------------------------------------------------=

%%%% CELL %%%%%%%%%%%%%%%%%%%%%%%%%%%%%%%%%%%%%%%%%%%%%%%%%%%%%%%%%%%%%%%%%%%%%%

 cell label                 = system         

 cell volume                =    8000.000000

%%%% IONS %%%%%%%%%%%%%%%%%%%%%%%%%%%%%%%%%%%%%%%%%%%%%%%%%%%%%%%%%%%%%%%%%%%%%%

 total charge               =     -8.0000000
 center of charge           =     11.8437500    11.7725000    11.5000000
 dipole                     =      0.0000000     0.0000000     0.0000000
 quadrupole (pc)            =     -4.2453875    -2.0049500     0.0000000
 quadrupole (gauss)         =     -5.2453875    -3.0049500    -1.0000000

   i | type | coordinates
 -----------------------------------------------------------------------
   1 |    2 |                     11.7900000    12.0500000    11.5000000
   2 |    1 |                     13.4500000    11.2200000    11.5000000
   3 |    1 |                     10.5600000    10.6600000    11.5000000

%%%% SYSTEM %%%%%%%%%%%%%%%%%%%%%%%%%%%%%%%%%%%%%%%%%%%%%%%%%%%%%%%%%%%%%%%%%%%%

 system is built from all present ionic types

 system defined dimension   =              0
 system defined axis        =              3

 system center              =     11.8437500    11.7725000    11.5000000
 system width               =      1.6987261

%%%% IONS %%%%%%%%%%%%%%%%%%%%%%%%%%%%%%%%%%%%%%%%%%%%%%%%%%%%%%%%%%%%%%%%%%%%%%

 total charge               =     -8.0000000
 center of charge           =     11.8437500    11.7725000    11.5000000
 dipole                     =      0.0000000     0.0000000     0.0000000
 quadrupole (pc)            =     -4.2453875    -2.0049500     0.0000000
 quadrupole (gauss)         =     -5.2453875    -3.0049500    -1.0000000

   i | type | coordinates
 -----------------------------------------------------------------------
   1 |    2 |                     11.7900000    12.0500000    11.5000000
   2 |    1 |                     13.4500000    11.2200000    11.5000000
   3 |    1 |                     10.5600000    10.6600000    11.5000000

%%%% SYSTEM %%%%%%%%%%%%%%%%%%%%%%%%%%%%%%%%%%%%%%%%%%%%%%%%%%%%%%%%%%%%%%%%%%%%

 system is built from all present ionic types

 system defined dimension   =              0
 system defined axis        =              3

 system center              =     11.8437500    11.7725000    11.5000000
 system width               =      1.6987261

%%%% BOUNDARY %%%%%%%%%%%%%%%%%%%%%%%%%%%%%%%%%%%%%%%%%%%%%%%%%%%%%%%%%%%%%%%%%%

 boundary label             = solvent             
 boundary mode              = ionic               

 boundary is built from soft-spheres centered on ionic positions:
 solvent-dependent scaling  =      1.0000000
 softness parameter         =      0.5000000

 volume of the QM region    =    211.8920528

 surface of the QM region   =    173.6178424

%%%% CHARGES %%%%%%%%%%%%%%%%%%%%%%%%%%%%%%%%%%%%%%%%%%%%%%%%%%%%%%%%%%%%%%%%%%%

 total number of charges    =              4

 total charge               =     -8.0000000

%%%% CHARGES %%%%%%%%%%%%%%%%%%%%%%%%%%%%%%%%%%%%%%%%%%%%%%%%%%%%%%%%%%%%%%%%%%%

 total number of charges    =              4

 total charge               =     -8.0000000

%%%% CELL %%%%%%%%%%%%%%%%%%%%%%%%%%%%%%%%%%%%%%%%%%%%%%%%%%%%%%%%%%%%%%%%%%%%%%

 cell label                 = system         

 cell volume                =    8000.000000

%%%% ELECTRONS %%%%%%%%%%%%%%%%%%%%%%%%%%%%%%%%%%%%%%%%%%%%%%%%%%%%%%%%%%%%%%%%%

 number of electrons        =              8

 total electronic charge    =      8.0000000

%%%% ELECTRONS %%%%%%%%%%%%%%%%%%%%%%%%%%%%%%%%%%%%%%%%%%%%%%%%%%%%%%%%%%%%%%%%%

 number of electrons        =              8

 total electronic charge    =      8.0000000

%%%% CHARGES %%%%%%%%%%%%%%%%%%%%%%%%%%%%%%%%%%%%%%%%%%%%%%%%%%%%%%%%%%%%%%%%%%%

 total number of charges    =             11

 total charge               =     -0.0000000

%%%% CHARGES %%%%%%%%%%%%%%%%%%%%%%%%%%%%%%%%%%%%%%%%%%%%%%%%%%%%%%%%%%%%%%%%%%%

 total number of charges    =             11

 total charge               =     -0.0000000

%%%% DENSITY %%%%%%%%%%%%%%%%%%%%%%%%%%%%%%%%%%%%%%%%%%%%%%%%%%%%%%%%%%%%%%%%%%%

 density label              = dvtot                                             

 integral of density        =    0.000000000    

%%%% DENSITY %%%%%%%%%%%%%%%%%%%%%%%%%%%%%%%%%%%%%%%%%%%%%%%%%%%%%%%%%%%%%%%%%%%

 density label              = vreference                                        

 integral of density        =    0.000000000    

%%%% DENSITY %%%%%%%%%%%%%%%%%%%%%%%%%%%%%%%%%%%%%%%%%%%%%%%%%%%%%%%%%%%%%%%%%%%

 density label              = velectrostatic                                    

 integral of density        =    0.000000000    

%%%% CHARGES %%%%%%%%%%%%%%%%%%%%%%%%%%%%%%%%%%%%%%%%%%%%%%%%%%%%%%%%%%%%%%%%%%%

 total number of charges    =             11

 total charge               =     -0.0000000

%%%% ELECTRONS %%%%%%%%%%%%%%%%%%%%%%%%%%%%%%%%%%%%%%%%%%%%%%%%%%%%%%%%%%%%%%%%%

 number of electrons        =              8

 total electronic charge    =      8.0000000

%%%% ELECTRONS %%%%%%%%%%%%%%%%%%%%%%%%%%%%%%%%%%%%%%%%%%%%%%%%%%%%%%%%%%%%%%%%%

 number of electrons        =              8

 total electronic charge    =      8.0000000

%%%% CHARGES %%%%%%%%%%%%%%%%%%%%%%%%%%%%%%%%%%%%%%%%%%%%%%%%%%%%%%%%%%%%%%%%%%%

 total number of charges    =             11

 total charge               =      0.0000000

%%%% CHARGES %%%%%%%%%%%%%%%%%%%%%%%%%%%%%%%%%%%%%%%%%%%%%%%%%%%%%%%%%%%%%%%%%%%

 total number of charges    =             11

 total charge               =      0.0000000

%%%% DENSITY %%%%%%%%%%%%%%%%%%%%%%%%%%%%%%%%%%%%%%%%%%%%%%%%%%%%%%%%%%%%%%%%%%%

 density label              = vreference                                        

 integral of density        =  -0.6769893288E-13

%%%% COMPUTE ELECTROSTATIC POTENTIAL %%%%%%%%%%%%%%%%%%%%%%%%%%%%%%%%%%%%%%%%%%%

   i |      alpha     |       pAp      |      rzold     |    delta_qm    |    delta_en    |       tol
 ---------------------------------------------------------------------------------------------------------
   1 |   0.962774E+00 |   0.272267E+02 |   0.262132E+02 |   0.130884E-01 |   0.296019E+03 |   0.100000E-04
   2 |   0.101885E+00 |   0.759154E+02 |   0.773463E+01 |   0.341976E-02 |   0.202085E+02 |   0.100000E-04
   3 |   0.163651E+00 |   0.210594E+01 |   0.344640E+00 |   0.919474E-03 |   0.146091E+01 |   0.100000E-04
   4 |   0.239375E+00 |   0.408417E-01 |   0.977651E-02 |   0.519230E-03 |   0.465869E+00 |   0.100000E-04
   5 |   0.622917E+00 |   0.129269E-02 |   0.805239E-03 |   0.129187E-03 |   0.288393E-01 |   0.100000E-04
   6 |   0.347109E+00 |   0.296952E-03 |   0.103075E-03 |   0.751383E-04 |   0.975589E-02 |   0.100000E-04
   7 |   0.662933E+00 |   0.160270E-04 |   0.106248E-04 |   0.463483E-04 |   0.371202E-02 |   0.100000E-04
   8 |   0.659213E+00 |   0.972581E-05 |   0.641139E-05 |   0.222815E-04 |   0.857888E-03 |   0.100000E-04
   9 |   0.257428E+00 |   0.877211E-05 |   0.225819E-05 |   0.156818E-04 |   0.424950E-03 |   0.100000E-04
  10 |   0.345418E+00 |   0.223875E-05 |   0.773304E-06 |   0.825939E-05 |   0.117880E-03 |   0.100000E-04
  11 |   0.605634E+00 |   0.218940E-06 |   0.132598E-06 |   0.178743E-05 |   0.552082E-05 |   0.100000E-04

 Charges are converged, EXIT

%%%% DENSITY %%%%%%%%%%%%%%%%%%%%%%%%%%%%%%%%%%%%%%%%%%%%%%%%%%%%%%%%%%%%%%%%%%%

 density label              = velectrostatic                                    

 integral of density        =  -0.1006602209E-13

%%%% CHARGES %%%%%%%%%%%%%%%%%%%%%%%%%%%%%%%%%%%%%%%%%%%%%%%%%%%%%%%%%%%%%%%%%%%

 total number of charges    =             11

 total charge               =      0.0000000

%%%% DENSITY %%%%%%%%%%%%%%%%%%%%%%%%%%%%%%%%%%%%%%%%%%%%%%%%%%%%%%%%%%%%%%%%%%%

 density label              = dvtot                                             

 integral of density        =   0.1123581680E-12

%%%% ELECTRONS %%%%%%%%%%%%%%%%%%%%%%%%%%%%%%%%%%%%%%%%%%%%%%%%%%%%%%%%%%%%%%%%%

 number of electrons        =              8

 total electronic charge    =      8.0000000

%%%% ELECTRONS %%%%%%%%%%%%%%%%%%%%%%%%%%%%%%%%%%%%%%%%%%%%%%%%%%%%%%%%%%%%%%%%%

 number of electrons        =              8

 total electronic charge    =      8.0000000

%%%% CHARGES %%%%%%%%%%%%%%%%%%%%%%%%%%%%%%%%%%%%%%%%%%%%%%%%%%%%%%%%%%%%%%%%%%%

 total number of charges    =             11

 total charge               =      0.0000000

%%%% CHARGES %%%%%%%%%%%%%%%%%%%%%%%%%%%%%%%%%%%%%%%%%%%%%%%%%%%%%%%%%%%%%%%%%%%

 total number of charges    =             11

 total charge               =      0.0000000

%%%% DENSITY %%%%%%%%%%%%%%%%%%%%%%%%%%%%%%%%%%%%%%%%%%%%%%%%%%%%%%%%%%%%%%%%%%%

 density label              = vreference                                        

 integral of density        =  -0.1223712489E-13

%%%% COMPUTE ELECTROSTATIC POTENTIAL %%%%%%%%%%%%%%%%%%%%%%%%%%%%%%%%%%%%%%%%%%%

 Warning: Bad guess with residual norm =   0.283986E+03, reset to no guess

   i |      alpha     |       pAp      |      rzold     |    delta_qm    |    delta_en    |       tol
 ---------------------------------------------------------------------------------------------------------
   1 |   0.968862E+00 |   0.293745E+02 |   0.284599E+02 |   0.124881E-01 |   0.269486E+03 |   0.100000E-04
   2 |   0.989283E-01 |   0.747607E+02 |   0.739595E+01 |   0.302437E-02 |   0.158057E+02 |   0.100000E-04
   3 |   0.169454E+00 |   0.145410E+01 |   0.246403E+00 |   0.868954E-03 |   0.130478E+01 |   0.100000E-04
   4 |   0.240469E+00 |   0.319748E-01 |   0.768895E-02 |   0.516383E-03 |   0.460774E+00 |   0.100000E-04
   5 |   0.633941E+00 |   0.114082E-02 |   0.723209E-03 |   0.132400E-03 |   0.302916E-01 |   0.100000E-04
   6 |   0.349290E+00 |   0.248831E-03 |   0.869143E-04 |   0.858897E-04 |   0.127475E-01 |   0.100000E-04
   7 |   0.833946E+00 |   0.156890E-04 |   0.130837E-04 |   0.473240E-04 |   0.386997E-02 |   0.100000E-04
   8 |   0.538348E+00 |   0.168554E-04 |   0.907405E-05 |   0.223777E-04 |   0.865315E-03 |   0.100000E-04
   9 |   0.232652E+00 |   0.962170E-05 |   0.223851E-05 |   0.159546E-04 |   0.439863E-03 |   0.100000E-04
  10 |   0.406407E+00 |   0.161449E-05 |   0.656142E-06 |   0.728077E-05 |   0.916005E-04 |   0.100000E-04
  11 |   0.550004E+00 |   0.215639E-06 |   0.118603E-06 |   0.185631E-05 |   0.595449E-05 |   0.100000E-04

 Charges are converged, EXIT

%%%% DENSITY %%%%%%%%%%%%%%%%%%%%%%%%%%%%%%%%%%%%%%%%%%%%%%%%%%%%%%%%%%%%%%%%%%%

 density label              = velectrostatic                                    

 integral of density        =   0.1059235004E-13

%%%% CHARGES %%%%%%%%%%%%%%%%%%%%%%%%%%%%%%%%%%%%%%%%%%%%%%%%%%%%%%%%%%%%%%%%%%%

 total number of charges    =             11

 total charge               =      0.0000000

%%%% DENSITY %%%%%%%%%%%%%%%%%%%%%%%%%%%%%%%%%%%%%%%%%%%%%%%%%%%%%%%%%%%%%%%%%%%

 density label              = dvtot                                             

 integral of density        =  -0.1375268212E-12

%%%% ELECTRONS %%%%%%%%%%%%%%%%%%%%%%%%%%%%%%%%%%%%%%%%%%%%%%%%%%%%%%%%%%%%%%%%%

 number of electrons        =              8

 total electronic charge    =      8.0000000

%%%% ELECTRONS %%%%%%%%%%%%%%%%%%%%%%%%%%%%%%%%%%%%%%%%%%%%%%%%%%%%%%%%%%%%%%%%%

 number of electrons        =              8

 total electronic charge    =      8.0000000

%%%% CHARGES %%%%%%%%%%%%%%%%%%%%%%%%%%%%%%%%%%%%%%%%%%%%%%%%%%%%%%%%%%%%%%%%%%%

 total number of charges    =             11

 total charge               =     -0.0000000

%%%% CHARGES %%%%%%%%%%%%%%%%%%%%%%%%%%%%%%%%%%%%%%%%%%%%%%%%%%%%%%%%%%%%%%%%%%%

 total number of charges    =             11

 total charge               =     -0.0000000

%%%% DENSITY %%%%%%%%%%%%%%%%%%%%%%%%%%%%%%%%%%%%%%%%%%%%%%%%%%%%%%%%%%%%%%%%%%%

 density label              = vreference                                        

 integral of density        =   0.1703986746E-12

%%%% COMPUTE ELECTROSTATIC POTENTIAL %%%%%%%%%%%%%%%%%%%%%%%%%%%%%%%%%%%%%%%%%%%

 Warning: Bad guess with residual norm =   0.204121E+03, reset to no guess

   i |      alpha     |       pAp      |      rzold     |    delta_qm    |    delta_en    |       tol
 ---------------------------------------------------------------------------------------------------------
   1 |   0.976978E+00 |   0.292506E+02 |   0.285772E+02 |   0.106607E-01 |   0.196390E+03 |   0.100000E-04
   2 |   0.105566E+00 |   0.460138E+02 |   0.485751E+01 |   0.326585E-02 |   0.184305E+02 |   0.100000E-04
   3 |   0.156291E+00 |   0.199274E+01 |   0.311448E+00 |   0.856902E-03 |   0.126884E+01 |   0.100000E-04
   4 |   0.234171E+00 |   0.381844E-01 |   0.894165E-02 |   0.485022E-03 |   0.406506E+00 |   0.100000E-04
   5 |   0.647407E+00 |   0.993147E-03 |   0.642970E-03 |   0.136029E-03 |   0.319747E-01 |   0.100000E-04
   6 |   0.354055E+00 |   0.256082E-03 |   0.906671E-04 |   0.891792E-04 |   0.137427E-01 |   0.100000E-04
   7 |   0.783318E+00 |   0.173883E-04 |   0.136206E-04 |   0.493881E-04 |   0.421492E-02 |   0.100000E-04
   8 |   0.531251E+00 |   0.178830E-04 |   0.950037E-05 |   0.230327E-04 |   0.916713E-03 |   0.100000E-04
   9 |   0.203801E+00 |   0.195667E-04 |   0.398772E-05 |   0.158812E-04 |   0.435824E-03 |   0.100000E-04
  10 |   0.508784E+00 |   0.101302E-05 |   0.515410E-06 |   0.693633E-05 |   0.831387E-04 |   0.100000E-04
  11 |   0.538015E+00 |   0.197116E-06 |   0.106051E-06 |   0.191037E-05 |   0.630637E-05 |   0.100000E-04

 Charges are converged, EXIT

%%%% DENSITY %%%%%%%%%%%%%%%%%%%%%%%%%%%%%%%%%%%%%%%%%%%%%%%%%%%%%%%%%%%%%%%%%%%

 density label              = velectrostatic                                    

 integral of density        =  -0.3029017366E-12

%%%% CHARGES %%%%%%%%%%%%%%%%%%%%%%%%%%%%%%%%%%%%%%%%%%%%%%%%%%%%%%%%%%%%%%%%%%%

 total number of charges    =             11

 total charge               =     -0.0000000

%%%% DENSITY %%%%%%%%%%%%%%%%%%%%%%%%%%%%%%%%%%%%%%%%%%%%%%%%%%%%%%%%%%%%%%%%%%%

 density label              = dvtot                                             

 integral of density        =  -0.2189594956E-12

%%%% ELECTRONS %%%%%%%%%%%%%%%%%%%%%%%%%%%%%%%%%%%%%%%%%%%%%%%%%%%%%%%%%%%%%%%%%

 number of electrons        =              8

 total electronic charge    =      8.0000000

%%%% ELECTRONS %%%%%%%%%%%%%%%%%%%%%%%%%%%%%%%%%%%%%%%%%%%%%%%%%%%%%%%%%%%%%%%%%

 number of electrons        =              8

 total electronic charge    =      8.0000000

%%%% CHARGES %%%%%%%%%%%%%%%%%%%%%%%%%%%%%%%%%%%%%%%%%%%%%%%%%%%%%%%%%%%%%%%%%%%

 total number of charges    =             11

 total charge               =     -0.0000000

%%%% CHARGES %%%%%%%%%%%%%%%%%%%%%%%%%%%%%%%%%%%%%%%%%%%%%%%%%%%%%%%%%%%%%%%%%%%

 total number of charges    =             11

 total charge               =     -0.0000000

%%%% DENSITY %%%%%%%%%%%%%%%%%%%%%%%%%%%%%%%%%%%%%%%%%%%%%%%%%%%%%%%%%%%%%%%%%%%

 density label              = dvtot                                             

 integral of density        =  -0.2189594956E-12

%%%% DENSITY %%%%%%%%%%%%%%%%%%%%%%%%%%%%%%%%%%%%%%%%%%%%%%%%%%%%%%%%%%%%%%%%%%%

 density label              = vreference                                        

 integral of density        =   0.1703986746E-12

%%%% DENSITY %%%%%%%%%%%%%%%%%%%%%%%%%%%%%%%%%%%%%%%%%%%%%%%%%%%%%%%%%%%%%%%%%%%

 density label              = velectrostatic                                    

 integral of density        =  -0.3029017366E-12

%%%% CHARGES %%%%%%%%%%%%%%%%%%%%%%%%%%%%%%%%%%%%%%%%%%%%%%%%%%%%%%%%%%%%%%%%%%%

 total number of charges    =             11

 total charge               =     -0.0000000
