
     Program PWSCF v.6.1 (svn rev. 13547M) starts on 26Jul2017 at 23:39:16 

     This program is part of the open-source Quantum ESPRESSO suite
     for quantum simulation of materials; please cite
         "P. Giannozzi et al., J. Phys.:Condens. Matter 21 395502 (2009);
          URL http://www.quantum-espresso.org", 
     in publications or presentations arising from this work. More details at
     http://www.quantum-espresso.org/quote

     Serial version
     Reading input from pw.in

     Current dimensions of program PWSCF are:
     Max number of different atomic species (ntypx) = 10
     Max number of k-points (npk) =  40000
     Max angular momentum in pseudopotentials (lmaxx) =  3
               file H.pbe-rrkjus.UPF: wavefunction(s)  1S renormalized
               file O.pbe-rrkjus.UPF: wavefunction(s)  2S renormalized

     gamma-point specific algorithms are used

     G-vector sticks info
     --------------------
     sticks:   dense  smooth     PW     G-vecs:    dense   smooth      PW
     Sum        9549    3809    949               701475   177509   22119



     bravais-lattice index     =            1
     lattice parameter (alat)  =      20.0000  a.u.
     unit-cell volume          =    8000.0000 (a.u.)^3
     number of atoms/cell      =            3
     number of atomic types    =            2
     number of electrons       =         8.00
     number of Kohn-Sham states=            4
     kinetic-energy cutoff     =      30.0000  Ry
     charge density cutoff     =     300.0000  Ry
     convergence threshold     =      5.0E-03
     mixing beta               =       0.7000
     number of iterations used =            8  plain     mixing
     Exchange-correlation      =  SLA  PW   PBE  PBE ( 1  4  3  4 0 0)


     Environ Module
     ==============

     Plese cite
         O. Andreussi, I. Dabo and N. Marzari, J. Chem. Phys. 136, 064102 (2012)         
     in publications or presentations arising from this work.

     compensation onset threshold      =               0.1000E+03 
     switching function adopted        =                     SCCS 
     density limit for vacuum region   =               0.5000E-02 
     density limit for bulk solvent    =               0.1000E-03 
     static permittivity               =                   100.00 
     epsilon calculation mode          =               electronic 

     Electrostatic Setup
     -------------------
     electrostatic problem to solve    = generalized              
     numerical solver adopted          = cg                       
     type of auxiliary density adopted = none                     
     type of core tool for poisson     = fft                      
     type of core tool for s(r) deriv  = analytic                 



     celldm(1)=  20.000000  celldm(2)=   0.000000  celldm(3)=   0.000000
     celldm(4)=   0.000000  celldm(5)=   0.000000  celldm(6)=   0.000000

     crystal axes: (cart. coord. in units of alat)
               a(1) = (   1.000000   0.000000   0.000000 )  
               a(2) = (   0.000000   1.000000   0.000000 )  
               a(3) = (   0.000000   0.000000   1.000000 )  

     reciprocal axes: (cart. coord. in units 2 pi/alat)
               b(1) = (  1.000000  0.000000  0.000000 )  
               b(2) = (  0.000000  1.000000  0.000000 )  
               b(3) = (  0.000000  0.000000  1.000000 )  


     PseudoPot. # 1 for H  read from file:
     /Users/oliviero/PWSCF/espresso/Environ/tests/../..//pseudo/H.pbe-rrkjus.UPF
     MD5 check sum: 7cc9d459525c9a0585f487a71c3c9563
     Pseudo is Ultrasoft, Zval =  1.0
     Generated by new atomic code, or converted to UPF format
     Using radial grid of 1061 points,  2 beta functions with: 
                l(1) =   0
                l(2) =   0
     Q(r) pseudized with 0 coefficients 


     PseudoPot. # 2 for O  read from file:
     /Users/oliviero/PWSCF/espresso/Environ/tests/../..//pseudo/O.pbe-rrkjus.UPF
     MD5 check sum: 390ba29e75625707450f3bd3f0eb6be9
     Pseudo is Ultrasoft, Zval =  6.0
     Generated by new atomic code, or converted to UPF format
     Using radial grid of 1269 points,  4 beta functions with: 
                l(1) =   0
                l(2) =   0
                l(3) =   1
                l(4) =   1
     Q(r) pseudized with 0 coefficients 


     atomic species   valence    mass     pseudopotential
        H              1.00     1.00000     H ( 1.00)
        O              6.00    16.00000     O ( 1.00)

     No symmetry found



   Cartesian axes

     site n.     atom                  positions (alat units)
         1           O   tau(   1) = (   0.5895000   0.6025000   0.5750000  )
         2           H   tau(   2) = (   0.6725000   0.5610000   0.5750000  )
         3           H   tau(   3) = (   0.5280000   0.5330000   0.5750000  )

     number of k points=     1
                       cart. coord. in units 2pi/alat
        k(    1) = (   0.0000000   0.0000000   0.0000000), wk =   2.0000000

     Dense  grid:   350738 G-vectors     FFT dimensions: ( 120, 120, 120)

     Smooth grid:    88755 G-vectors     FFT dimensions: (  72,  72,  72)

     Estimated max dynamical RAM per process >     506.03MB

     Initial potential from superposition of free atoms
     Check: negative starting charge=   -0.000775

     starting charge    7.80759, renormalised to    8.00000

     negative rho (up, down):  7.936E-04 0.000E+00
     Starting wfc are    6 randomized atomic wfcs

     total cpu time spent up to now is       12.8 secs

     Self-consistent Calculation

     iteration #  1     ecut=    30.00 Ry     beta= 0.70
     Davidson diagonalization with overlap
     ethr =  1.00E-02,  avg # of iterations =  2.0

     negative rho (up, down):  2.595E-04 0.000E+00

     add environment contribution to local potential
     polarization accuracy = 4.4E-05, # of iterations =  10

     total cpu time spent up to now is       21.9 secs

     total energy              =     -34.06236055 Ry
     Harris-Foulkes estimate   =     -34.58697711 Ry
     estimated scf accuracy    <       0.68458994 Ry
     electrostatic embedding   =       0.00000000 Ry
     correction to one-el term =       0.00000000 Ry

     iteration #  2     ecut=    30.00 Ry     beta= 0.70
     Davidson diagonalization with overlap
     ethr =  8.56E-03,  avg # of iterations =  2.0

     negative rho (up, down):  2.656E-03 0.000E+00

     add environment contribution to local potential
     polarization accuracy = 1.2E-05, # of iterations =  11

     total cpu time spent up to now is       31.8 secs

     total energy              =     -34.21519834 Ry
     Harris-Foulkes estimate   =     -33.97959959 Ry
     estimated scf accuracy    <       0.35511787 Ry
     electrostatic embedding   =      -0.03412407 Ry
     correction to one-el term =      -0.38450951 Ry

     iteration #  3     ecut=    30.00 Ry     beta= 0.70
     Davidson diagonalization with overlap
     ethr =  4.44E-03,  avg # of iterations =  2.0

     negative rho (up, down):  2.206E-04 0.000E+00

     add environment contribution to local potential
     polarization accuracy = 3.7E-05, # of iterations =  11

     total cpu time spent up to now is       41.2 secs

     total energy              =     -34.28765829 Ry
     Harris-Foulkes estimate   =     -34.02161356 Ry
     estimated scf accuracy    <       0.01536203 Ry
     electrostatic embedding   =      -0.02912439 Ry
     correction to one-el term =      -0.24556208 Ry

     iteration #  4     ecut=    30.00 Ry     beta= 0.70
     Davidson diagonalization with overlap
     ethr =  1.92E-04,  avg # of iterations =  2.0

     negative rho (up, down):  2.142E-04 0.000E+00

     total cpu time spent up to now is       45.9 secs

     End of self-consistent calculation

          k = 0.0000 0.0000 0.0000 ( 11060 PWs)   bands (ev):

   -24.6072 -12.3807  -8.8347  -6.8649

     highest occupied level (ev):    -6.8649

!    total energy              =     -34.29562479 Ry
     Harris-Foulkes estimate   =     -34.21052876 Ry
     estimated scf accuracy    <       0.00017536 Ry

     The total energy is the sum of the following terms:

     one-electron contribution =     -63.83078853 Ry
     hartree contribution      =      33.45956450 Ry
     xc contribution           =      -8.39662306 Ry
     ewald contribution        =       4.55735774 Ry
     electrostatic embedding   =      -0.03350700 Ry
     correction to one-el term =      -0.05162844 Ry

     convergence has been achieved in   4 iterations

     Forces acting on atoms (cartesian axes, Ry/au):

     atom    1 type  2   force =     0.00237832   -0.01239837   -0.00000600
     atom    2 type  1   force =    -0.00872447    0.00471654    0.00000271
     atom    3 type  1   force =     0.00634614    0.00768184    0.00000329

     Total force =     0.018895     Total SCF correction =     0.023073
     SCF correction compared to forces is large: reduce conv_thr to get better values

     Writing output data file pwscf.save

     init_run     :     12.27s CPU     12.62s WALL (       1 calls)
     electrons    :     31.36s CPU     33.36s WALL (       1 calls)
     forces       :      2.31s CPU      2.46s WALL (       1 calls)

     Called by init_run:
     wfcinit      :      0.09s CPU      0.09s WALL (       1 calls)
     potinit      :      2.16s CPU      2.27s WALL (       1 calls)

     Called by electrons:
     c_bands      :      0.68s CPU      0.68s WALL (       4 calls)
     sum_band     :      4.25s CPU      4.28s WALL (       4 calls)
     v_of_rho     :      7.40s CPU      7.82s WALL (       5 calls)
     newd         :      2.46s CPU      2.89s WALL (       5 calls)
     mix_rho      :      0.57s CPU      0.63s WALL (       4 calls)

     Called by c_bands:
     init_us_2    :      0.07s CPU      0.08s WALL (       9 calls)
     regterg      :      0.58s CPU      0.57s WALL (       4 calls)

     Called by sum_band:
     sum_band:bec :      0.00s CPU      0.00s WALL (       4 calls)
     addusdens    :      3.10s CPU      3.10s WALL (       4 calls)

     Called by *egterg:
     h_psi        :      0.60s CPU      0.60s WALL (      13 calls)
     s_psi        :      0.01s CPU      0.01s WALL (      13 calls)
     g_psi        :      0.01s CPU      0.01s WALL (       8 calls)
     rdiaghg      :      0.00s CPU      0.00s WALL (      12 calls)

     Called by h_psi:
     h_psi:pot    :      0.58s CPU      0.58s WALL (      13 calls)
     h_psi:calbec :      0.01s CPU      0.01s WALL (      13 calls)
     vloc_psi     :      0.56s CPU      0.57s WALL (      13 calls)
     add_vuspsi   :      0.01s CPU      0.01s WALL (      13 calls)

     General routines
     calbec       :      0.01s CPU      0.01s WALL (      21 calls)
     fft          :     11.56s CPU     11.61s WALL (     193 calls)
     ffts         :      0.09s CPU      0.09s WALL (       9 calls)
     fftw         :      0.39s CPU      0.39s WALL (      62 calls)
     interpolate  :      0.75s CPU      0.80s WALL (       9 calls)


     Environ routines
     calc_eelect  :      0.41s CPU      0.41s WALL (       8 calls)
     calc_velect  :     10.59s CPU     11.35s WALL (       6 calls)
     dielectric   :      1.26s CPU      1.35s WALL (       5 calls)

     PWSCF        :    46.18s CPU        48.84s WALL


   This run was terminated on:  23:40: 5  26Jul2017            

=------------------------------------------------------------------------------=
   JOB DONE.
=------------------------------------------------------------------------------=

%%%% IONS %%%%%%%%%%%%%%%%%%%%%%%%%%%%%%%%%%%%%%%%%%%%%%%%%%%%%%%%%%%%%%%%%%%%%%
 number of ions             =          3
 total ionic charge         =     -8.0000000
 ionic center of charge     =      0.5921875     0.5886250     0.5750000
 ion   1 type =  2 coordinates =      0.5895000     0.6025000     0.5750000
 ion   2 type =  1 coordinates =      0.6725000     0.5610000     0.5750000
 ion   3 type =  1 coordinates =      0.5280000     0.5330000     0.5750000

%%%% SYSTEM %%%%%%%%%%%%%%%%%%%%%%%%%%%%%%%%%%%%%%%%%%%%%%%%%%%%%%%%%%%%%%%%%%%%
 system is built from all present ionic types
 system defined dimension   =  0 
 system defined axis        =  3 
 system center              =      0.5921875     0.5886250     0.5750000 
 system width               =      0.1209428 

%%%% ELECTRONS %%%%%%%%%%%%%%%%%%%%%%%%%%%%%%%%%%%%%%%%%%%%%%%%%%%%%%%%%%%%%%%%%
 number of electrons        =          8
 total electronic charge    =      8.0000000
 number of spin components  =  1

%%%% BOUNDARY %%%%%%%%%%%%%%%%%%%%%%%%%%%%%%%%%%%%%%%%%%%%%%%%%%%%%%%%%%%%%%%%%%
 boundary mode              = electronic           
 boundary is built as a function of a smooth density
 function type              =  1 
 using the optimal SCCS function with parameters 
 rhomax                     =      0.0050000 
 rhomin                     =      0.0001000 

%%%% DIELECTRIC %%%%%%%%%%%%%%%%%%%%%%%%%%%%%%%%%%%%%%%%%%%%%%%%%%%%%%%%%%%%%%%%%
 dielectric build on homogeneous background
 environment bulk permitt.  =    100.0000000 
 dielectric flags
 need gradient              =  F 
 need factor depend. sqrt   =  T 
 need gradient of logarithm =  T 

%%%% COMPUTE ELECTROSTATIC POTENTIAL %%%%%%%%%%%%%%%%%%%%%%%%%%%%%%%%%%%%%%%%%%%
 Iteration #          1
  pAp =  26.724011334975515  rzold =  26.16220247367455  alpha =  0.9789773752802714
 delta_qm =   0.832724E-02 delta_en =   0.119825E+03 tol =   0.100000E-03
 Iteration #          2
  pAp =  26.707037563389875  rzold =  3.369321182604648  alpha =  0.12615855182767738
 delta_qm =   0.276282E-02 delta_en =   0.131901E+02 tol =   0.100000E-03
 Iteration #          3
  pAp =  1.660848711181897  rzold =  0.23569829128796896  alpha =  0.14191436564998192
 delta_qm =   0.788670E-03 delta_en =   0.107482E+01 tol =   0.100000E-03
 Iteration #          4
  pAp =  0.03307114949229045  rzold =  0.008575399290711414  alpha =  0.2593015187666976
 delta_qm =   0.436589E-03 delta_en =   0.329375E+00 tol =   0.100000E-03
 Iteration #          5
  pAp =  0.0012080552383062554  rzold =  0.0007160170679438862  alpha =  0.5927022583402498
 delta_qm =   0.126505E-03 delta_en =   0.276541E-01 tol =   0.100000E-03
 Iteration #          6
  pAp =  0.0002196878463506331  rzold =  0.00008600578801401762  alpha =  0.3914908787295769
 delta_qm =   0.716146E-04 delta_en =   0.886232E-02 tol =   0.100000E-03
 Iteration #          7
  pAp =  0.000006787982503917407  rzold =  0.000007230075961584196  alpha =  1.065128844603187
 delta_qm =   0.330558E-04 delta_en =   0.188816E-02 tol =   0.100000E-03
 Iteration #          8
  pAp =  0.00000969493497315803  rzold =  0.0000042656396193120725  alpha =  0.4399864084825916
 delta_qm =   0.176526E-04 delta_en =   0.538472E-03 tol =   0.100000E-03
 Iteration #          9
  pAp =  0.000006747667008991094  rzold =  0.000001942166141500256  alpha =  0.2878277986913654
 delta_qm =   0.957677E-05 delta_en =   0.158483E-03 tol =   0.100000E-03
 Iteration #         10
  pAp =  0.000001207006713906286  rzold =  3.878621633882048E-7  alpha =  0.3213421755815677
 delta_qm =   0.502009E-05 delta_en =   0.435479E-04 tol =   0.100000E-03
 Charges are converged, exit!

%%%% ELECTRONS %%%%%%%%%%%%%%%%%%%%%%%%%%%%%%%%%%%%%%%%%%%%%%%%%%%%%%%%%%%%%%%%%
 number of electrons        =          8
 total electronic charge    =      8.0000000
 number of spin components  =  1

%%%% BOUNDARY %%%%%%%%%%%%%%%%%%%%%%%%%%%%%%%%%%%%%%%%%%%%%%%%%%%%%%%%%%%%%%%%%%
 boundary mode              = electronic           
 boundary is built as a function of a smooth density
 function type              =  1 
 using the optimal SCCS function with parameters 
 rhomax                     =      0.0050000 
 rhomin                     =      0.0001000 

%%%% DIELECTRIC %%%%%%%%%%%%%%%%%%%%%%%%%%%%%%%%%%%%%%%%%%%%%%%%%%%%%%%%%%%%%%%%%
 dielectric build on homogeneous background
 environment bulk permitt.  =    100.0000000 
 dielectric flags
 need gradient              =  F 
 need factor depend. sqrt   =  T 
 need gradient of logarithm =  T 

%%%% COMPUTE ELECTROSTATIC POTENTIAL %%%%%%%%%%%%%%%%%%%%%%%%%%%%%%%%%%%%%%%%%%%
 Warning: bad guess with residual norm =   0.897820E+01, reset to no guess
 Iteration #          1
  pAp =  28.94271983859607  rzold =  28.528477054397218  alpha =  0.9856874963200091
 delta_qm =   0.102055E-01 delta_en =   0.179975E+03 tol =   0.100000E-03
 Iteration #          2
  pAp =  19.85667331348078  rzold =  2.5088999783436154  alpha =  0.12635046861753588
 delta_qm =   0.321047E-02 delta_en =   0.178107E+02 tol =   0.100000E-03
 Iteration #          3
  pAp =  1.1594377582010924  rzold =  0.16518794583120958  alpha =  0.14247245672549458
 delta_qm =   0.100500E-02 delta_en =   0.174531E+01 tol =   0.100000E-03
 Iteration #          4
  pAp =  0.0295699074211134  rzold =  0.007212068079323134  alpha =  0.24389890629733926
 delta_qm =   0.590687E-03 delta_en =   0.602918E+00 tol =   0.100000E-03
 Iteration #          5
  pAp =  0.0009753838961487745  rzold =  0.0005920799004623986  alpha =  0.6070224275797241
 delta_qm =   0.208494E-03 delta_en =   0.751157E-01 tol =   0.100000E-03
 Iteration #          6
  pAp =  0.00017919792372022065  rzold =  0.0000681639552027385  alpha =  0.38038362157120736
 delta_qm =   0.146228E-03 delta_en =   0.369494E-01 tol =   0.100000E-03
 Iteration #          7
  pAp =  0.000011656125004736907  rzold =  0.000010337900256302762  alpha =  0.8869071198276929
 delta_qm =   0.750052E-04 delta_en =   0.972136E-02 tol =   0.100000E-03
 Iteration #          8
  pAp =  0.000018821466655177464  rzold =  0.000008797179094884284  alpha =  0.4674013590999472
 delta_qm =   0.282924E-04 delta_en =   0.138319E-02 tol =   0.100000E-03
 Iteration #          9
  pAp =  0.0000033245629854269353  rzold =  0.0000014613631372619546  alpha =  0.4395654838448755
 delta_qm =   0.145871E-04 delta_en =   0.367689E-03 tol =   0.100000E-03
 Iteration #         10
  pAp =  0.000002441120454360965  rzold =  5.500257082734704E-7  alpha =  0.22531690613253896
 delta_qm =   0.919450E-05 delta_en =   0.146083E-03 tol =   0.100000E-03
 Iteration #         11
  pAp =  1.5041240055674568E-7  rzold =  9.242840958718952E-8  alpha =  0.6144999298267253
 delta_qm =   0.268060E-05 delta_en =   0.124168E-04 tol =   0.100000E-03
 Charges are converged, exit!

%%%% ELECTRONS %%%%%%%%%%%%%%%%%%%%%%%%%%%%%%%%%%%%%%%%%%%%%%%%%%%%%%%%%%%%%%%%%
 number of electrons        =          8
 total electronic charge    =      8.0000000
 number of spin components  =  1

%%%% BOUNDARY %%%%%%%%%%%%%%%%%%%%%%%%%%%%%%%%%%%%%%%%%%%%%%%%%%%%%%%%%%%%%%%%%%
 boundary mode              = electronic           
 boundary is built as a function of a smooth density
 function type              =  1 
 using the optimal SCCS function with parameters 
 rhomax                     =      0.0050000 
 rhomin                     =      0.0001000 

%%%% DIELECTRIC %%%%%%%%%%%%%%%%%%%%%%%%%%%%%%%%%%%%%%%%%%%%%%%%%%%%%%%%%%%%%%%%%
 dielectric build on homogeneous background
 environment bulk permitt.  =    100.0000000 
 dielectric flags
 need gradient              =  F 
 need factor depend. sqrt   =  T 
 need gradient of logarithm =  T 

%%%% COMPUTE ELECTROSTATIC POTENTIAL %%%%%%%%%%%%%%%%%%%%%%%%%%%%%%%%%%%%%%%%%%%
 Warning: bad guess with residual norm =   0.145985E+03, reset to no guess
 Iteration #          1
  pAp =  28.838284808014517  rzold =  28.404167008004475  alpha =  0.9849464764322808
 delta_qm =   0.106348E-01 delta_en =   0.195433E+03 tol =   0.100000E-03
 Iteration #          2
  pAp =  19.47104552792082  rzold =  2.556435913711822  alpha =  0.13129422916945985
 delta_qm =   0.257409E-02 delta_en =   0.114497E+02 tol =   0.100000E-03
 Iteration #          3
  pAp =  1.5327074722928549  rzold =  0.1774342138681201  alpha =  0.11576521748320785
 delta_qm =   0.921777E-03 delta_en =   0.146824E+01 tol =   0.100000E-03
 Iteration #          4
  pAp =  0.053716738197876666  rzold =  0.011040491720784853  alpha =  0.20553168511674944
 delta_qm =   0.538564E-03 delta_en =   0.501209E+00 tol =   0.100000E-03
 Iteration #          5
  pAp =  0.0011898810331284848  rzold =  0.0007000508508019428  alpha =  0.5883368431895581
 delta_qm =   0.190553E-03 delta_en =   0.627444E-01 tol =   0.100000E-03
 Iteration #          6
  pAp =  0.0004247598045050349  rzold =  0.00014031144757923776  alpha =  0.3303312745016921
 delta_qm =   0.132116E-03 delta_en =   0.301616E-01 tol =   0.100000E-03
 Iteration #          7
  pAp =  0.000021567572063181824  rzold =  0.000013880250469293517  alpha =  0.6435703763331156
 delta_qm =   0.898142E-04 delta_en =   0.139391E-01 tol =   0.100000E-03
 Iteration #          8
  pAp =  0.000019792787942799606  rzold =  0.000012429064461972924  alpha =  0.62795925959963
 delta_qm =   0.350859E-04 delta_en =   0.212721E-02 tol =   0.100000E-03
 Iteration #          9
  pAp =  0.000011668618678428662  rzold =  0.000004038172586535424  alpha =  0.34607117584540165
 delta_qm =   0.226048E-04 delta_en =   0.882965E-03 tol =   0.100000E-03
 Iteration #         10
  pAp =  0.000009130284667711477  rzold =  0.0000020632435885852275  alpha =  0.22597801313706284
 delta_qm =   0.148792E-04 delta_en =   0.382563E-03 tol =   0.100000E-03
 Iteration #         11
  pAp =  3.045080356242779E-7  rzold =  2.155804244509661E-7  alpha =  0.7079630066543251
 delta_qm =   0.463648E-05 delta_en =   0.371467E-04 tol =   0.100000E-03
 Charges are converged, exit!

%%%% ELECTRONS %%%%%%%%%%%%%%%%%%%%%%%%%%%%%%%%%%%%%%%%%%%%%%%%%%%%%%%%%%%%%%%%%
 number of electrons        =          8
 total electronic charge    =      8.0000000
 number of spin components  =  1

%%%% BOUNDARY %%%%%%%%%%%%%%%%%%%%%%%%%%%%%%%%%%%%%%%%%%%%%%%%%%%%%%%%%%%%%%%%%%
 boundary mode              = electronic           
 boundary is built as a function of a smooth density
 function type              =  1 
 using the optimal SCCS function with parameters 
 rhomax                     =      0.0050000 
 rhomin                     =      0.0001000 

%%%% DIELECTRIC %%%%%%%%%%%%%%%%%%%%%%%%%%%%%%%%%%%%%%%%%%%%%%%%%%%%%%%%%%%%%%%%%
 dielectric build on homogeneous background
 environment bulk permitt.  =    100.0000000 
 dielectric flags
 need gradient              =  F 
 need factor depend. sqrt   =  T 
 need gradient of logarithm =  T 
