
     Program PWSCF v.6.1 (svn rev. 13369) starts on 14Nov2017 at 14:39:47 

     This program is part of the open-source Quantum ESPRESSO suite
     for quantum simulation of materials; please cite
         "P. Giannozzi et al., J. Phys.:Condens. Matter 21 395502 (2009);
          URL http://www.quantum-espresso.org", 
     in publications or presentations arising from this work. More details at
     http://www.quantum-espresso.org/quote

     Parallel version (MPI), running on     1 processors
     Reading input from charged.in

     Current dimensions of program PWSCF are:
     Max number of different atomic species (ntypx) = 10
     Max number of k-points (npk) =  40000
     Max angular momentum in pseudopotentials (lmaxx) =  3
               file C.pbe-rrkjus.UPF: wavefunction(s)  2S 2P renormalized
               file H.pbe-rrkjus.UPF: wavefunction(s)  1S renormalized
               file N.pbe-rrkjus.UPF: wavefunction(s)  2S renormalized
               file O.pbe-rrkjus.UPF: wavefunction(s)  2S renormalized

     gamma-point specific algorithms are used

     Subspace diagonalization in iterative solution of the eigenvalue problem:
     a serial algorithm will be used

 
     G-vector sticks info
     --------------------
     sticks:   dense  smooth     PW     G-vecs:    dense   smooth      PW
     Sum        9549    3809    949               701475   177509   22119
 


     bravais-lattice index     =            1
     lattice parameter (alat)  =      20.0000  a.u.
     unit-cell volume          =    8000.0000 (a.u.)^3
     number of atoms/cell      =           10
     number of atomic types    =            4
     number of electrons       =        24.00
     number of Kohn-Sham states=           12
     kinetic-energy cutoff     =      30.0000  Ry
     charge density cutoff     =     300.0000  Ry
     convergence threshold     =      5.0E-03
     mixing beta               =       0.7000
     number of iterations used =            8  plain     mixing
     Exchange-correlation      =  SLA  PW   PBE  PBE ( 1  4  3  4 0 0)
 

     Environ Module
     ==============

     Plese cite
         O. Andreussi, I. Dabo and N. Marzari, J. Chem. Phys. 136, 064102 (2012)         
     in publications or presentations arising from this work.

     compensation onset threshold      =               0.1000E+03 
     static permittivity               =                   100.00 
     epsilon calculation mode          =               electronic 

     Electrostatic Setup
     -------------------
     electrostatic problem to solve    = generalized              
     numerical solver adopted          = sd                       
     type of auxiliary density adopted = none                     
     type of core tool for poisson     = fft                      
     type of core tool for s(r) deriv  = analytic                 



     celldm(1)=  20.000000  celldm(2)=   0.000000  celldm(3)=   0.000000
     celldm(4)=   0.000000  celldm(5)=   0.000000  celldm(6)=   0.000000

     crystal axes: (cart. coord. in units of alat)
               a(1) = (   1.000000   0.000000   0.000000 )  
               a(2) = (   0.000000   1.000000   0.000000 )  
               a(3) = (   0.000000   0.000000   1.000000 )  

     reciprocal axes: (cart. coord. in units 2 pi/alat)
               b(1) = (  1.000000  0.000000  0.000000 )  
               b(2) = (  0.000000  1.000000  0.000000 )  
               b(3) = (  0.000000  0.000000  1.000000 )  


     PseudoPot. # 1 for C  read from file:
     /home/andreo/PWSCF/espresso-6.1-Environ-1.0/Environ/tests/../..//pseudo/C.pbe-rrkjus.UPF
     MD5 check sum: 00fb224312de0c5b6853bd333518df6f
     Pseudo is Ultrasoft, Zval =  4.0
     Generated by new atomic code, or converted to UPF format
     Using radial grid of  627 points,  4 beta functions with: 
                l(1) =   0
                l(2) =   0
                l(3) =   1
                l(4) =   1
     Q(r) pseudized with 0 coefficients 


     PseudoPot. # 2 for H  read from file:
     /home/andreo/PWSCF/espresso-6.1-Environ-1.0/Environ/tests/../..//pseudo/H.pbe-rrkjus.UPF
     MD5 check sum: 7cc9d459525c9a0585f487a71c3c9563
     Pseudo is Ultrasoft, Zval =  1.0
     Generated by new atomic code, or converted to UPF format
     Using radial grid of 1061 points,  2 beta functions with: 
                l(1) =   0
                l(2) =   0
     Q(r) pseudized with 0 coefficients 


     PseudoPot. # 3 for N  read from file:
     /home/andreo/PWSCF/espresso-6.1-Environ-1.0/Environ/tests/../..//pseudo/N.pbe-rrkjus.UPF
     MD5 check sum: 0c3fbe5807a93f9ba59d5a7019aa238b
     Pseudo is Ultrasoft, Zval =  5.0
     Generated by new atomic code, or converted to UPF format
     Using radial grid of 1257 points,  4 beta functions with: 
                l(1) =   0
                l(2) =   0
                l(3) =   1
                l(4) =   1
     Q(r) pseudized with 0 coefficients 


     PseudoPot. # 4 for O  read from file:
     /home/andreo/PWSCF/espresso-6.1-Environ-1.0/Environ/tests/../..//pseudo/O.pbe-rrkjus.UPF
     MD5 check sum: 390ba29e75625707450f3bd3f0eb6be9
     Pseudo is Ultrasoft, Zval =  6.0
     Generated by new atomic code, or converted to UPF format
     Using radial grid of 1269 points,  4 beta functions with: 
                l(1) =   0
                l(2) =   0
                l(3) =   1
                l(4) =   1
     Q(r) pseudized with 0 coefficients 


     atomic species   valence    mass     pseudopotential
        C              4.00    12.00000     C ( 1.00)
        H              1.00     1.00000     H ( 1.00)
        N              5.00    14.00000     N ( 1.00)
        O              6.00    16.00000     O ( 1.00)

     No symmetry found



   Cartesian axes

     site n.     atom                  positions (alat units)
         1           C   tau(   1) = (   0.0000000   0.0000000   0.0000000  )
         2           C   tau(   2) = (   0.0000000   0.0000000   0.1455089  )
         3           N   tau(   3) = (   0.1170969   0.0000000  -0.0545024  )
         4           H   tau(   4) = (   0.0476617  -0.0825466   0.1792090  )
         5           H   tau(   5) = (  -0.0953183  -0.0000030   0.1792090  )
         6           H   tau(   6) = (   0.0476566   0.0825496   0.1792090  )
         7           O   tau(   7) = (  -0.0984002  -0.0000019  -0.0641310  )
         8           H   tau(   8) = (   0.1263131  -0.0000015  -0.1475548  )
         9           H   tau(   9) = (   0.1944645   0.0000134  -0.0025716  )
        10           H   tau(  10) = (  -0.0770366  -0.0000045  -0.1522861  )

     number of k points=     1
                       cart. coord. in units 2pi/alat
        k(    1) = (   0.0000000   0.0000000   0.0000000), wk =   2.0000000

     Dense  grid:   350738 G-vectors     FFT dimensions: ( 120, 120, 120)

     Smooth grid:    88755 G-vectors     FFT dimensions: (  72,  72,  72)

     Estimated max dynamical RAM per process >     298.98MB

     Initial potential from superposition of free atoms
     Check: negative starting charge=   -0.000452

     starting charge   24.42266, renormalised to   24.00000

     negative rho (up, down):  4.438E-04 0.000E+00
     Starting wfc are   22 randomized atomic wfcs

     total cpu time spent up to now is        3.5 secs

     per-process dynamical memory:   584.0 Mb

     Self-consistent Calculation

     iteration #  1     ecut=    30.00 Ry     beta=0.70
     Davidson diagonalization with overlap
     ethr =  1.00E-02,  avg # of iterations =  2.0

     negative rho (up, down):  1.277E-04 0.000E+00

     add environment contribution to local potential
     polarization accuracy = 6.2E-06, # of iterations =  41

     total cpu time spent up to now is       11.1 secs

     total energy              =     -80.23660198 Ry
     Harris-Foulkes estimate   =     -83.01879009 Ry
     estimated scf accuracy    <       3.73442311 Ry
     electrostatic embedding   =       0.00242983 Ry
     correction to one-el term =       0.00000000 Ry

     iteration #  2     ecut=    30.00 Ry     beta=0.70
     Davidson diagonalization with overlap
     ethr =  1.00E-02,  avg # of iterations =  4.0

     negative rho (up, down):  6.920E-04 0.000E+00

     add environment contribution to local potential
     polarization accuracy = 6.4E-06, # of iterations =  59

     total cpu time spent up to now is       21.0 secs

     total energy              =     -80.98870029 Ry
     Harris-Foulkes estimate   =     -76.58371442 Ry
     estimated scf accuracy    <       1.54143272 Ry
     electrostatic embedding   =      -0.16310777 Ry
     correction to one-el term =      -5.06730190 Ry

     iteration #  3     ecut=    30.00 Ry     beta=0.70
     Davidson diagonalization with overlap
     ethr =  6.42E-03,  avg # of iterations =  3.0

     negative rho (up, down):  3.243E-04 0.000E+00

     add environment contribution to local potential
     polarization accuracy = 7.7E-06, # of iterations =  73

     total cpu time spent up to now is       32.9 secs

     total energy              =     -81.33023053 Ry
     Harris-Foulkes estimate   =     -77.00545845 Ry
     estimated scf accuracy    <       0.24273730 Ry
     electrostatic embedding   =      -0.13600472 Ry
     correction to one-el term =      -4.31816806 Ry

     iteration #  4     ecut=    30.00 Ry     beta=0.70
     Davidson diagonalization with overlap
     ethr =  1.01E-03,  avg # of iterations =  4.0

     negative rho (up, down):  8.667E-05 0.000E+00

     add environment contribution to local potential
     polarization accuracy = 8.2E-06, # of iterations =  89

     total cpu time spent up to now is       46.5 secs

     total energy              =     -81.38019776 Ry
     Harris-Foulkes estimate   =     -77.20728856 Ry
     estimated scf accuracy    <       0.02093634 Ry
     electrostatic embedding   =      -0.12301808 Ry
     correction to one-el term =      -4.06052526 Ry

     iteration #  5     ecut=    30.00 Ry     beta=0.70
     Davidson diagonalization with overlap
     ethr =  8.72E-05,  avg # of iterations =  4.0

     negative rho (up, down):  2.756E-04 0.000E+00

     total cpu time spent up to now is       48.9 secs

     End of self-consistent calculation

          k = 0.0000 0.0000 0.0000 ( 11060 PWs)   bands (ev):

   -28.9375 -23.1992 -18.6810 -16.0122 -14.7185 -13.4442 -11.7059 -10.9635
    -9.6059  -9.5911  -9.3542  -7.4402

     highest occupied level (ev):    -7.4402

!    total energy              =     -81.38466907 Ry
     Harris-Foulkes estimate   =     -77.44083308 Ry
     estimated scf accuracy    <       0.00247568 Ry

     The total energy is the sum of the following terms:

     one-electron contribution =    -241.93635275 Ry
     hartree contribution      =     123.13421438 Ry
     xc contribution           =     -22.94468834 Ry
     ewald contribution        =      64.30784006 Ry
     electrostatic embedding   =      -0.12261400 Ry
     correction to one-el term =      -3.82306842 Ry

     convergence has been achieved in   5 iterations

     Forces acting on atoms (cartesian axes, Ry/au):

     atom    1 type  1   force =     0.21833954    0.00001204    0.09997048
     atom    2 type  1   force =    -0.03323585   -0.00000468   -0.08063112
     atom    3 type  3   force =    -0.13914470   -0.00000059    0.04521487
     atom    4 type  2   force =     0.01776085   -0.02856702    0.00858971
     atom    5 type  2   force =    -0.03291016   -0.00000261    0.01192238
     atom    6 type  2   force =     0.01776428    0.02857269    0.00859097
     atom    7 type  4   force =    -0.08357384   -0.00003013   -0.01003399
     atom    8 type  2   force =     0.00524198    0.00000586   -0.04816208
     atom    9 type  2   force =     0.03845090    0.00001016    0.03891683
     atom   10 type  2   force =    -0.00869300    0.00000426   -0.07437805

     Total force =     0.329161     Total SCF correction =     0.120926
     SCF correction compared to forces is large: reduce conv_thr to get better values

     Writing output data file pwscf.save
 
     init_run     :      3.17s CPU      3.38s WALL (       1 calls)
     electrons    :     43.24s CPU     47.48s WALL (       1 calls)
     forces       :      1.30s CPU      1.34s WALL (       1 calls)

     Called by init_run:
     wfcinit      :      0.13s CPU      0.13s WALL (       1 calls)
     potinit      :      0.94s CPU      0.97s WALL (       1 calls)

     Called by electrons:
     c_bands      :      1.20s CPU      1.19s WALL (       5 calls)
     sum_band     :      3.40s CPU      3.61s WALL (       5 calls)
     v_of_rho     :      3.94s CPU      4.03s WALL (       6 calls)
     newd         :      1.72s CPU      1.97s WALL (       6 calls)
     mix_rho      :      0.37s CPU      0.37s WALL (       5 calls)

     Called by c_bands:
     init_us_2    :      0.04s CPU      0.04s WALL (      11 calls)
     regterg      :      1.12s CPU      1.12s WALL (       5 calls)

     Called by sum_band:
     sum_band:bec :      0.00s CPU      0.00s WALL (       5 calls)
     addusdens    :      2.60s CPU      2.80s WALL (       5 calls)

     Called by *egterg:
     h_psi        :      1.07s CPU      1.09s WALL (      23 calls)
     s_psi        :      0.04s CPU      0.03s WALL (      23 calls)
     g_psi        :      0.02s CPU      0.01s WALL (      17 calls)
     rdiaghg      :      0.01s CPU      0.01s WALL (      22 calls)

     Called by h_psi:
     h_psi:pot    :      1.07s CPU      1.08s WALL (      23 calls)
     h_psi:calbec :      0.05s CPU      0.04s WALL (      23 calls)
     vloc_psi     :      1.01s CPU      1.01s WALL (      23 calls)
     add_vuspsi   :      0.01s CPU      0.03s WALL (      23 calls)

     General routines
     calbec       :      0.07s CPU      0.06s WALL (      32 calls)
     fft          :     19.72s CPU     20.39s WALL (     683 calls)
     ffts         :      0.06s CPU      0.06s WALL (      11 calls)
     fftw         :      0.90s CPU      0.88s WALL (     244 calls)
     interpolate  :      0.44s CPU      0.46s WALL (      11 calls)
     davcio       :      0.00s CPU      0.00s WALL (       1 calls)
 
     Parallel routines
     fft_scatter  :      4.08s CPU      4.44s WALL (     938 calls)
 
     Environ routines
     calc_eelect  :      0.02s CPU      0.02s WALL (      10 calls)
     calc_velect  :     29.34s CPU     31.00s WALL (       8 calls)
     dielectric   :      0.31s CPU      0.30s WALL (       6 calls)
     calc_felect  :      0.33s CPU      0.34s WALL (       1 calls)
 
     PWSCF        :    47.96s CPU        57.54s WALL

 
   This run was terminated on:  14:40:45  14Nov2017            

=------------------------------------------------------------------------------=
   JOB DONE.
=------------------------------------------------------------------------------=

%%%% IONS %%%%%%%%%%%%%%%%%%%%%%%%%%%%%%%%%%%%%%%%%%%%%%%%%%%%%%%%%%%%%%%%%%%%%%
 number of ions             =         10
 ionic center of charge     =      0.0095530    -0.0000002     0.0063981
 total ionic charge         =    -25.0000000
 ionic dipole               =      0.0000000     0.0000000     0.0000000
 ionic quadrupole (pc)      =    -79.0828058    -5.4513517  -105.8059629
 ionic quadrupole (gauss)   =    -82.2078058    -8.5763517  -108.9309629
 ion   1 type =  1 coordinates =      0.0000000     0.0000000     0.0000000
 ion   2 type =  1 coordinates =      0.0000000     0.0000000     2.9101782
 ion   3 type =  3 coordinates =      2.3419379     0.0000000    -1.0900479
 ion   4 type =  2 coordinates =      0.9532347    -1.6509323     3.5841800
 ion   5 type =  2 coordinates =     -1.9063663    -0.0000596     3.5841809
 ion   6 type =  2 coordinates =      0.9531315     1.6509919     3.5841800
 ion   7 type =  4 coordinates =     -1.9680045    -0.0000375    -1.2826193
 ion   8 type =  2 coordinates =      2.5262613    -0.0000303    -2.9510950
 ion   9 type =  2 coordinates =      3.8892907     0.0002681    -0.0514326
 ion  10 type =  2 coordinates =     -1.5407317    -0.0000890    -3.0457220

%%%% SYSTEM %%%%%%%%%%%%%%%%%%%%%%%%%%%%%%%%%%%%%%%%%%%%%%%%%%%%%%%%%%%%%%%%%%%%
 system is built from all present ionic types
 system defined dimension   =  0 
 system defined axis        =  3 
 system center              =      0.0095530    -0.0000002     0.0063981 
 system width               =      0.5223840 

%%%% ELECTRONS %%%%%%%%%%%%%%%%%%%%%%%%%%%%%%%%%%%%%%%%%%%%%%%%%%%%%%%%%%%%%%%%%
 number of electrons        =         24
 total electronic charge    =     24.0000000
 number of spin components  =  1

%%%% BOUNDARY %%%%%%%%%%%%%%%%%%%%%%%%%%%%%%%%%%%%%%%%%%%%%%%%%%%%%%%%%%%%%%%%%%
 boundary mode              = electronic           
 boundary is built as a function of a smooth density
 function type              =  2 
 using the modified SCCS function with parameters 
 rhomax                     =      0.0050000 
 rhomin                     =      0.0001000 
 volume of the QM region    =    989.6663489 
 surface of the QM region   =    490.3846933 

%%%% DIELECTRIC %%%%%%%%%%%%%%%%%%%%%%%%%%%%%%%%%%%%%%%%%%%%%%%%%%%%%%%%%%%%%%%%%
 dielectric build on homogeneous background
 environment bulk permitt.  =    100.0000000 
 dielectric flags
 need gradient              =  F 
 need factor depend. sqrt   =  T 
 need gradient of logarithm =  T 

%%%% COMPUTE ELECTROSTATIC POTENTIAL %%%%%%%%%%%%%%%%%%%%%%%%%%%%%%%%%%%%%%%%%%%
 Iteration #          1
  pAp =    92.0128432578588       rzold =    89.1168179276141       alpha = 
  0.968525857611760     
 delta_qm =   0.144051E-01 delta_en =   0.358571E+03 tol =   0.100000E-04
 Iteration #          2
  pAp =    136.114914614587       rzold =    17.6132539663365       alpha = 
  0.129399882564001     
 delta_qm =   0.336507E-02 delta_en =   0.195674E+02 tol =   0.100000E-04
 Iteration #          3
  pAp =   0.908309576250472       rzold =   0.241839556781148       alpha = 
  0.266252347332359     
 delta_qm =   0.195624E-02 delta_en =   0.661287E+01 tol =   0.100000E-04
 Iteration #          4
  pAp =   0.435846000431299       rzold =   9.237384772929549E-002  alpha = 
  0.211941483087800     
 delta_qm =   0.169610E-02 delta_en =   0.497102E+01 tol =   0.100000E-04
 Iteration #          5
  pAp =   0.183051800050309       rzold =   4.411586028811178E-002  alpha = 
  0.241002056663672     
 delta_qm =   0.107770E-02 delta_en =   0.200696E+01 tol =   0.100000E-04
 Iteration #          6
  pAp =   0.143497125650577       rzold =   2.995277073679942E-002  alpha = 
  0.208734290676567     
 delta_qm =   0.103949E-02 delta_en =   0.186716E+01 tol =   0.100000E-04
 Iteration #          7
  pAp =   6.550556980877247E-002  rzold =   1.561116573957050E-002  alpha = 
  0.238318142795238     
 delta_qm =   0.650222E-03 delta_en =   0.730578E+00 tol =   0.100000E-04
 Iteration #          8
  pAp =   5.190014181034060E-002  rzold =   1.077143851302251E-002  alpha = 
  0.207541600799179     
 delta_qm =   0.651750E-03 delta_en =   0.734017E+00 tol =   0.100000E-04
 Iteration #          9
  pAp =   2.391467242099306E-002  rzold =   5.679822620581075E-003  alpha = 
  0.237503676429000     
 delta_qm =   0.406247E-03 delta_en =   0.285183E+00 tol =   0.100000E-04
 Iteration #         10
  pAp =   1.902485629840176E-002  rzold =   3.943219456728275E-003  alpha = 
  0.207266714390875     
 delta_qm =   0.417526E-03 delta_en =   0.301239E+00 tol =   0.100000E-04
 Iteration #         11
  pAp =   8.808385938246517E-003  rzold =   2.091159660594622E-003  alpha = 
  0.237405544586175     
 delta_qm =   0.261227E-03 delta_en =   0.117918E+00 tol =   0.100000E-04
 Iteration #         12
  pAp =   7.034035145333292E-003  rzold =   1.458225619414116E-003  alpha = 
  0.207309970633509     
 delta_qm =   0.273074E-03 delta_en =   0.128856E+00 tol =   0.100000E-04
 Iteration #         13
  pAp =   3.269834107348293E-003  rzold =   7.767839757675845E-004  alpha = 
  0.237560668298713     
 delta_qm =   0.172491E-03 delta_en =   0.514135E-01 tol =   0.100000E-04
 Iteration #         14
  pAp =   2.622868632467553E-003  rzold =   5.441994620916184E-004  alpha = 
  0.207482546153920     
 delta_qm =   0.182170E-03 delta_en =   0.573450E-01 tol =   0.100000E-04
 Iteration #         15
  pAp =   1.224861181188663E-003  rzold =   2.913304810689240E-004  alpha = 
  0.237847754131781     
 delta_qm =   0.116780E-03 delta_en =   0.235656E-01 tol =   0.100000E-04
 Iteration #         16
  pAp =   9.881714521642649E-004  rzold =   2.052889126374582E-004  alpha = 
  0.207746249082424     
 delta_qm =   0.123787E-03 delta_en =   0.264787E-01 tol =   0.100000E-04
 Iteration #         17
  pAp =   4.641924786926043E-004  rzold =   1.105967208819308E-004  alpha = 
  0.238256167341241     
 delta_qm =   0.808618E-04 delta_en =   0.112987E-01 tol =   0.100000E-04
 Iteration #         18
  pAp =   3.773597817325677E-004  rzold =   7.853206542996197E-005  alpha = 
  0.208109261324560     
 delta_qm =   0.855213E-04 delta_en =   0.126384E-01 tol =   0.100000E-04
 Iteration #         19
  pAp =   1.786533231240885E-004  rzold =   4.266383692214902E-005  alpha = 
  0.238807967162837     
 delta_qm =   0.570571E-04 delta_en =   0.562552E-02 tol =   0.100000E-04
 Iteration #         20
  pAp =   1.467141484050934E-004  rzold =   3.060336900452991E-005  alpha = 
  0.208591804793296     
 delta_qm =   0.599399E-04 delta_en =   0.620834E-02 tol =   0.100000E-04
 Iteration #         21
  pAp =   7.017663085349040E-005  rzold =   1.680939404699843E-005  alpha = 
  0.239529795639404     
 delta_qm =   0.408535E-04 delta_en =   0.288405E-02 tol =   0.100000E-04
 Iteration #         22
  pAp =   5.839640756966311E-005  rzold =   1.221714862782120E-005  alpha = 
  0.209210619904091     
 delta_qm =   0.425203E-04 delta_en =   0.312418E-02 tol =   0.100000E-04
 Iteration #         23
  pAp =   2.830195510455244E-005  rzold =   6.804795208198878E-006  alpha = 
  0.240435517018551     
 delta_qm =   0.295624E-04 delta_en =   0.151016E-02 tol =   0.100000E-04
 Iteration #         24
  pAp =   2.394348264627449E-005  rzold =   5.027327771898918E-006  alpha = 
  0.209966438306800     
 delta_qm =   0.304616E-04 delta_en =   0.160343E-02 tol =   0.100000E-04
 Iteration #         25
  pAp =   1.179185801765799E-005  rzold =   2.847857202991681E-006  alpha = 
  0.241510472626713     
 delta_qm =   0.215463E-04 delta_en =   0.802210E-03 tol =   0.100000E-04
 Iteration #         26
  pAp =   1.017319874098974E-005  rzold =   2.144851677816253E-006  alpha = 
  0.210833557116528     
 delta_qm =   0.219953E-04 delta_en =   0.835997E-03 tol =   0.100000E-04
 Iteration #         27
  pAp =   5.103106382648405E-006  rzold =   1.238532968551831E-006  alpha = 
  0.242701773328319     
 delta_qm =   0.157776E-04 delta_en =   0.430158E-03 tol =   0.100000E-04
 Iteration #         28
  pAp =   4.499042180047473E-006  rzold =   9.527067161020600E-007  alpha = 
  0.211757675962044     
 delta_qm =   0.159815E-04 delta_en =   0.441345E-03 tol =   0.100000E-04
 Iteration #         29
  pAp =   2.301416282740024E-006  rzold =   5.613705496247743E-007  alpha = 
  0.243923949715180     
 delta_qm =   0.115890E-04 delta_en =   0.232077E-03 tol =   0.100000E-04
 Iteration #         30
  pAp =   2.074526019801355E-006  rzold =   4.411844649049002E-007  alpha = 
  0.212667597655461     
 delta_qm =   0.116697E-04 delta_en =   0.235324E-03 tol =   0.100000E-04
 Iteration #         31
  pAp =   1.081810273685269E-006  rzold =   2.651327356291453E-007  alpha = 
  0.245082471555710     
 delta_qm =   0.853073E-05 delta_en =   0.125752E-03 tol =   0.100000E-04
 Iteration #         32
  pAp =   9.958520320066712E-007  rzold =   2.126115060094923E-007  alpha = 
  0.213497085085094     
 delta_qm =   0.855574E-05 delta_en =   0.126491E-03 tol =   0.100000E-04
 Iteration #         33
  pAp =   5.284862022222017E-007  rzold =   1.300621040026406E-007  alpha = 
  0.246103121435810     
 delta_qm =   0.629069E-05 delta_en =   0.683818E-04 tol =   0.100000E-04
 Iteration #         34
  pAp =   4.955597102739685E-007  rzold =   1.061508105417043E-007  alpha = 
  0.214203875619790     
 delta_qm =   0.629402E-05 delta_en =   0.684542E-04 tol =   0.100000E-04
 Iteration #         35
  pAp =   2.669339613135569E-007  rzold =   6.591917596307503E-008  alpha = 
  0.246949378935123     
 delta_qm =   0.464670E-05 delta_en =   0.373107E-04 tol =   0.100000E-04
 Iteration #         36
  pAp =   2.541554336603169E-007  rzold =   5.458631425572134E-008  alpha = 
  0.214775318668484     
 delta_qm =   0.464388E-05 delta_en =   0.372654E-04 tol =   0.100000E-04
 Iteration #         37
  pAp =   1.385559002393894E-007  rzold =   3.430932605439166E-008  alpha = 
  0.247620823040476     
 delta_qm =   0.343835E-05 delta_en =   0.204288E-04 tol =   0.100000E-04
 Iteration #         38
  pAp =   1.335270887673977E-007  rzold =   2.873789752937311E-008  alpha = 
  0.215221478987190     
 delta_qm =   0.343546E-05 delta_en =   0.203946E-04 tol =   0.100000E-04
 Iteration #         39
  pAp =   7.347796125276851E-008  rzold =   1.823280446993942E-008  alpha = 
  0.248139770879291     
 delta_qm =   0.254889E-05 delta_en =   0.112266E-04 tol =   0.100000E-04
 Iteration #         40
  pAp =   7.147354982012091E-008  rzold =   1.540710799753209E-008  alpha = 
  0.215563772001076     
 delta_qm =   0.254767E-05 delta_en =   0.112158E-04 tol =   0.100000E-04
 Iteration #         41
  pAp =   3.961310717114803E-008  rzold =   9.845322035310027E-009  alpha = 
  0.248536980266996     
 delta_qm =   0.189312E-05 delta_en =   0.619299E-05 tol =   0.100000E-04
 Charges are converged, EXIT

%%%% ELECTRONS %%%%%%%%%%%%%%%%%%%%%%%%%%%%%%%%%%%%%%%%%%%%%%%%%%%%%%%%%%%%%%%%%
 number of electrons        =         24
 total electronic charge    =     24.0000000
 number of spin components  =  1

%%%% BOUNDARY %%%%%%%%%%%%%%%%%%%%%%%%%%%%%%%%%%%%%%%%%%%%%%%%%%%%%%%%%%%%%%%%%%
 boundary mode              = electronic           
 boundary is built as a function of a smooth density
 function type              =  2 
 using the modified SCCS function with parameters 
 rhomax                     =      0.0050000 
 rhomin                     =      0.0001000 
 volume of the QM region    =    837.6755054 
 surface of the QM region   =    448.9928527 

%%%% DIELECTRIC %%%%%%%%%%%%%%%%%%%%%%%%%%%%%%%%%%%%%%%%%%%%%%%%%%%%%%%%%%%%%%%%%
 dielectric build on homogeneous background
 environment bulk permitt.  =    100.0000000 
 dielectric flags
 need gradient              =  F 
 need factor depend. sqrt   =  T 
 need gradient of logarithm =  T 

%%%% COMPUTE ELECTROSTATIC POTENTIAL %%%%%%%%%%%%%%%%%%%%%%%%%%%%%%%%%%%%%%%%%%%
 Warning: bad guess with residual norm =   0.142522E+04, reset to no guess
 Iteration #          1
  pAp =    95.4533186211482       rzold =    92.7270635552505       alpha = 
  0.971438865559843     
 delta_qm =   0.202002E-01 delta_en =   0.705104E+03 tol =   0.100000E-04
 Iteration #          2
  pAp =    172.617852433909       rzold =    19.5454039787554       alpha = 
  0.113229331168043     
 delta_qm =   0.430270E-02 delta_en =   0.319908E+02 tol =   0.100000E-04
 Iteration #          3
  pAp =    1.16215081901331       rzold =   0.247084944106299       alpha = 
  0.212610050316946     
 delta_qm =   0.230204E-02 delta_en =   0.915731E+01 tol =   0.100000E-04
 Iteration #          4
  pAp =   0.449525661149503       rzold =   8.774101447491651E-002  alpha = 
  0.195185774824400     
 delta_qm =   0.233867E-02 delta_en =   0.945110E+01 tol =   0.100000E-04
 Iteration #          5
  pAp =   0.250267146980026       rzold =   5.069139867975576E-002  alpha = 
  0.202549153140750     
 delta_qm =   0.138266E-02 delta_en =   0.330349E+01 tol =   0.100000E-04
 Iteration #          6
  pAp =   0.174982348005432       rzold =   3.369926429227352E-002  alpha = 
  0.192586650461608     
 delta_qm =   0.158809E-02 delta_en =   0.435806E+01 tol =   0.100000E-04
 Iteration #          7
  pAp =   0.103121938544051       rzold =   2.069799954055898E-002  alpha = 
  0.200713832893253     
 delta_qm =   0.918562E-03 delta_en =   0.145801E+01 tol =   0.100000E-04
 Iteration #          8
  pAp =   7.304738993048017E-002  rzold =   1.399569648681802E-002  alpha = 
  0.191597488974457     
 delta_qm =   0.110882E-02 delta_en =   0.212454E+01 tol =   0.100000E-04
 Iteration #          9
  pAp =   4.343286831457967E-002  rzold =   8.694225034626680E-003  alpha = 
  0.200176165471166     
 delta_qm =   0.648092E-03 delta_en =   0.725799E+00 tol =   0.100000E-04
 Iteration #         10
  pAp =   3.097003411322622E-002  rzold =   5.928651703615759E-003  alpha = 
  0.191431875145525     
 delta_qm =   0.793847E-03 delta_en =   0.108897E+01 tol =   0.100000E-04
 Iteration #         11
  pAp =   1.853903474245963E-002  rzold =   3.711986736130056E-003  alpha = 
  0.200225458752098     
 delta_qm =   0.478078E-03 delta_en =   0.394950E+00 tol =   0.100000E-04
 Iteration #         12
  pAp =   1.331159626730205E-002  rzold =   2.550764264601141E-003  alpha = 
  0.191619713622679     
 delta_qm =   0.581571E-03 delta_en =   0.584452E+00 tol =   0.100000E-04
 Iteration #         13
  pAp =   8.029015000373861E-003  rzold =   1.610196035140785E-003  alpha = 
  0.200547144956861     
 delta_qm =   0.364114E-03 delta_en =   0.229096E+00 tol =   0.100000E-04
 Iteration #         14
  pAp =   5.815762425060564E-003  rzold =   1.116644273967189E-003  alpha = 
  0.192003075840148     
 delta_qm =   0.434655E-03 delta_en =   0.326462E+00 tol =   0.100000E-04
 Iteration #         15
  pAp =   3.541894763377139E-003  rzold =   7.121210570810568E-004  alpha = 
  0.201056526140845     
 delta_qm =   0.283366E-03 delta_en =   0.138752E+00 tol =   0.100000E-04
 Iteration #         16
  pAp =   2.595174750261086E-003  rzold =   4.997008493919080E-004  alpha = 
  0.192549981207098     
 delta_qm =   0.330246E-03 delta_en =   0.188459E+00 tol =   0.100000E-04
 Iteration #         17
  pAp =   1.600549419488985E-003  rzold =   3.229004691982150E-004  alpha = 
  0.201743517111336     
 delta_qm =   0.223498E-03 delta_en =   0.863156E-01 tol =   0.100000E-04
 Iteration #         18
  pAp =   1.190296496878973E-003  rzold =   2.300350524020534E-004  alpha = 
  0.193258614979729     
 delta_qm =   0.254192E-03 delta_en =   0.111652E+00 tol =   0.100000E-04
 Iteration #         19
  pAp =   7.459390766510483E-004  rzold =   1.511295490791252E-004  alpha = 
  0.202603072837574     
 delta_qm =   0.177588E-03 delta_en =   0.544966E-01 tol =   0.100000E-04
 Iteration #         20
  pAp =   5.650459974064916E-004  rzold =   1.096832808580914E-004  alpha = 
  0.194113897561486     
 delta_qm =   0.197584E-03 delta_en =   0.674599E-01 tol =   0.100000E-04
 Iteration #         21
  pAp =   3.609691954037859E-004  rzold =   7.349410836718596E-005  alpha = 
  0.203602161356108     
 delta_qm =   0.141590E-03 delta_en =   0.346427E-01 tol =   0.100000E-04
 Iteration #         22
  pAp =   2.793279299855548E-004  rzold =   5.448789234223744E-005  alpha = 
  0.195067827069979     
 delta_qm =   0.154689E-03 delta_en =   0.413487E-01 tol =   0.100000E-04
 Iteration #         23
  pAp =   1.822993523137892E-004  rzold =   3.731112849842664E-005  alpha = 
  0.204669561492482     
 delta_qm =   0.113002E-03 delta_en =   0.220657E-01 tol =   0.100000E-04
 Iteration #         24
  pAp =   1.443157721135186E-004  rzold =   2.829187000939180E-005  alpha = 
  0.196041427732081     
 delta_qm =   0.121725E-03 delta_en =   0.256037E-01 tol =   0.100000E-04
 Iteration #         25
  pAp =   9.626165096421396E-005  rzold =   1.980201582944928E-005  alpha = 
  0.205710328371688     
 delta_qm =   0.901626E-04 delta_en =   0.140474E-01 tol =   0.100000E-04
 Iteration #         26
  pAp =   7.791330655362356E-005  rzold =   1.534485189925846E-005  alpha = 
  0.196947768975732     
 delta_qm =   0.961249E-04 delta_en =   0.159667E-01 tol =   0.100000E-04
 Iteration #         27
  pAp =   5.303476311034682E-005  rzold =   1.095896978737643E-005  alpha = 
  0.206637479733333     
 delta_qm =   0.718852E-04 delta_en =   0.892940E-02 tol =   0.100000E-04
 Iteration #         28
  pAp =   4.378151841760745E-005  rzold =   8.656552633813860E-006  alpha = 
  0.197721617401293     
 delta_qm =   0.760943E-04 delta_en =   0.100057E-01 tol =   0.100000E-04
 Iteration #         29
  pAp =   3.032192143094379E-005  rzold =   6.288746966810937E-006  alpha = 
  0.207399355648789     
 delta_qm =   0.572679E-04 delta_en =   0.566717E-02 tol =   0.100000E-04
 Iteration #         30
  pAp =   2.544045720732886E-005  rzold =   5.045748039703392E-006  alpha = 
  0.198335588019614     
 delta_qm =   0.603406E-04 delta_en =   0.629162E-02 tol =   0.100000E-04
 Iteration #         31
  pAp =   1.786281596985830E-005  rzold =   3.715215233435229E-006  alpha = 
  0.207985977110456     
 delta_qm =   0.455956E-04 delta_en =   0.359244E-02 tol =   0.100000E-04
 Iteration #         32
  pAp =   1.517510662681045E-005  rzold =   3.016753656496032E-006  alpha = 
  0.198796208203652     
 delta_qm =   0.479076E-04 delta_en =   0.396599E-02 tol =   0.100000E-04
 Iteration #         33
  pAp =   1.076521252067793E-005  rzold =   2.243654031954396E-006  alpha = 
  0.208417068185580     
 delta_qm =   0.362896E-04 delta_en =   0.227566E-02 tol =   0.100000E-04
 Iteration #         34
  pAp =   9.229485498833245E-006  rzold =   1.837859750496146E-006  alpha = 
  0.199129166054650     
 delta_qm =   0.380726E-04 delta_en =   0.250478E-02 tol =   0.100000E-04
 Iteration #         35
  pAp =   6.596164879734758E-006  rzold =   1.376785321112279E-006  alpha = 
  0.208725122281607     
 delta_qm =   0.288799E-04 delta_en =   0.144123E-02 tol =   0.100000E-04
 Iteration #         36
  pAp =   5.692201508115270E-006  rzold =   1.134827723259392E-006  alpha = 
  0.199365346016210     
 delta_qm =   0.302804E-04 delta_en =   0.158441E-02 tol =   0.100000E-04
 Iteration #         37
  pAp =   4.089550275973024E-006  rzold =   8.544830922348775E-007  alpha = 
  0.208943046196338     
 delta_qm =   0.229852E-04 delta_en =   0.912937E-03 tol =   0.100000E-04
 Iteration #         38
  pAp =   3.545388613036977E-006  rzold =   7.074207566718867E-007  alpha = 
  0.199532641942433     
 delta_qm =   0.240996E-04 delta_en =   0.100361E-02 tol =   0.100000E-04
 Iteration #         39
  pAp =   2.556642637627775E-006  rzold =   5.345896106181779E-007  alpha = 
  0.209098292718065     
 delta_qm =   0.182983E-04 delta_en =   0.578585E-03 tol =   0.100000E-04
 Iteration #         40
  pAp =   2.223707404489171E-006  rzold =   4.439697864570050E-007  alpha = 
  0.199652969433267     
 delta_qm =   0.191928E-04 delta_en =   0.636535E-03 tol =   0.100000E-04
 Iteration #         41
  pAp =   1.607820534499555E-006  rzold =   3.363745263031971E-007  alpha = 
  0.209211487902719     
 delta_qm =   0.145726E-04 delta_en =   0.366959E-03 tol =   0.100000E-04
 Iteration #         42
  pAp =   1.401764840331472E-006  rzold =   2.799916238795244E-007  alpha = 
  0.199742221964503     
 delta_qm =   0.152946E-04 delta_en =   0.404224E-03 tol =   0.100000E-04
 Iteration #         43
  pAp =   1.015514864990857E-006  rzold =   2.125444063935170E-007  alpha = 
  0.209297188766834     
 delta_qm =   0.116109E-04 delta_en =   0.232955E-03 tol =   0.100000E-04
 Iteration #         44
  pAp =   8.869500861681709E-007  rzold =   1.772227135082858E-007  alpha = 
  0.199811371882187     
 delta_qm =   0.121958E-04 delta_en =   0.257017E-03 tol =   0.100000E-04
 Iteration #         45
  pAp =   6.435253406038359E-007  rzold =   1.347318582562808E-007  alpha = 
  0.209365272438003     
 delta_qm =   0.925604E-05 delta_en =   0.148045E-03 tol =   0.100000E-04
 Iteration #         46
  pAp =   5.628472408854679E-007  rzold =   1.124950160091740E-007  alpha = 
  0.199867757781308     
 delta_qm =   0.973087E-05 delta_en =   0.163624E-03 tol =   0.100000E-04
 Iteration #         47
  pAp =   4.088724871476469E-007  rzold =   8.562700381998750E-008  alpha = 
  0.209422268583865     
 delta_qm =   0.738317E-05 delta_en =   0.941954E-04 tol =   0.100000E-04
 Iteration #         48
  pAp =   3.580320095228842E-007  rzold =   7.157639261956942E-008  alpha = 
  0.199916182675824     
 delta_qm =   0.776914E-05 delta_en =   0.104301E-03 tol =   0.100000E-04
 Iteration #         49
  pAp =   2.603588297651640E-007  rzold =   5.453799264876771E-008  alpha = 
  0.209472414275173     
 delta_qm =   0.589301E-05 delta_en =   0.600092E-04 tol =   0.100000E-04
 Iteration #         50
  pAp =   2.282189182436034E-007  rzold =   4.563459523149754E-008  alpha = 
  0.199959738582174     
 delta_qm =   0.620695E-05 delta_en =   0.665734E-04 tol =   0.100000E-04
 Iteration #         51
  pAp =   1.661144910951651E-007  rzold =   3.480404520514407E-008  alpha = 
  0.209518416940550     
 delta_qm =   0.470677E-05 delta_en =   0.382815E-04 tol =   0.100000E-04
 Iteration #         52
  pAp =   1.457449637783044E-007  rzold =   2.914904904357431E-008  alpha = 
  0.200000386208291     
 delta_qm =   0.496221E-05 delta_en =   0.425495E-04 tol =   0.100000E-04
 Iteration #         53
  pAp =   1.061759752397826E-007  rzold =   2.225044755394390E-008  alpha = 
  0.209561979569244     
 delta_qm =   0.376195E-05 delta_en =   0.244552E-04 tol =   0.100000E-04
 Iteration #         54
  pAp =   9.323868023854618E-008  rzold =   1.865140475521489E-008  alpha = 
  0.200039347484287     
 delta_qm =   0.396981E-05 delta_en =   0.272322E-04 tol =   0.100000E-04
 Iteration #         55
  pAp =   6.798122049624457E-008  rzold =   1.424914607111014E-008  alpha = 
  0.209604151956897     
 delta_qm =   0.300898E-05 delta_en =   0.156452E-04 tol =   0.100000E-04
 Iteration #         56
  pAp =   5.974884283458455E-008  rzold =   1.195439106653227E-008  alpha = 
  0.200077365508620     
 delta_qm =   0.317810E-05 delta_en =   0.174533E-04 tol =   0.100000E-04
 Iteration #         57
  pAp =   4.359865100379131E-008  rzold =   9.140263674233518E-009  alpha = 
  0.209645561589479     
 delta_qm =   0.240852E-05 delta_en =   0.100240E-04 tol =   0.100000E-04
 Iteration #         58
  pAp =   3.835102535296011E-008  rzold =   7.674610622502731E-009  alpha = 
  0.200114874423048     
 delta_qm =   0.254609E-05 delta_en =   0.112019E-04 tol =   0.100000E-04
 Iteration #         59
  pAp =   2.800696745835791E-008  rzold =   5.872684771105998E-009  alpha = 
  0.209686563882283     
 delta_qm =   0.192935E-05 delta_en =   0.643229E-05 tol =   0.100000E-04
 Charges are converged, EXIT

%%%% ELECTRONS %%%%%%%%%%%%%%%%%%%%%%%%%%%%%%%%%%%%%%%%%%%%%%%%%%%%%%%%%%%%%%%%%
 number of electrons        =         24
 total electronic charge    =     24.0000000
 number of spin components  =  1

%%%% BOUNDARY %%%%%%%%%%%%%%%%%%%%%%%%%%%%%%%%%%%%%%%%%%%%%%%%%%%%%%%%%%%%%%%%%%
 boundary mode              = electronic           
 boundary is built as a function of a smooth density
 function type              =  2 
 using the modified SCCS function with parameters 
 rhomax                     =      0.0050000 
 rhomin                     =      0.0001000 
 volume of the QM region    =    757.1450060 
 surface of the QM region   =    424.1889363 

%%%% DIELECTRIC %%%%%%%%%%%%%%%%%%%%%%%%%%%%%%%%%%%%%%%%%%%%%%%%%%%%%%%%%%%%%%%%%
 dielectric build on homogeneous background
 environment bulk permitt.  =    100.0000000 
 dielectric flags
 need gradient              =  F 
 need factor depend. sqrt   =  T 
 need gradient of logarithm =  T 

%%%% COMPUTE ELECTROSTATIC POTENTIAL %%%%%%%%%%%%%%%%%%%%%%%%%%%%%%%%%%%%%%%%%%%
 Warning: bad guess with residual norm =   0.162331E+04, reset to no guess
 Iteration #          1
  pAp =    95.9547617751131       rzold =    93.3874676788774       alpha = 
  0.973244745245133     
 delta_qm =   0.225243E-01 delta_en =   0.876693E+03 tol =   0.100000E-04
 Iteration #          2
  pAp =    216.526869105748       rzold =    21.4226619699345       alpha = 
  9.893766098595372E-002
 delta_qm =   0.444864E-02 delta_en =   0.341979E+02 tol =   0.100000E-04
 Iteration #          3
  pAp =    1.24400282444549       rzold =   0.263899165368143       alpha = 
  0.212137111091990     
 delta_qm =   0.216501E-02 delta_en =   0.809957E+01 tol =   0.100000E-04
 Iteration #          4
  pAp =   0.416505526006113       rzold =   7.849365011634063E-002  alpha = 
  0.188457643933369     
 delta_qm =   0.236535E-02 delta_en =   0.966797E+01 tol =   0.100000E-04
 Iteration #          5
  pAp =   0.295343976621474       rzold =   5.089844423301045E-002  alpha = 
  0.172336151274364     
 delta_qm =   0.133007E-02 delta_en =   0.305696E+01 tol =   0.100000E-04
 Iteration #          6
  pAp =   0.173353170671371       rzold =   3.169857481211819E-002  alpha = 
  0.182855466037075     
 delta_qm =   0.166578E-02 delta_en =   0.479487E+01 tol =   0.100000E-04
 Iteration #          7
  pAp =   0.133349645094126       rzold =   2.280619533884899E-002  alpha = 
  0.171025542083378     
 delta_qm =   0.945699E-03 delta_en =   0.154543E+01 tol =   0.100000E-04
 Iteration #          8
  pAp =   7.977994411750586E-002  rzold =   1.452255612384139E-002  alpha = 
  0.182032668542002     
 delta_qm =   0.120917E-02 delta_en =   0.252648E+01 tol =   0.100000E-04
 Iteration #          9
  pAp =   6.187294267013987E-002  rzold =   1.055988408254161E-002  alpha = 
  0.170670468007946     
 delta_qm =   0.708993E-03 delta_en =   0.868615E+00 tol =   0.100000E-04
 Iteration #         10
  pAp =   3.729792330865728E-002  rzold =   6.785124331113754E-003  alpha = 
  0.181916946822046     
 delta_qm =   0.902388E-03 delta_en =   0.140712E+01 tol =   0.100000E-04
 Iteration #         11
  pAp =   2.912677692742798E-002  rzold =   4.973164452673443E-003  alpha = 
  0.170742010524011     
 delta_qm =   0.552840E-03 delta_en =   0.528132E+00 tol =   0.100000E-04
 Iteration #         12
  pAp =   1.768906613142679E-002  rzold =   3.221883729985765E-003  alpha = 
  0.182139843112560     
 delta_qm =   0.690488E-03 delta_en =   0.823864E+00 tol =   0.100000E-04
 Iteration #         13
  pAp =   1.393077553419320E-002  rzold =   2.382666114676604E-003  alpha = 
  0.171036142878645     
 delta_qm =   0.443582E-03 delta_en =   0.340011E+00 tol =   0.100000E-04
 Iteration #         14
  pAp =   8.538641624347303E-003  rzold =   1.558906382428131E-003  alpha = 
  0.182570770739812     
 delta_qm =   0.539876E-03 delta_en =   0.503653E+00 tol =   0.100000E-04
 Iteration #         15
  pAp =   6.799483325230025E-003  rzold =   1.166079822381315E-003  alpha = 
  0.171495357309648     
 delta_qm =   0.362964E-03 delta_en =   0.227652E+00 tol =   0.100000E-04
 Iteration #         16
  pAp =   4.218116037497454E-003  rzold =   7.726830621464164E-004  alpha = 
  0.183182030858695     
 delta_qm =   0.429701E-03 delta_en =   0.319063E+00 tol =   0.100000E-04
 Iteration #         17
  pAp =   3.408146892009491E-003  rzold =   5.865787814905425E-004  alpha = 
  0.172110768718859     
 delta_qm =   0.300703E-03 delta_en =   0.156250E+00 tol =   0.100000E-04
 Iteration #         18
  pAp =   2.147270279471213E-003  rzold =   3.950279277620276E-004  alpha = 
  0.183967491907589     
 delta_qm =   0.346859E-03 delta_en =   0.207898E+00 tol =   0.100000E-04
 Iteration #         19
  pAp =   1.767016871536244E-003  rzold =   3.054663273684839E-004  alpha = 
  0.172871200206997     
 delta_qm =   0.250890E-03 delta_en =   0.108771E+00 tol =   0.100000E-04
 Iteration #         20
  pAp =   1.134575901315210E-003  rzold =   2.097843630189662E-004  alpha = 
  0.184901127175169     
 delta_qm =   0.283004E-03 delta_en =   0.138398E+00 tol =   0.100000E-04
 Iteration #         21
  pAp =   9.540919663980007E-004  rzold =   1.657618191223737E-004  alpha = 
  0.173737778914728     
 delta_qm =   0.210060E-03 delta_en =   0.762487E-01 tol =   0.100000E-04
 Iteration #         22
  pAp =   6.259344333068762E-004  rzold =   1.163735595744068E-004  alpha = 
  0.185919727981081     
 delta_qm =   0.232729E-03 delta_en =   0.935936E-01 tol =   0.100000E-04
 Iteration #         23
  pAp =   5.389198112143631E-004  rzold =   9.411683878157469E-005  alpha = 
  0.174639782808315     
 delta_qm =   0.176102E-03 delta_en =   0.535889E-01 tol =   0.100000E-04
 Iteration #         24
  pAp =   3.615612573601432E-004  rzold =   6.758708811373408E-005  alpha = 
  0.186931223237815     
 delta_qm =   0.192461E-03 delta_en =   0.640074E-01 tol =   0.100000E-04
 Iteration #         25
  pAp =   3.186652872045343E-004  rzold =   5.592349801381672E-005  alpha = 
  0.175492908262463     
 delta_qm =   0.147651E-03 delta_en =   0.376718E-01 tol =   0.100000E-04
 Iteration #         26
  pAp =   2.183641952434181E-004  rzold =   4.101850099169706E-005  alpha = 
  0.187844444671766     
 delta_qm =   0.159780E-03 delta_en =   0.441151E-01 tol =   0.100000E-04
 Iteration #         27
  pAp =   1.965617925032372E-004  rzold =   3.463981254629048E-005  alpha = 
  0.176228615465643     
 delta_qm =   0.123748E-03 delta_en =   0.264619E-01 tol =   0.100000E-04
 Iteration #         28
  pAp =   1.371727412056730E-004  rzold =   2.587075293096830E-005  alpha = 
  0.188599810017490     
 delta_qm =   0.132999E-03 delta_en =   0.305660E-01 tol =   0.100000E-04
 Iteration #         29
  pAp =   1.256499063520193E-004  rzold =   2.221662596173863E-005  alpha = 
  0.176813708873740     
 delta_qm =   0.103663E-03 delta_en =   0.185690E-01 tol =   0.100000E-04
 Iteration #         30
  pAp =   8.896708473633881E-005  rzold =   1.683082720454244E-005  alpha = 
  0.189180383446552     
 delta_qm =   0.110903E-03 delta_en =   0.212535E-01 tol =   0.100000E-04
 Iteration #         31
  pAp =   8.259322474006650E-005  rzold =   1.463962937892634E-005  alpha = 
  0.177249761405969     
 delta_qm =   0.867997E-04 delta_en =   0.130191E-01 tol =   0.100000E-04
 Iteration #         32
  pAp =   5.911587724700965E-005  rzold =   1.120849457166856E-005  alpha = 
  0.189602101730386     
 delta_qm =   0.925891E-04 delta_en =   0.148137E-01 tol =   0.100000E-04
 Iteration #         33
  pAp =   5.541728818162541E-005  rzold =   9.839867053671763E-006  alpha = 
  0.177559519358335     
 delta_qm =   0.726575E-04 delta_en =   0.912230E-02 tol =   0.100000E-04
 Iteration #         34
  pAp =   3.997026390907403E-005  rzold =   7.590209248235938E-006  alpha = 
  0.189896400621784     
 delta_qm =   0.773626E-04 delta_en =   0.103420E-01 tol =   0.100000E-04
 Iteration #         35
  pAp =   3.772469490615289E-005  rzold =   6.706414099538981E-006  alpha = 
  0.177772520525942     
 delta_qm =   0.608085E-04 delta_en =   0.638959E-02 tol =   0.100000E-04
 Iteration #         36
  pAp =   2.735315416240138E-005  rzold =   5.199740234056156E-006  alpha = 
  0.190096549859816     
 delta_qm =   0.646771E-04 delta_en =   0.722845E-02 tol =   0.100000E-04
 Iteration #         37
  pAp =   2.593578242852377E-005  rzold =   4.614394795232933E-006  alpha = 
  0.177916159188554     
 delta_qm =   0.508880E-04 delta_en =   0.447481E-02 tol =   0.100000E-04
 Iteration #         38
  pAp =   1.887226486288687E-005  rzold =   3.590085857914816E-006  alpha = 
  0.190230790209758     
 delta_qm =   0.540943E-04 delta_en =   0.505646E-02 tol =   0.100000E-04
 Iteration #         39
  pAp =   1.794974287724476E-005  rzold =   3.195273082875528E-006  alpha = 
  0.178012192415649     
 delta_qm =   0.425860E-04 delta_en =   0.313385E-02 tol =   0.100000E-04
 Iteration #         40
  pAp =   1.309222053675477E-005  rzold =   2.491717816756819E-006  alpha = 
  0.190320489160844     
 delta_qm =   0.452575E-04 delta_en =   0.353937E-02 tol =   0.100000E-04
 Iteration #         41
  pAp =   1.247794853844951E-005  rzold =   2.222028946386307E-006  alpha = 
  0.178076463413786     
 delta_qm =   0.356405E-04 delta_en =   0.219498E-02 tol =   0.100000E-04
 Iteration #         42
  pAp =   9.115630826664565E-006  rzold =   1.735440766932104E-006  alpha = 
  0.190380764637340     
 delta_qm =   0.378741E-04 delta_en =   0.247873E-02 tol =   0.100000E-04
 Iteration #         43
  pAp =   8.699960842699491E-006  rzold =   1.549636369068526E-006  alpha = 
  0.178119924570568     
 delta_qm =   0.298305E-04 delta_en =   0.153767E-02 tol =   0.100000E-04
 Iteration #         44
  pAp =   6.362463096550103E-006  rzold =   1.211552215079108E-006  alpha = 
  0.190421884841429     
 delta_qm =   0.317022E-04 delta_en =   0.173669E-02 tol =   0.100000E-04
 Iteration #         45
  pAp =   6.078053565358122E-006  rzold =   1.082804689457383E-006  alpha = 
  0.178149908982183     
 delta_qm =   0.249706E-04 delta_en =   0.107746E-02 tol =   0.100000E-04
 Iteration #         46
  pAp =   4.448277554716579E-006  rzold =   8.471773515567186E-007  alpha = 
  0.190450649973144     
 delta_qm =   0.265413E-04 delta_en =   0.121727E-02 tol =   0.100000E-04
 Iteration #         47
  pAp =   4.252222337588702E-006  rzold =   7.576236842560053E-007  alpha = 
  0.178171230031595     
 delta_qm =   0.209054E-04 delta_en =   0.755195E-03 tol =   0.100000E-04
 Iteration #         48
  pAp =   3.113647533540333E-006  rzold =   5.930610960089227E-007  alpha = 
  0.190471493520203     
 delta_qm =   0.222246E-04 delta_en =   0.853516E-03 tol =   0.100000E-04
 Iteration #         49
  pAp =   2.977823692155757E-006  rzold =   5.306094962852136E-007  alpha = 
  0.178187008748354     
 delta_qm =   0.175046E-04 delta_en =   0.529475E-03 tol =   0.100000E-04
 Iteration #         50
  pAp =   2.181317795250321E-006  rzold =   4.155132902092090E-007  alpha = 
  0.190487278430480     
 delta_qm =   0.186132E-04 delta_en =   0.598669E-03 tol =   0.100000E-04
 Iteration #         51
  pAp =   2.086907594151029E-006  rzold =   3.718853764996617E-007  alpha = 
  0.178199254026361     
 delta_qm =   0.146593E-04 delta_en =   0.371338E-03 tol =   0.100000E-04
 Iteration #         52
  pAp =   1.529155410430146E-006  rzold =   2.913038659273930E-007  alpha = 
  0.190499843207860     
 delta_qm =   0.155913E-04 delta_en =   0.420057E-03 tol =   0.100000E-04
 Iteration #         53
  pAp =   1.463384228038068E-006  rzold =   2.607886111564740E-007  alpha = 
  0.178209253700997     
 delta_qm =   0.122785E-04 delta_en =   0.260516E-03 tol =   0.100000E-04
 Iteration #         54
  pAp =   1.072533942519104E-006  rzold =   2.043288330908091E-007  alpha = 
  0.190510365211281     
 delta_qm =   0.130622E-04 delta_en =   0.294832E-03 tol =   0.100000E-04
 Iteration #         55
  pAp =   1.026643765706264E-006  rzold =   1.829662261645773E-007  alpha = 
  0.178217832003985     
 delta_qm =   0.102861E-04 delta_en =   0.182828E-03 tol =   0.100000E-04
 Iteration #         56
  pAp =   7.525951382314382E-007  rzold =   1.433841231380779E-007  alpha = 
  0.190519597927544     
 delta_qm =   0.109451E-04 delta_en =   0.207006E-03 tol =   0.100000E-04
 Iteration #         57
  pAp =   7.205418091669804E-007  rzold =   1.284189361893743E-007  alpha = 
  0.178225516625940     
 delta_qm =   0.861842E-05 delta_en =   0.128351E-03 tol =   0.100000E-04
 Iteration #         58
  pAp =   5.282994308778672E-007  rzold =   1.006558467402810E-007  alpha = 
  0.190528024179437     
 delta_qm =   0.917267E-05 delta_en =   0.145390E-03 tol =   0.100000E-04
 Iteration #         59
  pAp =   5.058932268097619E-007  rzold =   9.016668848600654E-008  alpha = 
  0.178232646154627     
 delta_qm =   0.722238E-05 delta_en =   0.901372E-04 tol =   0.100000E-04
 Iteration #         60
  pAp =   3.709822642775280E-007  rzold =   7.068545977071959E-008  alpha = 
  0.190535954349129     
 delta_qm =   0.768853E-05 delta_en =   0.102148E-03 tol =   0.100000E-04
 Iteration #         61
  pAp =   3.553103153862024E-007  rzold =   6.333031120704544E-008  alpha = 
  0.178239438779617     
 delta_qm =   0.605352E-05 delta_en =   0.633227E-04 tol =   0.100000E-04
 Iteration #         62
  pAp =   2.605984150086818E-007  rzold =   4.965535730103730E-008  alpha = 
  0.190543589067428     
 delta_qm =   0.644557E-05 delta_en =   0.717905E-04 tol =   0.100000E-04
 Iteration #         63
  pAp =   2.496315032519528E-007  rzold =   4.449582593316519E-008  alpha = 
  0.178246036071239     
 delta_qm =   0.507471E-05 delta_en =   0.445006E-04 tol =   0.100000E-04
 Iteration #         64
  pAp =   1.831179345153997E-007  rzold =   3.489331636407522E-008  alpha = 
  0.190551059110711     
 delta_qm =   0.540445E-05 delta_en =   0.504716E-04 tol =   0.100000E-04
 Iteration #         65
  pAp =   1.754404647572578E-007  rzold =   3.127270685027209E-008  alpha = 
  0.178252530814607     
 delta_qm =   0.425491E-05 delta_en =   0.312842E-04 tol =   0.100000E-04
 Iteration #         66
  pAp =   1.287145525760875E-007  rzold =   2.452764572760200E-008  alpha = 
  0.190558450747851     
 delta_qm =   0.453225E-05 delta_en =   0.354953E-04 tol =   0.100000E-04
 Iteration #         67
  pAp =   1.233380215895327E-007  rzold =   2.198611050127188E-008  alpha = 
  0.178258984682285     
 delta_qm =   0.356818E-05 delta_en =   0.220008E-04 tol =   0.100000E-04
 Iteration #         68
  pAp =   9.050254049437223E-008  rzold =   1.724669100673195E-008  alpha = 
  0.190565821826896     
 delta_qm =   0.380143E-05 delta_en =   0.249712E-04 tol =   0.100000E-04
 Iteration #         69
  pAp =   8.673617831264293E-008  rzold =   1.546206294284220E-008  alpha = 
  0.178265439446834     
 delta_qm =   0.299282E-05 delta_en =   0.154776E-04 tol =   0.100000E-04
 Iteration #         70
  pAp =   6.365462271324677E-008  rzold =   1.213086590781401E-008  alpha = 
  0.190573211979615     
 delta_qm =   0.318900E-05 delta_en =   0.175732E-04 tol =   0.100000E-04
 Iteration #         71
  pAp =   6.101544556989865E-008  rzold =   1.087734088112029E-008  alpha = 
  0.178271924092717     
 delta_qm =   0.251068E-05 delta_en =   0.108925E-04 tol =   0.100000E-04
 Iteration #         72
  pAp =   4.478531119793191E-008  rzold =   8.535213677974414E-009  alpha = 
  0.190580649093905     
 delta_qm =   0.267568E-05 delta_en =   0.123712E-04 tol =   0.100000E-04
 Iteration #         73
  pAp =   4.293546566543702E-008  rzold =   7.654468669347139E-009  alpha = 
  0.178278459327599     
 delta_qm =   0.210660E-05 delta_en =   0.766845E-05 tol =   0.100000E-04
 Charges are converged, EXIT

%%%% ELECTRONS %%%%%%%%%%%%%%%%%%%%%%%%%%%%%%%%%%%%%%%%%%%%%%%%%%%%%%%%%%%%%%%%%
 number of electrons        =         24
 total electronic charge    =     24.0000000
 number of spin components  =  1

%%%% BOUNDARY %%%%%%%%%%%%%%%%%%%%%%%%%%%%%%%%%%%%%%%%%%%%%%%%%%%%%%%%%%%%%%%%%%
 boundary mode              = electronic           
 boundary is built as a function of a smooth density
 function type              =  2 
 using the modified SCCS function with parameters 
 rhomax                     =      0.0050000 
 rhomin                     =      0.0001000 
 volume of the QM region    =    717.0745325 
 surface of the QM region   =    412.4199777 

%%%% DIELECTRIC %%%%%%%%%%%%%%%%%%%%%%%%%%%%%%%%%%%%%%%%%%%%%%%%%%%%%%%%%%%%%%%%%
 dielectric build on homogeneous background
 environment bulk permitt.  =    100.0000000 
 dielectric flags
 need gradient              =  F 
 need factor depend. sqrt   =  T 
 need gradient of logarithm =  T 

%%%% COMPUTE ELECTROSTATIC POTENTIAL %%%%%%%%%%%%%%%%%%%%%%%%%%%%%%%%%%%%%%%%%%%
 Warning: bad guess with residual norm =   0.254158E+04, reset to no guess
 Iteration #          1
  pAp =    95.8691592281825       rzold =    93.2740297716763       alpha = 
  0.972930507815038     
 delta_qm =   0.276969E-01 delta_en =   0.132558E+04 tol =   0.100000E-04
 Iteration #          2
  pAp =    257.399302738901       rzold =    23.5292470674938       alpha = 
  9.141146388947782E-002
 delta_qm =   0.522812E-02 delta_en =   0.472319E+02 tol =   0.100000E-04
 Iteration #          3
  pAp =    1.74826860914779       rzold =   0.328896135707986       alpha = 
  0.188126775248976     
 delta_qm =   0.235798E-02 delta_en =   0.960779E+01 tol =   0.100000E-04
 Iteration #          4
  pAp =   0.517674783085489       rzold =   8.894336296968183E-002  alpha = 
  0.171813203725231     
 delta_qm =   0.276252E-02 delta_en =   0.131873E+02 tol =   0.100000E-04
 Iteration #          5
  pAp =   0.364513008655110       rzold =   5.831872721709671E-002  alpha = 
  0.159990798222172     
 delta_qm =   0.149000E-02 delta_en =   0.383636E+01 tol =   0.100000E-04
 Iteration #          6
  pAp =   0.224858474676323       rzold =   3.778971651566516E-002  alpha = 
  0.168060005610472     
 delta_qm =   0.200051E-02 delta_en =   0.691553E+01 tol =   0.100000E-04
 Iteration #          7
  pAp =   0.174064061992575       rzold =   2.768718657403200E-002  alpha = 
  0.159063199244500     
 delta_qm =   0.110022E-02 delta_en =   0.209173E+01 tol =   0.100000E-04
 Iteration #          8
  pAp =   0.109654308938864       rzold =   1.836749416063872E-002  alpha = 
  0.167503624238598     
 delta_qm =   0.149129E-02 delta_en =   0.384296E+01 tol =   0.100000E-04
 Iteration #          9
  pAp =   8.563696159544947E-002  rzold =   1.360282704163043E-002  alpha = 
  0.158842943376371     
 delta_qm =   0.856506E-03 delta_en =   0.126766E+01 tol =   0.100000E-04
 Iteration #         10
  pAp =   5.432685234806577E-002  rzold =   9.097968654791724E-003  alpha = 
  0.167467251673300     
 delta_qm =   0.114309E-02 delta_en =   0.225790E+01 tol =   0.100000E-04
 Iteration #         11
  pAp =   4.269219404287460E-002  rzold =   6.785285834037450E-003  alpha = 
  0.158935046234053     
 delta_qm =   0.692258E-03 delta_en =   0.828095E+00 tol =   0.100000E-04
 Iteration #         12
  pAp =   2.725807435225297E-002  rzold =   4.570318220155528E-003  alpha = 
  0.167668418579164     
 delta_qm =   0.898503E-03 delta_en =   0.139503E+01 tol =   0.100000E-04
 Iteration #         13
  pAp =   2.157608724304392E-002  rzold =   3.434637004024010E-003  alpha = 
  0.159187204117898     
 delta_qm =   0.574688E-03 delta_en =   0.570699E+00 tol =   0.100000E-04
 Iteration #         14
  pAp =   1.388518590718140E-002  rzold =   2.332990364069021E-003  alpha = 
  0.168020102839415     
 delta_qm =   0.721782E-03 delta_en =   0.900234E+00 tol =   0.100000E-04
 Iteration #         15
  pAp =   1.109541517461068E-002  rzold =   1.770462720715639E-003  alpha = 
  0.159567054756720     
 delta_qm =   0.485850E-03 delta_en =   0.407894E+00 tol =   0.100000E-04
 Iteration #         16
  pAp =   7.215180432663493E-003  rzold =   1.215866887373032E-003  alpha = 
  0.168515104884798     
 delta_qm =   0.590368E-03 delta_en =   0.602267E+00 tol =   0.100000E-04
 Iteration #         17
  pAp =   5.838466791073238E-003  rzold =   9.346238290528901E-004  alpha = 
  0.160080353712363     
 delta_qm =   0.415493E-03 delta_en =   0.298313E+00 tol =   0.100000E-04
 Iteration #         18
  pAp =   3.848918357837357E-003  rzold =   6.510957316073471E-004  alpha = 
  0.169163300198757     
 delta_qm =   0.489876E-03 delta_en =   0.414682E+00 tol =   0.100000E-04
 Iteration #         19
  pAp =   3.165488794838016E-003  rzold =   5.087952735133577E-004  alpha = 
  0.160731977425747     
 delta_qm =   0.357673E-03 delta_en =   0.221063E+00 tol =   0.100000E-04
 Iteration #         20
  pAp =   2.123063360486833E-003  rzold =   3.608356640833221E-004  alpha = 
  0.169959913019544     
 delta_qm =   0.411025E-03 delta_en =   0.291931E+00 tol =   0.100000E-04
 Iteration #         21
  pAp =   1.781134889088530E-003  rzold =   2.876604361136133E-004  alpha = 
  0.161504015151160     
 delta_qm =   0.308906E-03 delta_en =   0.164891E+00 tol =   0.100000E-04
 Iteration #         22
  pAp =   1.219178349677538E-003  rzold =   2.083178165114687E-004  alpha = 
  0.170867385043843     
 delta_qm =   0.347746E-03 delta_en =   0.208962E+00 tol =   0.100000E-04
 Iteration #         23
  pAp =   1.046214047175058E-003  rzold =   1.698487407438258E-004  alpha = 
  0.162346071726378     
 delta_qm =   0.267110E-03 delta_en =   0.123289E+00 tol =   0.100000E-04
 Iteration #         24
  pAp =   7.322107787565102E-004  rzold =   1.258038309184574E-004  alpha = 
  0.171813683393334     
 delta_qm =   0.295997E-03 delta_en =   0.151398E+00 tol =   0.100000E-04
 Iteration #         25
  pAp =   6.433114074487914E-004  rzold =   1.049777351490746E-004  alpha = 
  0.163183388221561     
 delta_qm =   0.230985E-03 delta_en =   0.921960E-01 tol =   0.100000E-04
 Iteration #         26
  pAp =   4.602831143441865E-004  rzold =   7.949624469211245E-005  alpha = 
  0.172711625116596     
 delta_qm =   0.253039E-03 delta_en =   0.110642E+00 tol =   0.100000E-04
 Iteration #         27
  pAp =   4.135361405163185E-004  rzold =   6.779565572285860E-005  alpha = 
  0.163941307858154     
 delta_qm =   0.199661E-03 delta_en =   0.688858E-01 tol =   0.100000E-04
 Iteration #         28
  pAp =   3.018521257791636E-004  rzold =   5.236810629130233E-005  alpha = 
  0.173489274445644     
 delta_qm =   0.216969E-03 delta_en =   0.813463E-01 tol =   0.100000E-04
 Iteration #         29
  pAp =   2.764914285511623E-004  rzold =   4.550230588910715E-005  alpha = 
  0.164570403240140     
 delta_qm =   0.172491E-03 delta_en =   0.514133E-01 tol =   0.100000E-04
 Iteration #         30
  pAp =   2.051930477551193E-004  rzold =   3.572630627518599E-005  alpha = 
  0.174110705338430     
 delta_qm =   0.186428E-03 delta_en =   0.600571E-01 tol =   0.100000E-04
 Iteration #         31
  pAp =   1.908791777417589E-004  rzold =   3.150573214137971E-005  alpha = 
  0.165055887782605     
 delta_qm =   0.148948E-03 delta_en =   0.383367E-01 tol =   0.100000E-04
 Iteration #         32
  pAp =   1.434809552492460E-004  rzold =   2.504835560782853E-005  alpha = 
  0.174576169808154     
 delta_qm =   0.160416E-03 delta_en =   0.444670E-01 tol =   0.100000E-04
 Iteration #         33
  pAp =   1.350244803120065E-004  rzold =   2.233440843240263E-005  alpha = 
  0.165410067721006     
 delta_qm =   0.128577E-03 delta_en =   0.285675E-01 tol =   0.100000E-04
 Iteration #         34
  pAp =   1.024469422885258E-004  rzold =   1.791883864657945E-005  alpha = 
  0.174908476976442     
 delta_qm =   0.138171E-03 delta_en =   0.329898E-01 tol =   0.100000E-04
 Iteration #         35
  pAp =   9.720776002925572E-005  rzold =   1.610327527426503E-005  alpha = 
  0.165658330872130     
 delta_qm =   0.110972E-03 delta_en =   0.212799E-01 tol =   0.100000E-04
 Iteration #         36
  pAp =   7.423784720857668E-005  rzold =   1.300187491639663E-005  alpha = 
  0.175138092028274     
 delta_qm =   0.119096E-03 delta_en =   0.245097E-01 tol =   0.100000E-04
 Iteration #         37
  pAp =   7.084381676690274E-005  rzold =   1.174788212822034E-005  alpha = 
  0.165827910809413     
 delta_qm =   0.957707E-04 delta_en =   0.158493E-01 tol =   0.100000E-04
 Iteration #         38
  pAp =   5.434549527388834E-005  rzold =   9.526419868527738E-006  alpha = 
  0.175293643392462     
 delta_qm =   0.102707E-03 delta_en =   0.182284E-01 tol =   0.100000E-04
 Iteration #         39
  pAp =   5.206132066850044E-005  rzold =   8.639165855538757E-006  alpha = 
  0.165942118728576     
 delta_qm =   0.826533E-04 delta_en =   0.118049E-01 tol =   0.100000E-04
 Iteration #         40
  pAp =   4.005716146699860E-005  rzold =   7.025948723697272E-006  alpha = 
  0.175398067820798     
 delta_qm =   0.886091E-04 delta_en =   0.135675E-01 tol =   0.100000E-04
 Iteration #         41
  pAp =   3.847290939437139E-005  rzold =   6.387222545135087E-006  alpha = 
  0.166018703697765     
 delta_qm =   0.713379E-04 delta_en =   0.879396E-02 tol =   0.100000E-04
 Iteration #         42
  pAp =   2.966148423268631E-005  rzold =   5.204646587434962E-006  alpha = 
  0.175468177742082     
 delta_qm =   0.764699E-04 delta_en =   0.101047E-01 tol =   0.100000E-04
 Iteration #         43
  pAp =   2.853781401409394E-005  rzold =   4.739282991920205E-006  alpha = 
  0.166070287989810     
 delta_qm =   0.615786E-04 delta_en =   0.655245E-02 tol =   0.100000E-04
 Iteration #         44
  pAp =   2.203156714046769E-005  rzold =   3.866884983467011E-006  alpha = 
  0.175515657093875     
 delta_qm =   0.660110E-04 delta_en =   0.752967E-02 tol =   0.100000E-04
 Iteration #         45
  pAp =   2.122179231620857E-005  rzold =   3.525056045318707E-006  alpha = 
  0.166105482175809     
 delta_qm =   0.531617E-04 delta_en =   0.488362E-02 tol =   0.100000E-04
 Iteration #         46
  pAp =   1.639857568806143E-005  rzold =   2.878743127482821E-006  alpha = 
  0.175548363604445     
 delta_qm =   0.569953E-04 delta_en =   0.561335E-02 tol =   0.100000E-04
 Iteration #         47
  pAp =   1.580856106143852E-005  rzold =   2.626276417608399E-006  alpha = 
  0.166130010656986     
 delta_qm =   0.459022E-04 delta_en =   0.364092E-02 tol =   0.100000E-04
 Iteration #         48
  pAp =   1.222345145765351E-005  rzold =   2.146089404026874E-006  alpha = 
  0.175571475164908     
 delta_qm =   0.492208E-04 delta_en =   0.418641E-02 tol =   0.100000E-04
 Iteration #         49
  pAp =   1.179033609920805E-005  rzold =   1.958936266573288E-006  alpha = 
  0.166147618701461     
 delta_qm =   0.396403E-04 delta_en =   0.271530E-02 tol =   0.100000E-04
 Iteration #         50
  pAp =   9.120655641699460E-006  rzold =   1.601480976716889E-006  alpha = 
  0.175588361147520     
 delta_qm =   0.425146E-04 delta_en =   0.312335E-02 tol =   0.100000E-04
 Iteration #         51
  pAp =   8.801109974674459E-006  rzold =   1.462398884013335E-006  alpha = 
  0.166160732932715     
 delta_qm =   0.342381E-04 delta_en =   0.202565E-02 tol =   0.100000E-04
 Iteration #         52
  pAp =   6.810584215775463E-006  rzold =   1.195946745236136E-006  alpha = 
  0.175601197686675     
 delta_qm =   0.367284E-04 delta_en =   0.233103E-02 tol =   0.100000E-04
 Iteration #         53
  pAp =   6.574023062932750E-006  rzold =   1.092411439455796E-006  alpha = 
  0.166170916803638     
 delta_qm =   0.295769E-04 delta_en =   0.151164E-02 tol =   0.100000E-04
 Iteration #         54
  pAp =   5.088523185843444E-006  rzold =   8.936026020435398E-007  alpha = 
  0.175611384562341     
 delta_qm =   0.317348E-04 delta_en =   0.174027E-02 tol =   0.100000E-04
 Iteration #         55
  pAp =   4.912986705671454E-006  rzold =   8.164360771432138E-007  alpha = 
  0.166179174920367     
 delta_qm =   0.255544E-04 delta_en =   0.112843E-02 tol =   0.100000E-04
 Iteration #         56
  pAp =   3.803625889490983E-006  rzold =   6.679920971204520E-007  alpha = 
  0.175619820804681     
 delta_qm =   0.274244E-04 delta_en =   0.129963E-02 tol =   0.100000E-04
 Iteration #         57
  pAp =   3.673159637151121E-006  rzold =   6.104282677093814E-007  alpha = 
  0.166186152525303     
 delta_qm =   0.220824E-04 delta_en =   0.842625E-03 tol =   0.100000E-04
 Iteration #         58
  pAp =   2.844258820814243E-006  rzold =   4.995288833399376E-007  alpha = 
  0.175627084175460     
 delta_qm =   0.237030E-04 delta_en =   0.970844E-03 tol =   0.100000E-04
 Iteration #         59
  pAp =   2.747177547590869E-006  rzold =   4.565596582183206E-007  alpha = 
  0.166192264718638     
 delta_qm =   0.190850E-04 delta_en =   0.629403E-03 tol =   0.100000E-04
 Iteration #         60
  pAp =   2.127567359624336E-006  rzold =   3.736722017636143E-007  alpha = 
  0.175633546958341     
 delta_qm =   0.204895E-04 delta_en =   0.725445E-03 tol =   0.100000E-04
 Iteration #         61
  pAp =   2.055265719593677E-006  rzold =   3.415805989742901E-007  alpha = 
  0.166197779546394     
 delta_qm =   0.164970E-04 delta_en =   0.470277E-03 tol =   0.100000E-04
 Iteration #         62
  pAp =   1.591934100597607E-006  rzold =   2.796064302142189E-007  alpha = 
  0.175639450219237     
 delta_qm =   0.177141E-04 delta_en =   0.542226E-03 tol =   0.100000E-04
 Iteration #         63
  pAp =   1.538051308988096E-006  rzold =   2.556285435692087E-007  alpha = 
  0.166202871175598     
 delta_qm =   0.142620E-04 delta_en =   0.351484E-03 tol =   0.100000E-04
 Iteration #         64
  pAp =   1.191471533766257E-006  rzold =   2.092759594708739E-007  alpha = 
  0.175644951255654     
 delta_qm =   0.153167E-04 delta_en =   0.405390E-03 tol =   0.100000E-04
 Iteration #         65
  pAp =   1.151293920338966E-006  rzold =   1.913538613649169E-007  alpha = 
  0.166207653827077     
 delta_qm =   0.123316E-04 delta_en =   0.262773E-03 tol =   0.100000E-04
 Iteration #         66
  pAp =   8.919722078021798E-007  rzold =   1.566750555269520E-007  alpha = 
  0.175650153846160     
 delta_qm =   0.132455E-04 delta_en =   0.303166E-03 tol =   0.100000E-04
 Iteration #         67
  pAp =   8.620004736674774E-007  rzold =   1.432749980528684E-007  alpha = 
  0.166212203391593     
 delta_qm =   0.106639E-04 delta_en =   0.196507E-03 tol =   0.100000E-04
 Iteration #         68
  pAp =   6.679166470705994E-007  rzold =   1.173229838074988E-007  alpha = 
  0.175655127510391     
 delta_qm =   0.114558E-04 delta_en =   0.226776E-03 tol =   0.100000E-04
 Iteration #         69
  pAp =   6.455496860661984E-007  rzold =   1.073010553495352E-007  alpha = 
  0.166216571188189     
 delta_qm =   0.922306E-05 delta_en =   0.146992E-03 tol =   0.100000E-04
 Iteration #         70
  pAp =   5.002557158751778E-007  rzold =   8.787487891299881E-008  alpha = 
  0.175659919765764     
 delta_qm =   0.990921E-05 delta_en =   0.169677E-03 tol =   0.100000E-04
 Iteration #         71
  pAp =   4.835582330094299E-007  rzold =   8.037743281691771E-008  alpha = 
  0.166220792719603     
 delta_qm =   0.797793E-05 delta_en =   0.109983E-03 tol =   0.100000E-04
 Iteration #         72
  pAp =   3.747633916616338E-007  rzold =   6.583264777261472E-008  alpha = 
  0.175664563928522     
 delta_qm =   0.857244E-05 delta_en =   0.126985E-03 tol =   0.100000E-04
 Iteration #         73
  pAp =   3.622944203220438E-007  rzold =   6.022235134187459E-008  alpha = 
  0.166224893246611     
 delta_qm =   0.690179E-05 delta_en =   0.823128E-04 tol =   0.100000E-04
 Iteration #         74
  pAp =   2.808113609646522E-007  rzold =   4.932987458076309E-008  alpha = 
  0.175669084083007     
 delta_qm =   0.741688E-05 delta_en =   0.950574E-04 tol =   0.100000E-04
 Iteration #         75
  pAp =   2.714973679910159E-007  rzold =   4.513070648321559E-008  alpha = 
  0.166228891341256     
 delta_qm =   0.597157E-05 delta_en =   0.616198E-04 tol =   0.100000E-04
 Iteration #         76
  pAp =   2.104564147667536E-007  rzold =   3.697161461162941E-008  alpha = 
  0.175673498251905     
 delta_qm =   0.641783E-05 delta_en =   0.711738E-04 tol =   0.100000E-04
 Iteration #         77
  pAp =   2.034972170618051E-007  rzold =   3.382791241967990E-008  alpha = 
  0.166232801156223     
 delta_qm =   0.516736E-05 delta_en =   0.461403E-04 tol =   0.100000E-04
 Iteration #         78
  pAp =   1.577602395480382E-007  rzold =   2.771497503336158E-008  alpha = 
  0.175677820423963     
 delta_qm =   0.555398E-05 delta_en =   0.533032E-04 tol =   0.100000E-04
 Iteration #         79
  pAp =   1.525591503006199E-007  rzold =   2.536091961338114E-008  alpha = 
  0.166236633878775     
 delta_qm =   0.447200E-05 delta_en =   0.345578E-04 tol =   0.100000E-04
 Iteration #         80
  pAp =   1.182821011496849E-007  rzold =   2.078004341058859E-008  alpha = 
  0.175682061855594     
 delta_qm =   0.480695E-05 delta_en =   0.399285E-04 tol =   0.100000E-04
 Iteration #         81
  pAp =   1.143940116841644E-007  rzold =   1.901690610741714E-008  alpha = 
  0.166240398666337     
 delta_qm =   0.387067E-05 delta_en =   0.258890E-04 tol =   0.100000E-04
 Iteration #         82
  pAp =   8.870028120778663E-008  rzold =   1.558341817483632E-008  alpha = 
  0.175686231910935     
 delta_qm =   0.416085E-05 delta_en =   0.299163E-04 tol =   0.100000E-04
 Iteration #         83
  pAp =   8.579304227618596E-008  rzold =   1.426258737849458E-008  alpha = 
  0.166244103252339     
 delta_qm =   0.335059E-05 delta_en =   0.193993E-04 tol =   0.100000E-04
 Iteration #         84
  pAp =   6.652946738584835E-008  rzold =   1.168858465242375E-008  alpha = 
  0.175690338607912     
 delta_qm =   0.360198E-05 delta_en =   0.224195E-04 tol =   0.100000E-04
 Iteration #         85
  pAp =   6.435514455167637E-008  rzold =   1.069889826206501E-008  alpha = 
  0.166247754341907     
 delta_qm =   0.290072E-05 delta_en =   0.145397E-04 tol =   0.100000E-04
 Iteration #         86
  pAp =   4.990969658746687E-008  rzold =   8.768853645956324E-009  alpha = 
  0.175694388976877     
 delta_qm =   0.311850E-05 delta_en =   0.168049E-04 tol =   0.100000E-04
 Iteration #         87
  pAp =   4.828316357315193E-008  rzold =   8.027141506451172E-009  alpha = 
  0.166251357873217     
 delta_qm =   0.251154E-05 delta_en =   0.108999E-04 tol =   0.100000E-04
 Iteration #         88
  pAp =   3.744868166969442E-008  rzold =   6.579673050743483E-009  alpha = 
  0.175698389299192     
 delta_qm =   0.270020E-05 delta_en =   0.125990E-04 tol =   0.100000E-04
 Iteration #         89
  pAp =   3.623167103823002E-008  rzold =   6.023693540685491E-009  alpha = 
  0.166254919192923     
 delta_qm =   0.217481E-05 delta_en =   0.817312E-05 tol =   0.100000E-04
 Charges are converged, EXIT

%%%% ELECTRONS %%%%%%%%%%%%%%%%%%%%%%%%%%%%%%%%%%%%%%%%%%%%%%%%%%%%%%%%%%%%%%%%%
 number of electrons        =         24
 total electronic charge    =     24.0000000
 number of spin components  =  1

%%%% BOUNDARY %%%%%%%%%%%%%%%%%%%%%%%%%%%%%%%%%%%%%%%%%%%%%%%%%%%%%%%%%%%%%%%%%%
 boundary mode              = electronic           
 boundary is built as a function of a smooth density
 function type              =  2 
 using the modified SCCS function with parameters 
 rhomax                     =      0.0050000 
 rhomin                     =      0.0001000 
 volume of the QM region    =    717.0745325 
 surface of the QM region   =    412.4199777 

%%%% DIELECTRIC %%%%%%%%%%%%%%%%%%%%%%%%%%%%%%%%%%%%%%%%%%%%%%%%%%%%%%%%%%%%%%%%%
 dielectric build on homogeneous background
 environment bulk permitt.  =    100.0000000 
 dielectric flags
 need gradient              =  F 
 need factor depend. sqrt   =  T 
 need gradient of logarithm =  T 
