
     Program PWSCF v.6.3MaX starts on 21Apr2019 at 23:14:24 

     This program is part of the open-source Quantum ESPRESSO suite
     for quantum simulation of materials; please cite
         "P. Giannozzi et al., J. Phys.:Condens. Matter 21 395502 (2009);
         "P. Giannozzi et al., J. Phys.:Condens. Matter 29 465901 (2017);
          URL http://www.quantum-espresso.org", 
     in publications or presentations arising from this work. More details at
     http://www.quantum-espresso.org/quote

     Parallel version (MPI), running on     1 processors

     MPI processes distributed on     1 nodes
     Reading input from charged.in

     Current dimensions of program PWSCF are:
     Max number of different atomic species (ntypx) = 10
     Max number of k-points (npk) =  40000
     Max angular momentum in pseudopotentials (lmaxx) =  3
               file C.pbe-rrkjus.UPF: wavefunction(s)  2S 2P renormalized
               file H.pbe-rrkjus.UPF: wavefunction(s)  1S renormalized
               file N.pbe-rrkjus.UPF: wavefunction(s)  2S renormalized
               file O.pbe-rrkjus.UPF: wavefunction(s)  2S renormalized

     gamma-point specific algorithms are used

     Subspace diagonalization in iterative solution of the eigenvalue problem:
     a serial algorithm will be used

 
     G-vector sticks info
     --------------------
     sticks:   dense  smooth     PW     G-vecs:    dense   smooth      PW
     Sum        9549    3809    949               701475   177509   22119
 


     bravais-lattice index     =            1
     lattice parameter (alat)  =      20.0000  a.u.
     unit-cell volume          =    8000.0000 (a.u.)^3
     number of atoms/cell      =           10
     number of atomic types    =            4
     number of electrons       =        24.00
     number of Kohn-Sham states=           12
     kinetic-energy cutoff     =      30.0000  Ry
     charge density cutoff     =     300.0000  Ry
     convergence threshold     =      5.0E-03
     mixing beta               =       0.7000
     number of iterations used =            8  plain     mixing
     Exchange-correlation      = SLA PW PBE PBE ( 1  4  3  4 0 0)
 

     Environ Module
     ==============

     Plese cite
         O. Andreussi, I. Dabo and N. Marzari, J. Chem. Phys. 136, 064102 (2012)         
     in publications or presentations arising from this work.

     compensation onset threshold      =               0.1000E+03 
     static permittivity               =                   100.00 
     epsilon calculation mode          =               electronic 

     Electrostatic Setup
     -------------------
     electrostatic problem to solve    = generalized              
     numerical solver adopted          = cg                       
     type of auxiliary density adopted = none                     
     type of core tool for poisson     = fft                      
     type of core tool for s(r) deriv  = analytic                 



     celldm(1)=  20.000000  celldm(2)=   0.000000  celldm(3)=   0.000000
     celldm(4)=   0.000000  celldm(5)=   0.000000  celldm(6)=   0.000000

     crystal axes: (cart. coord. in units of alat)
               a(1) = (   1.000000   0.000000   0.000000 )  
               a(2) = (   0.000000   1.000000   0.000000 )  
               a(3) = (   0.000000   0.000000   1.000000 )  

     reciprocal axes: (cart. coord. in units 2 pi/alat)
               b(1) = (  1.000000  0.000000  0.000000 )  
               b(2) = (  0.000000  1.000000  0.000000 )  
               b(3) = (  0.000000  0.000000  1.000000 )  


     PseudoPot. # 1 for C  read from file:
     /home/fnattino/Programs/quantumespresso/q-e-qe-6.3-develop/Environ/tests/../..//pseudo/C.pbe-rrkjus.UPF
     MD5 check sum: c9ac5a99bc85b198593446162950cd17
     Pseudo is Ultrasoft, Zval =  4.0
     Generated by new atomic code, or converted to UPF format
     Using radial grid of  627 points,  4 beta functions with: 
                l(1) =   0
                l(2) =   0
                l(3) =   1
                l(4) =   1
     Q(r) pseudized with 0 coefficients 


     PseudoPot. # 2 for H  read from file:
     /home/fnattino/Programs/quantumespresso/q-e-qe-6.3-develop/Environ/tests/../..//pseudo/H.pbe-rrkjus.UPF
     MD5 check sum: 2d52a7f45632fd764c17cc6affed14c8
     Pseudo is Ultrasoft, Zval =  1.0
     Generated by new atomic code, or converted to UPF format
     Using radial grid of 1061 points,  2 beta functions with: 
                l(1) =   0
                l(2) =   0
     Q(r) pseudized with 0 coefficients 


     PseudoPot. # 3 for N  read from file:
     /home/fnattino/Programs/quantumespresso/q-e-qe-6.3-develop/Environ/tests/../..//pseudo/N.pbe-rrkjus.UPF
     MD5 check sum: 28c76d763763edb36c62a6ca2be9aebd
     Pseudo is Ultrasoft, Zval =  5.0
     Generated by new atomic code, or converted to UPF format
     Using radial grid of 1257 points,  4 beta functions with: 
                l(1) =   0
                l(2) =   0
                l(3) =   1
                l(4) =   1
     Q(r) pseudized with 0 coefficients 


     PseudoPot. # 4 for O  read from file:
     /home/fnattino/Programs/quantumespresso/q-e-qe-6.3-develop/Environ/tests/../..//pseudo/O.pbe-rrkjus.UPF
     MD5 check sum: fadcf19ee70a498d3030e2e79cf929a4
     Pseudo is Ultrasoft, Zval =  6.0
     Generated by new atomic code, or converted to UPF format
     Using radial grid of 1269 points,  4 beta functions with: 
                l(1) =   0
                l(2) =   0
                l(3) =   1
                l(4) =   1
     Q(r) pseudized with 0 coefficients 


     atomic species   valence    mass     pseudopotential
        C              4.00    12.00000     C ( 1.00)
        H              1.00     1.00000     H ( 1.00)
        N              5.00    14.00000     N ( 1.00)
        O              6.00    16.00000     O ( 1.00)

     No symmetry found



   Cartesian axes

     site n.     atom                  positions (alat units)
         1           C   tau(   1) = (   0.0000000   0.0000000   0.0000000  )
         2           C   tau(   2) = (   0.0000000   0.0000000   0.1455089  )
         3           N   tau(   3) = (   0.1170969   0.0000000  -0.0545024  )
         4           H   tau(   4) = (   0.0476617  -0.0825466   0.1792090  )
         5           H   tau(   5) = (  -0.0953183  -0.0000030   0.1792090  )
         6           H   tau(   6) = (   0.0476566   0.0825496   0.1792090  )
         7           O   tau(   7) = (  -0.0984002  -0.0000019  -0.0641310  )
         8           H   tau(   8) = (   0.1263131  -0.0000015  -0.1475548  )
         9           H   tau(   9) = (   0.1944645   0.0000134  -0.0025716  )
        10           H   tau(  10) = (  -0.0770366  -0.0000045  -0.1522861  )

     number of k points=     1
                       cart. coord. in units 2pi/alat
        k(    1) = (   0.0000000   0.0000000   0.0000000), wk =   2.0000000

     Dense  grid:   350738 G-vectors     FFT dimensions: ( 120, 120, 120)

     Smooth grid:    88755 G-vectors     FFT dimensions: (  72,  72,  72)

     Estimated max dynamical RAM per process >     691.80 MB

     Initial potential from superposition of free atoms
     Check: negative starting charge=   -0.000452

     starting charge   24.42266, renormalised to   24.00000

     negative rho (up, down):  4.438E-04 0.000E+00
     Starting wfcs are   22 randomized atomic wfcs

     total cpu time spent up to now is        5.1 secs

     Self-consistent Calculation

     iteration #  1     ecut=    30.00 Ry     beta= 0.70
     Davidson diagonalization with overlap
     ethr =  1.00E-02,  avg # of iterations =  2.0

     negative rho (up, down):  1.277E-04 0.000E+00

     add environment contribution to local potential
     polarization accuracy = 4.2E-06, # of iterations =  14

     total cpu time spent up to now is        9.2 secs

     total energy              =     -80.23905785 Ry
     Harris-Foulkes estimate   =     -83.01882218 Ry
     estimated scf accuracy    <       3.73443027 Ry
     electrostatic embedding   =       0.00000000 Ry
     correction to one-el term =       0.00000000 Ry

     iteration #  2     ecut=    30.00 Ry     beta= 0.70
     Davidson diagonalization with overlap
     ethr =  1.00E-02,  avg # of iterations =  4.0

     negative rho (up, down):  6.920E-04 0.000E+00

     add environment contribution to local potential
     polarization accuracy = 6.0E-06, # of iterations =  16

     total cpu time spent up to now is       13.7 secs

     total energy              =     -80.96153357 Ry
     Harris-Foulkes estimate   =     -76.58378496 Ry
     estimated scf accuracy    <       1.54143805 Ry
     electrostatic embedding   =      -0.18539263 Ry
     correction to one-el term =      -5.01778238 Ry

     iteration #  3     ecut=    30.00 Ry     beta= 0.70
     Davidson diagonalization with overlap
     ethr =  6.42E-03,  avg # of iterations =  3.0

     negative rho (up, down):  3.243E-04 0.000E+00

     add environment contribution to local potential
     polarization accuracy = 4.4E-06, # of iterations =  17

     total cpu time spent up to now is       18.1 secs

     total energy              =     -81.32007724 Ry
     Harris-Foulkes estimate   =     -77.00551763 Ry
     estimated scf accuracy    <       0.24273961 Ry
     electrostatic embedding   =      -0.15279980 Ry
     correction to one-el term =      -4.29116165 Ry

     iteration #  4     ecut=    30.00 Ry     beta= 0.70
     Davidson diagonalization with overlap
     ethr =  1.01E-03,  avg # of iterations =  4.0

     negative rho (up, down):  8.667E-05 0.000E+00

     add environment contribution to local potential
     polarization accuracy = 4.6E-06, # of iterations =  19

     total cpu time spent up to now is       22.6 secs

     total energy              =     -81.37925148 Ry
     Harris-Foulkes estimate   =     -77.20731628 Ry
     estimated scf accuracy    <       0.02093666 Ry
     electrostatic embedding   =      -0.12841008 Ry
     correction to one-el term =      -4.05415945 Ry

     iteration #  5     ecut=    30.00 Ry     beta= 0.70
     Davidson diagonalization with overlap
     ethr =  8.72E-05,  avg # of iterations =  4.0

     negative rho (up, down):  2.756E-04 0.000E+00

     the potential shift due to the Gaussian-smeared nuclei is    -0.0668 ev

     total cpu time spent up to now is       24.8 secs

     End of self-consistent calculation

          k = 0.0000 0.0000 0.0000 ( 11060 PWs)   bands (ev):

   -28.9375 -23.1992 -18.6810 -16.0122 -14.7185 -13.4442 -11.7059 -10.9635
    -9.6059  -9.5911  -9.3542  -7.4401

     highest occupied level (ev):    -7.4401

!    total energy              =     -81.38471503 Ry
     Harris-Foulkes estimate   =     -77.44083835 Ry
     estimated scf accuracy    <       0.00247579 Ry

     The total energy is the sum of the following terms:

     one-electron contribution =    -241.93634511 Ry
     hartree contribution      =     123.13423622 Ry
     xc contribution           =     -22.94472300 Ry
     ewald contribution        =      64.30784006 Ry
     electrostatic embedding   =      -0.12263012 Ry
     correction to one-el term =      -3.82309308 Ry

     convergence has been achieved in   5 iterations

     Forces acting on atoms (cartesian axes, Ry/au):

     atom    1 type  1   force =     0.21834100    0.00001130    0.09997472
     atom    2 type  1   force =    -0.03323351   -0.00000499   -0.08062800
     atom    3 type  3   force =    -0.13914444   -0.00000165    0.04522308
     atom    4 type  2   force =     0.01776078   -0.02856299    0.00858409
     atom    5 type  2   force =    -0.03290926   -0.00000174    0.01191824
     atom    6 type  2   force =     0.01776396    0.02856990    0.00858519
     atom    7 type  4   force =    -0.08357409   -0.00003233   -0.01002218
     atom    8 type  2   force =     0.00524128    0.00000665   -0.04816626
     atom    9 type  2   force =     0.03844849    0.00001095    0.03891281
     atom   10 type  2   force =    -0.00869421    0.00000489   -0.07438169

     Total force =     0.329163     Total SCF correction =     0.120927
     SCF correction compared to forces is large: reduce conv_thr to get better values

     Writing output data file pwscf.save/
 
     init_run     :      3.94s CPU      4.41s WALL (       1 calls)
     electrons    :     16.13s CPU     19.74s WALL (       1 calls)
     forces       :      0.75s CPU      0.98s WALL (       1 calls)

     Called by init_run:
     wfcinit      :      0.14s CPU      0.14s WALL (       1 calls)
     potinit      :      1.50s CPU      1.60s WALL (       1 calls)
     hinit0       :      1.95s CPU      2.00s WALL (       1 calls)

     Called by electrons:
     c_bands      :      1.18s CPU      1.18s WALL (       5 calls)
     sum_band     :      1.97s CPU      2.83s WALL (       5 calls)
     v_of_rho     :      2.77s CPU      3.02s WALL (       6 calls)
     newd         :      1.46s CPU      2.61s WALL (       6 calls)
     mix_rho      :      0.23s CPU      0.24s WALL (       5 calls)

     Called by c_bands:
     init_us_2    :      0.05s CPU      0.05s WALL (      11 calls)
     regterg      :      1.11s CPU      1.11s WALL (       5 calls)

     Called by sum_band:
     sum_band:bec :      0.00s CPU      0.00s WALL (       5 calls)
     addusdens    :      1.60s CPU      2.46s WALL (       5 calls)

     Called by *egterg:
     h_psi        :      1.14s CPU      1.13s WALL (      23 calls)
     s_psi        :      0.01s CPU      0.02s WALL (      23 calls)
     g_psi        :      0.01s CPU      0.01s WALL (      17 calls)
     rdiaghg      :      0.00s CPU      0.01s WALL (      22 calls)

     Called by h_psi:
     h_psi:pot    :      1.14s CPU      1.13s WALL (      23 calls)
     h_psi:calbec :      0.02s CPU      0.02s WALL (      23 calls)
     vloc_psi     :      1.09s CPU      1.09s WALL (      23 calls)
     add_vuspsi   :      0.03s CPU      0.02s WALL (      23 calls)

     General routines
     calbec       :      0.04s CPU      0.03s WALL (      32 calls)
     fft          :      4.96s CPU      4.97s WALL (     282 calls)
     ffts         :      0.04s CPU      0.03s WALL (      11 calls)
     fftw         :      0.98s CPU      0.97s WALL (     244 calls)
     interpolate  :      0.16s CPU      0.18s WALL (       6 calls)
 
     Parallel routines
 
     Environ routines
     calc_eelect  :      0.01s CPU      0.01s WALL (      10 calls)
     calc_velect  :      5.60s CPU      6.80s WALL (       8 calls)
     dielectric   :      0.32s CPU      0.34s WALL (       7 calls)
     calc_felect  :      0.09s CPU      0.09s WALL (       1 calls)
 
     PWSCF        :    21.47s CPU        25.82s WALL

 
   This run was terminated on:  23:14:50  21Apr2019            

=------------------------------------------------------------------------------=
   JOB DONE.
=------------------------------------------------------------------------------=

%%%% IONS %%%%%%%%%%%%%%%%%%%%%%%%%%%%%%%%%%%%%%%%%%%%%%%%%%%%%%%%%%%%%%%%%%%%%%
 number of ions             =         10
 ionic center of charge     =      0.0095530    -0.0000002     0.0063981
 total ionic charge         =    -25.0000000
 ionic dipole               =      0.0000000     0.0000000     0.0000000
 ionic quadrupole (pc)      =    -79.0828058    -5.4513517  -105.8059629
 ionic quadrupole (gauss)   =    -82.2078058    -8.5763517  -108.9309629
 ion   1 type =  1 coordinates =      0.0000000     0.0000000     0.0000000
 ion   2 type =  1 coordinates =      0.0000000     0.0000000     2.9101782
 ion   3 type =  3 coordinates =      2.3419379     0.0000000    -1.0900479
 ion   4 type =  2 coordinates =      0.9532347    -1.6509323     3.5841800
 ion   5 type =  2 coordinates =     -1.9063663    -0.0000596     3.5841809
 ion   6 type =  2 coordinates =      0.9531315     1.6509919     3.5841800
 ion   7 type =  4 coordinates =     -1.9680045    -0.0000375    -1.2826193
 ion   8 type =  2 coordinates =      2.5262613    -0.0000303    -2.9510950
 ion   9 type =  2 coordinates =      3.8892907     0.0002681    -0.0514326
 ion  10 type =  2 coordinates =     -1.5407317    -0.0000890    -3.0457220

%%%% SYSTEM %%%%%%%%%%%%%%%%%%%%%%%%%%%%%%%%%%%%%%%%%%%%%%%%%%%%%%%%%%%%%%%%%%%%
 system is built from all present ionic types
 system defined dimension   =  0 
 system defined axis        =  3 
 system center              =      0.0095530    -0.0000002     0.0063981 
 system width               =      0.2021425 

%%%% ELECTRONS %%%%%%%%%%%%%%%%%%%%%%%%%%%%%%%%%%%%%%%%%%%%%%%%%%%%%%%%%%%%%%%%%
 number of electrons        =         24
 total electronic charge    =     24.0000000
 number of spin components  =  1

%%%% BOUNDARY %%%%%%%%%%%%%%%%%%%%%%%%%%%%%%%%%%%%%%%%%%%%%%%%%%%%%%%%%%%%%%%%%%
 boundary label             = solvent              
 boundary mode              = electronic           
 boundary is built as a function of a smooth density
 function type              =  2 
 using the modified SCCS function with parameters 
 rhomax                     =      0.0050000 
 rhomin                     =      0.0001000 
 volume of the QM region    =   2771.6247530 
 surface of the QM region   =    905.6008160 

%%%% DIELECTRIC %%%%%%%%%%%%%%%%%%%%%%%%%%%%%%%%%%%%%%%%%%%%%%%%%%%%%%%%%%%%%%%%%
 dielectric build on homogeneous background
 environment bulk permitt.  =    100.0000000 
 dielectric flags
 need gradient              =  F 
 need factor depend. sqrt   =  T 
 total dielectric charge    =      0.0000000

%%%% DENSITY %%%%%%%%%%%%%%%%%%%%%%%%%%%%%%%%%%%%%%%%%%%%%%%%%%%%%%%%%%%%%%%%%%%
 density label              = vreference                                                                      
 integral of density        =      0.000000000    

%%%% DENSITY %%%%%%%%%%%%%%%%%%%%%%%%%%%%%%%%%%%%%%%%%%%%%%%%%%%%%%%%%%%%%%%%%%%
 density label              = velectrostatic                                                                  
 integral of density        =      0.000000000    

%%%% CHARGES %%%%%%%%%%%%%%%%%%%%%%%%%%%%%%%%%%%%%%%%%%%%%%%%%%%%%%%%%%%%%%%%%%%
 total number of charges    =         34
 total charge               =     -1.0000000

%%%% DENSITY %%%%%%%%%%%%%%%%%%%%%%%%%%%%%%%%%%%%%%%%%%%%%%%%%%%%%%%%%%%%%%%%%%%
 density label              = vsoftcavity                                                                     
 integral of density        =      0.000000000    

%%%% ELECTRONS %%%%%%%%%%%%%%%%%%%%%%%%%%%%%%%%%%%%%%%%%%%%%%%%%%%%%%%%%%%%%%%%%
 number of electrons        =         24
 total electronic charge    =     24.0000000
 number of spin components  =  1

%%%% BOUNDARY %%%%%%%%%%%%%%%%%%%%%%%%%%%%%%%%%%%%%%%%%%%%%%%%%%%%%%%%%%%%%%%%%%
 boundary label             = solvent              
 boundary mode              = electronic           
 boundary is built as a function of a smooth density
 function type              =  2 
 using the modified SCCS function with parameters 
 rhomax                     =      0.0050000 
 rhomin                     =      0.0001000 
 volume of the QM region    =    989.6663037 
 surface of the QM region   =    490.3846795 

%%%% DIELECTRIC %%%%%%%%%%%%%%%%%%%%%%%%%%%%%%%%%%%%%%%%%%%%%%%%%%%%%%%%%%%%%%%%%
 dielectric build on homogeneous background
 environment bulk permitt.  =    100.0000000 
 dielectric flags
 need gradient              =  F 
 need factor depend. sqrt   =  T 
 total dielectric charge    =      0.0000000

%%%% DENSITY %%%%%%%%%%%%%%%%%%%%%%%%%%%%%%%%%%%%%%%%%%%%%%%%%%%%%%%%%%%%%%%%%%%
 density label              = vreference                                                                      
 integral of density        =    -0.1947413424E-12

%%%% COMPUTE ELECTROSTATIC POTENTIAL %%%%%%%%%%%%%%%%%%%%%%%%%%%%%%%%%%%%%%%%%%%
 Iteration #          1
  pAp =    92.0128131107395       rzold =    89.1167871489850       alpha = 
  0.968525840436275     
 delta_qm =   0.144051E-01 delta_en =   0.358571E+03 tol =   0.100000E-04
 Iteration #          2
  pAp =    132.520657640117       rzold =    17.6132548542910       alpha = 
  0.132909503830888     
 delta_qm =   0.289070E-02 delta_en =   0.144394E+02 tol =   0.100000E-04
 Iteration #          3
  pAp =   0.875210726639390       rzold =   0.189580626128068       alpha = 
  0.216611406096466     
 delta_qm =   0.145902E-02 delta_en =   0.367844E+01 tol =   0.100000E-04
 Iteration #          4
  pAp =   0.108685012690471       rzold =   2.398392293268904E-002  alpha = 
  0.220673691238313     
 delta_qm =   0.104063E-02 delta_en =   0.187125E+01 tol =   0.100000E-04
 Iteration #          5
  pAp =   1.103448460193096E-002  rzold =   4.016261756553608E-003  alpha = 
  0.363973660885873     
 delta_qm =   0.560004E-03 delta_en =   0.541909E+00 tol =   0.100000E-04
 Iteration #          6
  pAp =   3.161772893740523E-003  rzold =   1.244401414874726E-003  alpha = 
  0.393577102687645     
 delta_qm =   0.250805E-03 delta_en =   0.108697E+00 tol =   0.100000E-04
 Iteration #          7
  pAp =   4.557029479956969E-004  rzold =   1.852514338078247E-004  alpha = 
  0.406517962244067     
 delta_qm =   0.150204E-03 delta_en =   0.389857E-01 tol =   0.100000E-04
 Iteration #          8
  pAp =   3.340931944857206E-004  rzold =   9.997319056183024E-005  alpha = 
  0.299237434978949     
 delta_qm =   0.862175E-04 delta_en =   0.128450E-01 tol =   0.100000E-04
 Iteration #          9
  pAp =   1.111757498479927E-004  rzold =   4.483629786976962E-005  alpha = 
  0.403292066220133     
 delta_qm =   0.370895E-04 delta_en =   0.237709E-02 tol =   0.100000E-04
 Iteration #         10
  pAp =   2.443675294536365E-005  rzold =   1.025899628262564E-005  alpha = 
  0.419818308331020     
 delta_qm =   0.181116E-04 delta_en =   0.566834E-03 tol =   0.100000E-04
 Iteration #         11
  pAp =   1.752100488235895E-006  rzold =   9.356876123717783E-007  alpha = 
  0.534037641479044     
 delta_qm =   0.992077E-05 delta_en =   0.170073E-03 tol =   0.100000E-04
 Iteration #         12
  pAp =   3.088983757375326E-007  rzold =   1.998189316465173E-007  alpha = 
  0.646875954492882     
 delta_qm =   0.472194E-05 delta_en =   0.385287E-04 tol =   0.100000E-04
 Iteration #         13
  pAp =   2.177341845555609E-007  rzold =   9.265342143864204E-008  alpha = 
  0.425534564670064     
 delta_qm =   0.253130E-05 delta_en =   0.110721E-04 tol =   0.100000E-04
 Iteration #         14
  pAp =   1.078851822183944E-007  rzold =   3.692860480782536E-008  alpha = 
  0.342295429719625     
 delta_qm =   0.156053E-05 delta_en =   0.420813E-05 tol =   0.100000E-04
 Charges are converged, EXIT

%%%% DENSITY %%%%%%%%%%%%%%%%%%%%%%%%%%%%%%%%%%%%%%%%%%%%%%%%%%%%%%%%%%%%%%%%%%%
 density label              = velectrostatic                                                                  
 integral of density        =    -0.2523742532E-12

%%%% CHARGES %%%%%%%%%%%%%%%%%%%%%%%%%%%%%%%%%%%%%%%%%%%%%%%%%%%%%%%%%%%%%%%%%%%
 total number of charges    =         34
 total charge               =     -1.0000000

%%%% DENSITY %%%%%%%%%%%%%%%%%%%%%%%%%%%%%%%%%%%%%%%%%%%%%%%%%%%%%%%%%%%%%%%%%%%
 density label              = vsoftcavity                                                                     
 integral of density        =      71.22167855    

%%%% ELECTRONS %%%%%%%%%%%%%%%%%%%%%%%%%%%%%%%%%%%%%%%%%%%%%%%%%%%%%%%%%%%%%%%%%
 number of electrons        =         24
 total electronic charge    =     24.0000000
 number of spin components  =  1

%%%% BOUNDARY %%%%%%%%%%%%%%%%%%%%%%%%%%%%%%%%%%%%%%%%%%%%%%%%%%%%%%%%%%%%%%%%%%
 boundary label             = solvent              
 boundary mode              = electronic           
 boundary is built as a function of a smooth density
 function type              =  2 
 using the modified SCCS function with parameters 
 rhomax                     =      0.0050000 
 rhomin                     =      0.0001000 
 volume of the QM region    =    837.6752772 
 surface of the QM region   =    448.9926521 

%%%% DIELECTRIC %%%%%%%%%%%%%%%%%%%%%%%%%%%%%%%%%%%%%%%%%%%%%%%%%%%%%%%%%%%%%%%%%
 dielectric build on homogeneous background
 environment bulk permitt.  =    100.0000000 
 dielectric flags
 need gradient              =  F 
 need factor depend. sqrt   =  T 
 total dielectric charge    =      0.9813172

%%%% DENSITY %%%%%%%%%%%%%%%%%%%%%%%%%%%%%%%%%%%%%%%%%%%%%%%%%%%%%%%%%%%%%%%%%%%
 density label              = vreference                                                                      
 integral of density        =    -0.3887589839E-12

%%%% COMPUTE ELECTROSTATIC POTENTIAL %%%%%%%%%%%%%%%%%%%%%%%%%%%%%%%%%%%%%%%%%%%
 Warning: bad guess with residual norm =   0.739954E+03, reset to no guess
 Iteration #          1
  pAp =    95.4532541409167       rzold =    92.7270004928729       alpha = 
  0.971438861120239     
 delta_qm =   0.202002E-01 delta_en =   0.705107E+03 tol =   0.100000E-04
 Iteration #          2
  pAp =    168.376786623989       rzold =    19.5453955973684       alpha = 
  0.116081295939067     
 delta_qm =   0.404439E-02 delta_en =   0.282650E+02 tol =   0.100000E-04
 Iteration #          3
  pAp =    1.14307351734686       rzold =   0.200859142911564       alpha = 
  0.175718481675413     
 delta_qm =   0.218211E-02 delta_en =   0.822808E+01 tol =   0.100000E-04
 Iteration #          4
  pAp =   0.120334625663266       rzold =   2.338432251243517E-002  alpha = 
  0.194327462968737     
 delta_qm =   0.161698E-02 delta_en =   0.451808E+01 tol =   0.100000E-04
 Iteration #          5
  pAp =   1.203994780240583E-002  rzold =   4.619582002293071E-003  alpha = 
  0.383687876235642     
 delta_qm =   0.908470E-03 delta_en =   0.142615E+01 tol =   0.100000E-04
 Iteration #          6
  pAp =   5.230817468926540E-003  rzold =   1.849800894740720E-003  alpha = 
  0.353635145123948     
 delta_qm =   0.473634E-03 delta_en =   0.387641E+00 tol =   0.100000E-04
 Iteration #          7
  pAp =   8.397839500988653E-004  rzold =   3.992906034814209E-004  alpha = 
  0.475468248035002     
 delta_qm =   0.288919E-03 delta_en =   0.144243E+00 tol =   0.100000E-04
 Iteration #          8
  pAp =   5.688129178651886E-004  rzold =   2.356311842864277E-004  alpha = 
  0.414250761341312     
 delta_qm =   0.139604E-03 delta_en =   0.336776E-01 tol =   0.100000E-04
 Iteration #          9
  pAp =   7.502644140882399E-004  rzold =   1.729041843444079E-004  alpha = 
  0.230457664121695     
 delta_qm =   0.789328E-04 delta_en =   0.107661E-01 tol =   0.100000E-04
 Iteration #         10
  pAp =   1.309131264588395E-004  rzold =   4.485681116982077E-005  alpha = 
  0.342645633659389     
 delta_qm =   0.362182E-04 delta_en =   0.226672E-02 tol =   0.100000E-04
 Iteration #         11
  pAp =   7.465095097882985E-006  rzold =   3.285963496617797E-006  alpha = 
  0.440177044435731     
 delta_qm =   0.207697E-04 delta_en =   0.745428E-03 tol =   0.100000E-04
 Iteration #         12
  pAp =   1.861412285221664E-006  rzold =   7.622019033232752E-007  alpha = 
  0.409475057930280     
 delta_qm =   0.135942E-04 delta_en =   0.319339E-03 tol =   0.100000E-04
 Iteration #         13
  pAp =   6.061881692364011E-007  rzold =   3.000988679625632E-007  alpha = 
  0.495058932510329     
 delta_qm =   0.796247E-05 delta_en =   0.109557E-03 tol =   0.100000E-04
 Iteration #         14
  pAp =   3.783487811951780E-007  rzold =   1.499830283898038E-007  alpha = 
  0.396414725893969     
 delta_qm =   0.542340E-05 delta_en =   0.508262E-04 tol =   0.100000E-04
 Iteration #         15
  pAp =   1.523815016572253E-007  rzold =   5.997261994311600E-008  alpha = 
  0.393568899708191     
 delta_qm =   0.342533E-05 delta_en =   0.202744E-04 tol =   0.100000E-04
 Iteration #         16
  pAp =   6.744234775069439E-008  rzold =   2.539843771735330E-008  alpha = 
  0.376594803775819     
 delta_qm =   0.186024E-05 delta_en =   0.597971E-05 tol =   0.100000E-04
 Charges are converged, EXIT

%%%% DENSITY %%%%%%%%%%%%%%%%%%%%%%%%%%%%%%%%%%%%%%%%%%%%%%%%%%%%%%%%%%%%%%%%%%%
 density label              = velectrostatic                                                                  
 integral of density        =    -0.4562605437E-12

%%%% CHARGES %%%%%%%%%%%%%%%%%%%%%%%%%%%%%%%%%%%%%%%%%%%%%%%%%%%%%%%%%%%%%%%%%%%
 total number of charges    =         34
 total charge               =     -1.0000000

%%%% DENSITY %%%%%%%%%%%%%%%%%%%%%%%%%%%%%%%%%%%%%%%%%%%%%%%%%%%%%%%%%%%%%%%%%%%
 density label              = vsoftcavity                                                                     
 integral of density        =      49.60039014    

%%%% ELECTRONS %%%%%%%%%%%%%%%%%%%%%%%%%%%%%%%%%%%%%%%%%%%%%%%%%%%%%%%%%%%%%%%%%
 number of electrons        =         24
 total electronic charge    =     24.0000000
 number of spin components  =  1

%%%% BOUNDARY %%%%%%%%%%%%%%%%%%%%%%%%%%%%%%%%%%%%%%%%%%%%%%%%%%%%%%%%%%%%%%%%%%
 boundary label             = solvent              
 boundary mode              = electronic           
 boundary is built as a function of a smooth density
 function type              =  2 
 using the modified SCCS function with parameters 
 rhomax                     =      0.0050000 
 rhomin                     =      0.0001000 
 volume of the QM region    =    757.1451765 
 surface of the QM region   =    424.1890896 

%%%% DIELECTRIC %%%%%%%%%%%%%%%%%%%%%%%%%%%%%%%%%%%%%%%%%%%%%%%%%%%%%%%%%%%%%%%%%
 dielectric build on homogeneous background
 environment bulk permitt.  =    100.0000000 
 dielectric flags
 need gradient              =  F 
 need factor depend. sqrt   =  T 
 total dielectric charge    =      0.9822638

%%%% DENSITY %%%%%%%%%%%%%%%%%%%%%%%%%%%%%%%%%%%%%%%%%%%%%%%%%%%%%%%%%%%%%%%%%%%
 density label              = vreference                                                                      
 integral of density        =    -0.6990951028E-12

%%%% COMPUTE ELECTROSTATIC POTENTIAL %%%%%%%%%%%%%%%%%%%%%%%%%%%%%%%%%%%%%%%%%%%
 Warning: bad guess with residual norm =   0.919184E+03, reset to no guess
 Iteration #          1
  pAp =    95.9547098636073       rzold =    93.3874254792728       alpha = 
  0.973244831983925     
 delta_qm =   0.225243E-01 delta_en =   0.876693E+03 tol =   0.100000E-04
 Iteration #          2
  pAp =    211.476298404852       rzold =    21.4225607332820       alpha = 
  0.101300055348380     
 delta_qm =   0.423465E-02 delta_en =   0.309870E+02 tol =   0.100000E-04
 Iteration #          3
  pAp =    1.22639043117721       rzold =   0.223409080001206       alpha = 
  0.182167990161791     
 delta_qm =   0.203974E-02 delta_en =   0.718943E+01 tol =   0.100000E-04
 Iteration #          4
  pAp =   0.105213229616846       rzold =   1.939353320837929E-002  alpha = 
  0.184325994734735     
 delta_qm =   0.159181E-02 delta_en =   0.437851E+01 tol =   0.100000E-04
 Iteration #          5
  pAp =   1.927504196916017E-002  rzold =   5.459539720391473E-003  alpha = 
  0.283243986141595     
 delta_qm =   0.103603E-02 delta_en =   0.185476E+01 tol =   0.100000E-04
 Iteration #          6
  pAp =   7.054794427697301E-003  rzold =   2.376778376136917E-003  alpha = 
  0.336902570371948     
 delta_qm =   0.569971E-03 delta_en =   0.561370E+00 tol =   0.100000E-04
 Iteration #          7
  pAp =   1.575539575676417E-003  rzold =   6.635488532181920E-004  alpha = 
  0.421156576110324     
 delta_qm =   0.371149E-03 delta_en =   0.238034E+00 tol =   0.100000E-04
 Iteration #          8
  pAp =   7.290659618179991E-004  rzold =   3.498499234174671E-004  alpha = 
  0.479860453977417     
 delta_qm =   0.191487E-03 delta_en =   0.633611E-01 tol =   0.100000E-04
 Iteration #          9
  pAp =   1.077006289648091E-003  rzold =   2.727210991248646E-004  alpha = 
  0.253221454457778     
 delta_qm =   0.136317E-03 delta_en =   0.321101E-01 tol =   0.100000E-04
 Iteration #         10
  pAp =   6.050818221521524E-004  rzold =   1.531851208445637E-004  alpha = 
  0.253164308092607     
 delta_qm =   0.583262E-04 delta_en =   0.587857E-02 tol =   0.100000E-04
 Iteration #         11
  pAp =   4.566946150304416E-005  rzold =   1.553155218599393E-005  alpha = 
  0.340086168630621     
 delta_qm =   0.349018E-04 delta_en =   0.210494E-02 tol =   0.100000E-04
 Iteration #         12
  pAp =   1.437005101811961E-005  rzold =   3.982079042025294E-006  alpha = 
  0.277109596688570     
 delta_qm =   0.232666E-04 delta_en =   0.935429E-03 tol =   0.100000E-04
 Iteration #         13
  pAp =   1.961639512994228E-006  rzold =   8.530808066552341E-007  alpha = 
  0.434881537104185     
 delta_qm =   0.136220E-04 delta_en =   0.320647E-03 tol =   0.100000E-04
 Iteration #         14
  pAp =   9.183012760226300E-007  rzold =   3.868021237423057E-007  alpha = 
  0.421214838574147     
 delta_qm =   0.924595E-05 delta_en =   0.147722E-03 tol =   0.100000E-04
 Iteration #         15
  pAp =   2.951696506905860E-007  rzold =   1.377698586774821E-007  alpha = 
  0.466748049317240     
 delta_qm =   0.529389E-05 delta_en =   0.484276E-04 tol =   0.100000E-04
 Iteration #         16
  pAp =   1.218299251706654E-007  rzold =   5.620257894309928E-008  alpha = 
  0.461319982462174     
 delta_qm =   0.298345E-05 delta_en =   0.153809E-04 tol =   0.100000E-04
 Iteration #         17
  pAp =   3.788673004861976E-008  rzold =   1.736588654335734E-008  alpha = 
  0.458363298206835     
 delta_qm =   0.160172E-05 delta_en =   0.443319E-05 tol =   0.100000E-04
 Charges are converged, EXIT

%%%% DENSITY %%%%%%%%%%%%%%%%%%%%%%%%%%%%%%%%%%%%%%%%%%%%%%%%%%%%%%%%%%%%%%%%%%%
 density label              = velectrostatic                                                                  
 integral of density        =     0.8462695565E-12

%%%% CHARGES %%%%%%%%%%%%%%%%%%%%%%%%%%%%%%%%%%%%%%%%%%%%%%%%%%%%%%%%%%%%%%%%%%%
 total number of charges    =         34
 total charge               =     -1.0000000

%%%% DENSITY %%%%%%%%%%%%%%%%%%%%%%%%%%%%%%%%%%%%%%%%%%%%%%%%%%%%%%%%%%%%%%%%%%%
 density label              = vsoftcavity                                                                     
 integral of density        =      37.81267105    

%%%% ELECTRONS %%%%%%%%%%%%%%%%%%%%%%%%%%%%%%%%%%%%%%%%%%%%%%%%%%%%%%%%%%%%%%%%%
 number of electrons        =         24
 total electronic charge    =     24.0000000
 number of spin components  =  1

%%%% BOUNDARY %%%%%%%%%%%%%%%%%%%%%%%%%%%%%%%%%%%%%%%%%%%%%%%%%%%%%%%%%%%%%%%%%%
 boundary label             = solvent              
 boundary mode              = electronic           
 boundary is built as a function of a smooth density
 function type              =  2 
 using the modified SCCS function with parameters 
 rhomax                     =      0.0050000 
 rhomin                     =      0.0001000 
 volume of the QM region    =    717.0742666 
 surface of the QM region   =    412.4201055 

%%%% DIELECTRIC %%%%%%%%%%%%%%%%%%%%%%%%%%%%%%%%%%%%%%%%%%%%%%%%%%%%%%%%%%%%%%%%%
 dielectric build on homogeneous background
 environment bulk permitt.  =    100.0000000 
 dielectric flags
 need gradient              =  F 
 need factor depend. sqrt   =  T 
 total dielectric charge    =      0.9824215

%%%% DENSITY %%%%%%%%%%%%%%%%%%%%%%%%%%%%%%%%%%%%%%%%%%%%%%%%%%%%%%%%%%%%%%%%%%%
 density label              = vreference                                                                      
 integral of density        =     0.9713382362E-12

%%%% COMPUTE ELECTROSTATIC POTENTIAL %%%%%%%%%%%%%%%%%%%%%%%%%%%%%%%%%%%%%%%%%%%
 Warning: bad guess with residual norm =   0.139383E+04, reset to no guess
 Iteration #          1
  pAp =    95.8691089321495       rzold =    93.2739930176128       alpha = 
  0.972930634868283     
 delta_qm =   0.276968E-01 delta_en =   0.132557E+04 tol =   0.100000E-04
 Iteration #          2
  pAp =    251.297062524667       rzold =    23.5291115111898       alpha = 
  9.363066672886484E-002
 delta_qm =   0.507391E-02 delta_en =   0.444866E+02 tol =   0.100000E-04
 Iteration #          3
  pAp =    1.73945476151927       rzold =   0.290084524199185       alpha = 
  0.166767501297832     
 delta_qm =   0.235968E-02 delta_en =   0.962163E+01 tol =   0.100000E-04
 Iteration #          4
  pAp =   0.139146983418397       rzold =   2.384137440408375E-002  alpha = 
  0.171339498840560     
 delta_qm =   0.188097E-02 delta_en =   0.611378E+01 tol =   0.100000E-04
 Iteration #          5
  pAp =   2.560766562823738E-002  rzold =   6.443460987910678E-003  alpha = 
  0.251622349395469     
 delta_qm =   0.128332E-02 delta_en =   0.284587E+01 tol =   0.100000E-04
 Iteration #          6
  pAp =   8.422309908878723E-003  rzold =   2.729245806758127E-003  alpha = 
  0.324049558409265     
 delta_qm =   0.748391E-03 delta_en =   0.967833E+00 tol =   0.100000E-04
 Iteration #          7
  pAp =   2.328842721851332E-003  rzold =   8.714829294313472E-004  alpha = 
  0.374212874598313     
 delta_qm =   0.527007E-03 delta_en =   0.479928E+00 tol =   0.100000E-04
 Iteration #          8
  pAp =   1.176149132327975E-003  rzold =   4.529229439686226E-004  alpha = 
  0.385089723334781     
 delta_qm =   0.307284E-03 delta_en =   0.163163E+00 tol =   0.100000E-04
 Iteration #          9
  pAp =   1.999110868266578E-003  rzold =   4.912016037212015E-004  alpha = 
  0.245710036155784     
 delta_qm =   0.235208E-03 delta_en =   0.955980E-01 tol =   0.100000E-04
 Iteration #         10
  pAp =   7.679342994167082E-004  rzold =   2.570262065724034E-004  alpha = 
  0.334698172444739     
 delta_qm =   0.982210E-04 delta_en =   0.166706E-01 tol =   0.100000E-04
 Iteration #         11
  pAp =   1.199189325505172E-004  rzold =   3.955606479301423E-005  alpha = 
  0.329856711961231     
 delta_qm =   0.616226E-04 delta_en =   0.656182E-02 tol =   0.100000E-04
 Iteration #         12
  pAp =   3.890747135361313E-005  rzold =   1.026965568097793E-005  alpha = 
  0.263950735519188     
 delta_qm =   0.435183E-04 delta_en =   0.327256E-02 tol =   0.100000E-04
 Iteration #         13
  pAp =   5.786519913470879E-006  rzold =   2.294778427699931E-006  alpha = 
  0.396573149667686     
 delta_qm =   0.275606E-04 delta_en =   0.131257E-02 tol =   0.100000E-04
 Iteration #         14
  pAp =   2.890741592724268E-006  rzold =   1.180309037245123E-006  alpha = 
  0.408306657438995     
 delta_qm =   0.192884E-04 delta_en =   0.642887E-03 tol =   0.100000E-04
 Iteration #         15
  pAp =   1.064089809542878E-006  rzold =   4.767996083543812E-007  alpha = 
  0.448082111188725     
 delta_qm =   0.109204E-04 delta_en =   0.206071E-03 tol =   0.100000E-04
 Iteration #         16
  pAp =   4.831847159751001E-007  rzold =   2.062701019969584E-007  alpha = 
  0.426896992345238     
 delta_qm =   0.656102E-05 delta_en =   0.743852E-04 tol =   0.100000E-04
 Iteration #         17
  pAp =   1.581847102757956E-007  rzold =   6.428252687635655E-008  alpha = 
  0.406376360675313     
 delta_qm =   0.373774E-05 delta_en =   0.241414E-04 tol =   0.100000E-04
 Iteration #         18
  pAp =   1.711427261353295E-007  rzold =   3.652336883322355E-008  alpha = 
  0.213408829331975     
 delta_qm =   0.250155E-05 delta_en =   0.108134E-04 tol =   0.100000E-04
 Iteration #         19
  pAp =   2.121516743614370E-008  rzold =   9.036020744169472E-009  alpha = 
  0.425922669305690     
 delta_qm =   0.163940E-05 delta_en =   0.464423E-05 tol =   0.100000E-04
 Charges are converged, EXIT

%%%% DENSITY %%%%%%%%%%%%%%%%%%%%%%%%%%%%%%%%%%%%%%%%%%%%%%%%%%%%%%%%%%%%%%%%%%%
 density label              = velectrostatic                                                                  
 integral of density        =     0.3658637179E-12

%%%% CHARGES %%%%%%%%%%%%%%%%%%%%%%%%%%%%%%%%%%%%%%%%%%%%%%%%%%%%%%%%%%%%%%%%%%%
 total number of charges    =         34
 total charge               =     -1.0000000

%%%% DENSITY %%%%%%%%%%%%%%%%%%%%%%%%%%%%%%%%%%%%%%%%%%%%%%%%%%%%%%%%%%%%%%%%%%%
 density label              = vsoftcavity                                                                     
 integral of density        =      33.74494386    

%%%% ELECTRONS %%%%%%%%%%%%%%%%%%%%%%%%%%%%%%%%%%%%%%%%%%%%%%%%%%%%%%%%%%%%%%%%%
 number of electrons        =         24
 total electronic charge    =     24.0000000
 number of spin components  =  1

%%%% BOUNDARY %%%%%%%%%%%%%%%%%%%%%%%%%%%%%%%%%%%%%%%%%%%%%%%%%%%%%%%%%%%%%%%%%%
 boundary label             = solvent              
 boundary mode              = electronic           
 boundary is built as a function of a smooth density
 function type              =  2 
 using the modified SCCS function with parameters 
 rhomax                     =      0.0050000 
 rhomin                     =      0.0001000 
 volume of the QM region    =    717.0742666 
 surface of the QM region   =    412.4201055 

%%%% DIELECTRIC %%%%%%%%%%%%%%%%%%%%%%%%%%%%%%%%%%%%%%%%%%%%%%%%%%%%%%%%%%%%%%%%%
 dielectric build on homogeneous background
 environment bulk permitt.  =    100.0000000 
 dielectric flags
 need gradient              =  F 
 need factor depend. sqrt   =  T 
 total dielectric charge    =      0.9824044

%%%% DENSITY %%%%%%%%%%%%%%%%%%%%%%%%%%%%%%%%%%%%%%%%%%%%%%%%%%%%%%%%%%%%%%%%%%%
 density label              = vreference                                                                      
 integral of density        =     0.9713382362E-12

%%%% DENSITY %%%%%%%%%%%%%%%%%%%%%%%%%%%%%%%%%%%%%%%%%%%%%%%%%%%%%%%%%%%%%%%%%%%
 density label              = velectrostatic                                                                  
 integral of density        =     0.3658637179E-12

%%%% CHARGES %%%%%%%%%%%%%%%%%%%%%%%%%%%%%%%%%%%%%%%%%%%%%%%%%%%%%%%%%%%%%%%%%%%
 total number of charges    =         34
 total charge               =     -1.0000000

%%%% DENSITY %%%%%%%%%%%%%%%%%%%%%%%%%%%%%%%%%%%%%%%%%%%%%%%%%%%%%%%%%%%%%%%%%%%
 density label              = vsoftcavity                                                                     
 integral of density        =      33.74494386    
