
     Program PWSCF v.6.4.1 starts on 24Apr2019 at 15:12:11 

     This program is part of the open-source Quantum ESPRESSO suite
     for quantum simulation of materials; please cite
         "P. Giannozzi et al., J. Phys.:Condens. Matter 21 395502 (2009);
         "P. Giannozzi et al., J. Phys.:Condens. Matter 29 465901 (2017);
          URL http://www.quantum-espresso.org", 
     in publications or presentations arising from this work. More details at
     http://www.quantum-espresso.org/quote

     Parallel version (MPI), running on     1 processors

     MPI processes distributed on     1 nodes
     Reading input from charged.in

     Current dimensions of program PWSCF are:
     Max number of different atomic species (ntypx) = 10
     Max number of k-points (npk) =  40000
     Max angular momentum in pseudopotentials (lmaxx) =  3
               file C.pbe-rrkjus.UPF: wavefunction(s)  2S 2P renormalized
               file H.pbe-rrkjus.UPF: wavefunction(s)  1S renormalized
               file N.pbe-rrkjus.UPF: wavefunction(s)  2S renormalized
               file O.pbe-rrkjus.UPF: wavefunction(s)  2S renormalized

     gamma-point specific algorithms are used

     Subspace diagonalization in iterative solution of the eigenvalue problem:
     a serial algorithm will be used

 
     G-vector sticks info
     --------------------
     sticks:   dense  smooth     PW     G-vecs:    dense   smooth      PW
     Sum        9549    3809    949               701475   177509   22119
 


     bravais-lattice index     =            1
     lattice parameter (alat)  =      20.0000  a.u.
     unit-cell volume          =    8000.0000 (a.u.)^3
     number of atoms/cell      =           10
     number of atomic types    =            4
     number of electrons       =        24.00
     number of Kohn-Sham states=           12
     kinetic-energy cutoff     =      30.0000  Ry
     charge density cutoff     =     300.0000  Ry
     convergence threshold     =      5.0E-06
     mixing beta               =       0.7000
     number of iterations used =            8  plain     mixing
     Exchange-correlation      = SLA PW PBE PBE ( 1  4  3  4 0 0)
 

     Environ Module
     ==============

     Plese cite
         O. Andreussi, I. Dabo and N. Marzari, J. Chem. Phys. 136, 064102 (2012)         
     in publications or presentations arising from this work.

     compensation onset threshold      =               0.1000E+03 
     static permittivity               =                   100.00 
     epsilon calculation mode          =                    ionic 

     Electrostatic Setup
     -------------------
     electrostatic problem to solve    = generalized              
     numerical solver adopted          = cg                       
     type of auxiliary density adopted = none                     
     type of core tool for poisson     = fft                      
     type of core tool for s(r) deriv  = analytic                 



     celldm(1)=  20.000000  celldm(2)=   0.000000  celldm(3)=   0.000000
     celldm(4)=   0.000000  celldm(5)=   0.000000  celldm(6)=   0.000000

     crystal axes: (cart. coord. in units of alat)
               a(1) = (   1.000000   0.000000   0.000000 )  
               a(2) = (   0.000000   1.000000   0.000000 )  
               a(3) = (   0.000000   0.000000   1.000000 )  

     reciprocal axes: (cart. coord. in units 2 pi/alat)
               b(1) = (  1.000000  0.000000  0.000000 )  
               b(2) = (  0.000000  1.000000  0.000000 )  
               b(3) = (  0.000000  0.000000  1.000000 )  


     PseudoPot. # 1 for C  read from file:
     /home/fnattino/Programs/quantumespresso/q-e-qe-6.4.1-develop/Environ/tests/../..//pseudo/C.pbe-rrkjus.UPF
     MD5 check sum: c9ac5a99bc85b198593446162950cd17
     Pseudo is Ultrasoft, Zval =  4.0
     Generated by new atomic code, or converted to UPF format
     Using radial grid of  627 points,  4 beta functions with: 
                l(1) =   0
                l(2) =   0
                l(3) =   1
                l(4) =   1
     Q(r) pseudized with 0 coefficients 


     PseudoPot. # 2 for H  read from file:
     /home/fnattino/Programs/quantumespresso/q-e-qe-6.4.1-develop/Environ/tests/../..//pseudo/H.pbe-rrkjus.UPF
     MD5 check sum: 2d52a7f45632fd764c17cc6affed14c8
     Pseudo is Ultrasoft, Zval =  1.0
     Generated by new atomic code, or converted to UPF format
     Using radial grid of 1061 points,  2 beta functions with: 
                l(1) =   0
                l(2) =   0
     Q(r) pseudized with 0 coefficients 


     PseudoPot. # 3 for N  read from file:
     /home/fnattino/Programs/quantumespresso/q-e-qe-6.4.1-develop/Environ/tests/../..//pseudo/N.pbe-rrkjus.UPF
     MD5 check sum: 28c76d763763edb36c62a6ca2be9aebd
     Pseudo is Ultrasoft, Zval =  5.0
     Generated by new atomic code, or converted to UPF format
     Using radial grid of 1257 points,  4 beta functions with: 
                l(1) =   0
                l(2) =   0
                l(3) =   1
                l(4) =   1
     Q(r) pseudized with 0 coefficients 


     PseudoPot. # 4 for O  read from file:
     /home/fnattino/Programs/quantumespresso/q-e-qe-6.4.1-develop/Environ/tests/../..//pseudo/O.pbe-rrkjus.UPF
     MD5 check sum: fadcf19ee70a498d3030e2e79cf929a4
     Pseudo is Ultrasoft, Zval =  6.0
     Generated by new atomic code, or converted to UPF format
     Using radial grid of 1269 points,  4 beta functions with: 
                l(1) =   0
                l(2) =   0
                l(3) =   1
                l(4) =   1
     Q(r) pseudized with 0 coefficients 


     atomic species   valence    mass     pseudopotential
        C              4.00    12.00000     C ( 1.00)
        H              1.00     1.00000     H ( 1.00)
        N              5.00    14.00000     N ( 1.00)
        O              6.00    16.00000     O ( 1.00)

     No symmetry found



   Cartesian axes

     site n.     atom                  positions (alat units)
         1           C   tau(   1) = (   0.0000000   0.0000000   0.0000000  )
         2           C   tau(   2) = (   0.0000000   0.0000000   0.1455089  )
         3           N   tau(   3) = (   0.1170969   0.0000000  -0.0545024  )
         4           H   tau(   4) = (   0.0476617  -0.0825466   0.1792090  )
         5           H   tau(   5) = (  -0.0953183  -0.0000030   0.1792090  )
         6           H   tau(   6) = (   0.0476566   0.0825496   0.1792090  )
         7           O   tau(   7) = (  -0.0984002  -0.0000019  -0.0641310  )
         8           H   tau(   8) = (   0.1263131  -0.0000015  -0.1475548  )
         9           H   tau(   9) = (   0.1944645   0.0000134  -0.0025716  )
        10           H   tau(  10) = (  -0.0770366  -0.0000045  -0.1522861  )

     number of k points=     1
                       cart. coord. in units 2pi/alat
        k(    1) = (   0.0000000   0.0000000   0.0000000), wk =   2.0000000

     Dense  grid:   350738 G-vectors     FFT dimensions: ( 120, 120, 120)

     Smooth grid:    88755 G-vectors     FFT dimensions: (  72,  72,  72)

     Estimated max dynamical RAM per process >     691.80 MB

     Initial potential from superposition of free atoms

     starting charge   24.42266, renormalised to   24.00000

     negative rho (up, down):  4.438E-04 0.000E+00
     Starting wfcs are   22 randomized atomic wfcs

     total cpu time spent up to now is       14.8 secs

     Self-consistent Calculation

     iteration #  1     ecut=    30.00 Ry     beta= 0.70
     Davidson diagonalization with overlap
     ethr =  1.00E-02,  avg # of iterations =  2.0

     negative rho (up, down):  1.277E-04 0.000E+00

     add environment contribution to local potential
     polarization accuracy = 3.5E-06, # of iterations =  18

     total cpu time spent up to now is       18.6 secs

     total energy              =     -80.23905785 Ry
     Harris-Foulkes estimate   =     -83.01882218 Ry
     estimated scf accuracy    <       3.73443027 Ry
     electrostatic embedding   =       0.00000000 Ry
     correction to one-el term =       0.00000000 Ry

     iteration #  2     ecut=    30.00 Ry     beta= 0.70
     Davidson diagonalization with overlap
     ethr =  1.00E-02,  avg # of iterations =  4.0

     negative rho (up, down):  7.190E-04 0.000E+00

     add environment contribution to local potential
     polarization accuracy = 7.3E-06, # of iterations =  17

     total cpu time spent up to now is       22.5 secs

     total energy              =     -80.98831364 Ry
     Harris-Foulkes estimate   =     -75.67875841 Ry
     estimated scf accuracy    <       1.58000655 Ry
     electrostatic embedding   =      -0.23053363 Ry
     correction to one-el term =      -5.91828810 Ry

     iteration #  3     ecut=    30.00 Ry     beta= 0.70
     Davidson diagonalization with overlap
     ethr =  6.58E-03,  avg # of iterations =  3.0

     negative rho (up, down):  2.647E-04 0.000E+00

     add environment contribution to local potential
     polarization accuracy = 3.5E-06, # of iterations =  18

     total cpu time spent up to now is       26.3 secs

     total energy              =     -81.34836710 Ry
     Harris-Foulkes estimate   =     -75.92850267 Ry
     estimated scf accuracy    <       0.18943055 Ry
     electrostatic embedding   =      -0.19282009 Ry
     correction to one-el term =      -5.33081354 Ry

     iteration #  4     ecut=    30.00 Ry     beta= 0.70
     Davidson diagonalization with overlap
     ethr =  7.89E-04,  avg # of iterations =  4.0

     negative rho (up, down):  1.171E-04 0.000E+00

     add environment contribution to local potential
     polarization accuracy = 5.7E-06, # of iterations =  17

     total cpu time spent up to now is       30.0 secs

     total energy              =     -81.40093256 Ry
     Harris-Foulkes estimate   =     -76.35874004 Ry
     estimated scf accuracy    <       0.02186613 Ry
     electrostatic embedding   =      -0.15374241 Ry
     correction to one-el term =      -4.89970763 Ry

     iteration #  5     ecut=    30.00 Ry     beta= 0.70
     Davidson diagonalization with overlap
     ethr =  9.11E-05,  avg # of iterations =  4.0

     negative rho (up, down):  8.435E-05 0.000E+00

     add environment contribution to local potential
     polarization accuracy = 5.4E-06, # of iterations =  17

     total cpu time spent up to now is       33.7 secs

     total energy              =     -81.40719965 Ry
     Harris-Foulkes estimate   =     -76.78350841 Ry
     estimated scf accuracy    <       0.00174027 Ry
     electrostatic embedding   =      -0.13814031 Ry
     correction to one-el term =      -4.48643817 Ry

     iteration #  6     ecut=    30.00 Ry     beta= 0.70
     Davidson diagonalization with overlap
     ethr =  7.25E-06,  avg # of iterations =  3.0

     negative rho (up, down):  1.155E-04 0.000E+00

     add environment contribution to local potential
     polarization accuracy = 5.4E-06, # of iterations =  17

     total cpu time spent up to now is       37.4 secs

     total energy              =     -81.40771701 Ry
     Harris-Foulkes estimate   =     -76.84180087 Ry
     estimated scf accuracy    <       0.00016451 Ry
     electrostatic embedding   =      -0.13644268 Ry
     correction to one-el term =      -4.42952006 Ry

     iteration #  7     ecut=    30.00 Ry     beta= 0.70
     Davidson diagonalization with overlap
     ethr =  6.85E-07,  avg # of iterations =  3.0

     negative rho (up, down):  2.194E-04 0.000E+00

     add environment contribution to local potential
     polarization accuracy = 5.9E-06, # of iterations =  17

     total cpu time spent up to now is       41.1 secs

     total energy              =     -81.40777746 Ry
     Harris-Foulkes estimate   =     -76.86707700 Ry
     estimated scf accuracy    <       0.00001668 Ry
     electrostatic embedding   =      -0.13594559 Ry
     correction to one-el term =      -4.40475819 Ry

     iteration #  8     ecut=    30.00 Ry     beta= 0.70
     Davidson diagonalization with overlap
     ethr =  6.95E-08,  avg # of iterations =  2.0

     negative rho (up, down):  2.705E-04 0.000E+00

     the potential shift due to the Gaussian-smeared nuclei is    -0.0668 ev

     total cpu time spent up to now is       42.7 secs

     End of self-consistent calculation

          k = 0.0000 0.0000 0.0000 ( 11060 PWs)   bands (ev):

   -28.9260 -22.9743 -18.4874 -15.9911 -14.5598 -13.2948 -11.5649 -10.8862
    -9.4249  -9.4243  -9.2475  -7.2656

     highest occupied level (ev):    -7.2656

!    total energy              =     -81.40778318 Ry
     Harris-Foulkes estimate   =     -76.87548883 Ry
     estimated scf accuracy    <       0.00000034 Ry

     The total energy is the sum of the following terms:

     one-electron contribution =    -240.99675439 Ry
     hartree contribution      =     122.71758398 Ry
     xc contribution           =     -22.90415842 Ry
     ewald contribution        =      64.30784006 Ry
     electrostatic embedding   =      -0.13567455 Ry
     correction to one-el term =      -4.39661986 Ry

     convergence has been achieved in   8 iterations

     Forces acting on atoms (cartesian axes, Ry/au):

     atom    1 type  1   force =     0.22878308   -0.00001786    0.10196022
     atom    2 type  1   force =    -0.03257244   -0.00002365   -0.08284755
     atom    3 type  3   force =    -0.14572745   -0.00003327    0.04589617
     atom    4 type  2   force =     0.02054850   -0.03150002    0.00897996
     atom    5 type  2   force =    -0.03458947    0.00001614    0.01220554
     atom    6 type  2   force =     0.02054767    0.03153732    0.00898359
     atom    7 type  4   force =    -0.10316487   -0.00004182   -0.00466076
     atom    8 type  2   force =     0.00873866    0.00002067   -0.05978752
     atom    9 type  2   force =     0.04731326    0.00002200    0.03961227
     atom   10 type  2   force =    -0.00987693    0.00002048   -0.07034190

     Total force =     0.348586     Total SCF correction =     0.000466

     Writing output data file pwscf.save/
 
     init_run     :     13.40s CPU     14.13s WALL (       1 calls)
     electrons    :     22.51s CPU     27.96s WALL (       1 calls)
     forces       :     17.57s CPU     17.95s WALL (       1 calls)

     Called by init_run:
     wfcinit      :      0.14s CPU      0.14s WALL (       1 calls)
     potinit      :      0.70s CPU      0.75s WALL (       1 calls)
     hinit0       :     12.19s CPU     12.60s WALL (       1 calls)

     Called by electrons:
     c_bands      :      1.83s CPU      1.84s WALL (       8 calls)
     sum_band     :      3.24s CPU      4.50s WALL (       8 calls)
     v_of_rho     :      3.94s CPU      4.30s WALL (       9 calls)
     newd         :      2.20s CPU      3.88s WALL (       9 calls)
     mix_rho      :      0.42s CPU      0.43s WALL (       8 calls)

     Called by c_bands:
     init_us_2    :      0.06s CPU      0.08s WALL (      17 calls)
     regterg      :      1.73s CPU      1.73s WALL (       8 calls)

     Called by sum_band:
     sum_band:bec :      0.00s CPU      0.00s WALL (       8 calls)
     addusdens    :      2.65s CPU      3.90s WALL (       8 calls)

     Called by *egterg:
     h_psi        :      1.68s CPU      1.70s WALL (      34 calls)
     s_psi        :      0.03s CPU      0.03s WALL (      34 calls)
     g_psi        :      0.02s CPU      0.01s WALL (      25 calls)
     rdiaghg      :      0.00s CPU      0.01s WALL (      33 calls)

     Called by h_psi:
     h_psi:pot    :      1.67s CPU      1.69s WALL (      34 calls)
     h_psi:calbec :      0.04s CPU      0.04s WALL (      34 calls)
     vloc_psi     :      1.61s CPU      1.63s WALL (      34 calls)
     add_vuspsi   :      0.02s CPU      0.03s WALL (      34 calls)

     General routines
     calbec       :      0.06s CPU      0.05s WALL (      46 calls)
     fft          :      7.14s CPU      7.08s WALL (     400 calls)
     ffts         :      0.04s CPU      0.05s WALL (      17 calls)
     fftw         :      1.45s CPU      1.46s WALL (     370 calls)
     interpolate  :      0.24s CPU      0.26s WALL (       9 calls)
 
     Parallel routines
 
     Environ routines
     calc_eelect  :      0.03s CPU      0.02s WALL (      16 calls)
     calc_velect  :     10.11s CPU     12.26s WALL (      14 calls)
     dielectric   :      0.11s CPU      0.12s WALL (       2 calls)
     calc_felect  :      0.08s CPU      0.08s WALL (       1 calls)
 
     PWSCF        :     54.12s CPU   1m 0.73s WALL

 
   This run was terminated on:  15:13:12  24Apr2019            

=------------------------------------------------------------------------------=
   JOB DONE.
=------------------------------------------------------------------------------=

%%%% IONS %%%%%%%%%%%%%%%%%%%%%%%%%%%%%%%%%%%%%%%%%%%%%%%%%%%%%%%%%%%%%%%%%%%%%%
 number of ions             =         10
 ionic center of charge     =      0.0095530    -0.0000002     0.0063981
 total ionic charge         =    -25.0000000
 ionic dipole               =      0.0000000     0.0000000     0.0000000
 ionic quadrupole (pc)      =    -79.0828058    -5.4513517  -105.8059629
 ionic quadrupole (gauss)   =    -82.2078058    -8.5763517  -108.9309629
 ion   1 type =  1 coordinates =      0.0000000     0.0000000     0.0000000
 ion   2 type =  1 coordinates =      0.0000000     0.0000000     2.9101782
 ion   3 type =  3 coordinates =      2.3419379     0.0000000    -1.0900479
 ion   4 type =  2 coordinates =      0.9532347    -1.6509323     3.5841800
 ion   5 type =  2 coordinates =     -1.9063663    -0.0000596     3.5841809
 ion   6 type =  2 coordinates =      0.9531315     1.6509919     3.5841800
 ion   7 type =  4 coordinates =     -1.9680045    -0.0000375    -1.2826193
 ion   8 type =  2 coordinates =      2.5262613    -0.0000303    -2.9510950
 ion   9 type =  2 coordinates =      3.8892907     0.0002681    -0.0514326
 ion  10 type =  2 coordinates =     -1.5407317    -0.0000890    -3.0457220

%%%% SYSTEM %%%%%%%%%%%%%%%%%%%%%%%%%%%%%%%%%%%%%%%%%%%%%%%%%%%%%%%%%%%%%%%%%%%%
 system is built from all present ionic types
 system defined dimension   =  0 
 system defined axis        =  3 
 system center              =      0.0095530    -0.0000002     0.0063981 
 system width               =      0.2021425 

%%%% BOUNDARY %%%%%%%%%%%%%%%%%%%%%%%%%%%%%%%%%%%%%%%%%%%%%%%%%%%%%%%%%%%%%%%%%%
 boundary label             = solvent              
 boundary mode              = ionic                
 boundary is built from soft-spheres centered on ionic positions
 solvent-dependent scaling  =      1.0000000 
 softness parameter         =      0.5000000 
 volume of the QM region    =    609.3920716 
 surface of the QM region   =    383.1651442 

%%%% DIELECTRIC %%%%%%%%%%%%%%%%%%%%%%%%%%%%%%%%%%%%%%%%%%%%%%%%%%%%%%%%%%%%%%%%%
 dielectric build on homogeneous background
 environment bulk permitt.  =    100.0000000 
 dielectric flags
 need gradient              =  F 
 need factor depend. sqrt   =  T 
 total dielectric charge    =      0.0000000

%%%% ELECTRONS %%%%%%%%%%%%%%%%%%%%%%%%%%%%%%%%%%%%%%%%%%%%%%%%%%%%%%%%%%%%%%%%%
 number of electrons        =         24
 total electronic charge    =     24.0000000

%%%% DENSITY %%%%%%%%%%%%%%%%%%%%%%%%%%%%%%%%%%%%%%%%%%%%%%%%%%%%%%%%%%%%%%%%%%%
 density label              = vreference                                                                      
 integral of density        =      0.000000000    

%%%% DENSITY %%%%%%%%%%%%%%%%%%%%%%%%%%%%%%%%%%%%%%%%%%%%%%%%%%%%%%%%%%%%%%%%%%%
 density label              = velectrostatic                                                                  
 integral of density        =      0.000000000    

%%%% CHARGES %%%%%%%%%%%%%%%%%%%%%%%%%%%%%%%%%%%%%%%%%%%%%%%%%%%%%%%%%%%%%%%%%%%
 total number of charges    =         34
 total charge               =     -1.0000000

%%%% ELECTRONS %%%%%%%%%%%%%%%%%%%%%%%%%%%%%%%%%%%%%%%%%%%%%%%%%%%%%%%%%%%%%%%%%
 number of electrons        =         24
 total electronic charge    =     24.0000000

%%%% DENSITY %%%%%%%%%%%%%%%%%%%%%%%%%%%%%%%%%%%%%%%%%%%%%%%%%%%%%%%%%%%%%%%%%%%
 density label              = vreference                                                                      
 integral of density        =    -0.2329659099E-12

%%%% COMPUTE ELECTROSTATIC POTENTIAL %%%%%%%%%%%%%%%%%%%%%%%%%%%%%%%%%%%%%%%%%%%
 Iteration #          1
  pAp =    95.4218001780820       rzold =    89.2010359080948       alpha = 
  0.934807724666925     
 delta_qm =   0.319336E-01 delta_en =   0.176214E+04 tol =   0.100000E-04
 Iteration #          2
  pAp =    606.163822928013       rzold =    55.8115070754136       alpha = 
  9.207330586939645E-002
 delta_qm =   0.435098E-02 delta_en =   0.327128E+02 tol =   0.100000E-04
 Iteration #          3
  pAp =    2.10451104780140       rzold =   0.393840955107179       alpha = 
  0.187141310338393     
 delta_qm =   0.195693E-02 delta_en =   0.661751E+01 tol =   0.100000E-04
 Iteration #          4
  pAp =   0.310128354604471       rzold =   4.673165981774608E-002  alpha = 
  0.150684899087497     
 delta_qm =   0.142397E-02 delta_en =   0.350386E+01 tol =   0.100000E-04
 Iteration #          5
  pAp =   3.266101311711647E-002  rzold =   8.215190375723229E-003  alpha = 
  0.251528951238134     
 delta_qm =   0.946607E-03 delta_en =   0.154840E+01 tol =   0.100000E-04
 Iteration #          6
  pAp =   8.332484744359388E-003  rzold =   2.907062244089185E-003  alpha = 
  0.348882996282363     
 delta_qm =   0.492899E-03 delta_en =   0.419817E+00 tol =   0.100000E-04
 Iteration #          7
  pAp =   5.112659698933029E-003  rzold =   1.147934353220406E-003  alpha = 
  0.224527823250190     
 delta_qm =   0.327525E-03 delta_en =   0.185367E+00 tol =   0.100000E-04
 Iteration #          8
  pAp =   1.869741415665205E-003  rzold =   4.737701423284045E-004  alpha = 
  0.253388055887851     
 delta_qm =   0.238001E-03 delta_en =   0.978817E-01 tol =   0.100000E-04
 Iteration #          9
  pAp =   2.757029416138406E-004  rzold =   1.621892545439268E-004  alpha = 
  0.588275386524874     
 delta_qm =   0.145822E-03 delta_en =   0.367444E-01 tol =   0.100000E-04
 Iteration #         10
  pAp =   3.387250425579177E-004  rzold =   1.331105458140659E-004  alpha = 
  0.392975213196130     
 delta_qm =   0.709418E-04 delta_en =   0.869656E-02 tol =   0.100000E-04
 Iteration #         11
  pAp =   9.087037689576743E-005  rzold =   3.259189452031941E-005  alpha = 
  0.358663578095465     
 delta_qm =   0.450482E-04 delta_en =   0.350670E-02 tol =   0.100000E-04
 Iteration #         12
  pAp =   1.690208010532636E-005  rzold =   5.748606594479977E-006  alpha = 
  0.340112374255546     
 delta_qm =   0.290665E-04 delta_en =   0.145993E-02 tol =   0.100000E-04
 Iteration #         13
  pAp =   4.503201015688402E-006  rzold =   1.822356164769252E-006  alpha = 
  0.404680172708362     
 delta_qm =   0.187945E-04 delta_en =   0.610386E-03 tol =   0.100000E-04
 Iteration #         14
  pAp =   3.060369651679958E-006  rzold =   1.056988894582557E-006  alpha = 
  0.345379485122764     
 delta_qm =   0.119453E-04 delta_en =   0.246570E-03 tol =   0.100000E-04
 Iteration #         15
  pAp =   1.231210518174542E-006  rzold =   4.225722268440390E-007  alpha = 
  0.343216875267251     
 delta_qm =   0.761691E-05 delta_en =   0.100254E-03 tol =   0.100000E-04
 Iteration #         16
  pAp =   5.964581865470586E-007  rzold =   1.744688120702681E-007  alpha = 
  0.292508034939182     
 delta_qm =   0.523295E-05 delta_en =   0.473191E-04 tol =   0.100000E-04
 Iteration #         17
  pAp =   2.234451276123003E-007  rzold =   8.007126391192833E-008  alpha = 
  0.358348668272866     
 delta_qm =   0.277311E-05 delta_en =   0.132886E-04 tol =   0.100000E-04
 Iteration #         18
  pAp =   5.840174953966904E-008  rzold =   2.497106057541063E-008  alpha = 
  0.427573844486443     
 delta_qm =   0.142054E-05 delta_en =   0.348697E-05 tol =   0.100000E-04
 Charges are converged, EXIT

%%%% DENSITY %%%%%%%%%%%%%%%%%%%%%%%%%%%%%%%%%%%%%%%%%%%%%%%%%%%%%%%%%%%%%%%%%%%
 density label              = velectrostatic                                                                  
 integral of density        =    -0.3122440578E-12

%%%% CHARGES %%%%%%%%%%%%%%%%%%%%%%%%%%%%%%%%%%%%%%%%%%%%%%%%%%%%%%%%%%%%%%%%%%%
 total number of charges    =         34
 total charge               =     -1.0000000

%%%% ELECTRONS %%%%%%%%%%%%%%%%%%%%%%%%%%%%%%%%%%%%%%%%%%%%%%%%%%%%%%%%%%%%%%%%%
 number of electrons        =         24
 total electronic charge    =     24.0000000

%%%% DENSITY %%%%%%%%%%%%%%%%%%%%%%%%%%%%%%%%%%%%%%%%%%%%%%%%%%%%%%%%%%%%%%%%%%%
 density label              = vreference                                                                      
 integral of density        =     0.8990339337E-12

%%%% COMPUTE ELECTROSTATIC POTENTIAL %%%%%%%%%%%%%%%%%%%%%%%%%%%%%%%%%%%%%%%%%%%
 Warning: bad guess with residual norm =   0.178951E+04, reset to no guess
 Iteration #          1
  pAp =    98.8691510043503       rzold =    93.2687776173078       alpha = 
  0.943355704684911     
 delta_qm =   0.306214E-01 delta_en =   0.162029E+04 tol =   0.100000E-04
 Iteration #          2
  pAp =    561.359407898963       rzold =    51.3736563463702       alpha = 
  9.151651441747422E-002
 delta_qm =   0.382283E-02 delta_en =   0.252530E+02 tol =   0.100000E-04
 Iteration #          3
  pAp =    1.96426533941721       rzold =   0.311174800920582       alpha = 
  0.158417905501966     
 delta_qm =   0.190904E-02 delta_en =   0.629760E+01 tol =   0.100000E-04
 Iteration #          4
  pAp =   0.262284160137371       rzold =   3.969731966454986E-002  alpha = 
  0.151352333452994     
 delta_qm =   0.145126E-02 delta_en =   0.363944E+01 tol =   0.100000E-04
 Iteration #          5
  pAp =   1.879184555666024E-002  rzold =   6.053194452507134E-003  alpha = 
  0.322118146099905     
 delta_qm =   0.895454E-03 delta_en =   0.138558E+01 tol =   0.100000E-04
 Iteration #          6
  pAp =   9.204212341568768E-003  rzold =   2.878143392415219E-003  alpha = 
  0.312698499948413     
 delta_qm =   0.471660E-03 delta_en =   0.384416E+00 tol =   0.100000E-04
 Iteration #          7
  pAp =   5.427208061751187E-003  rzold =   1.116178185237324E-003  alpha = 
  0.205663422617553     
 delta_qm =   0.341375E-03 delta_en =   0.201376E+00 tol =   0.100000E-04
 Iteration #          8
  pAp =   1.214261339170801E-003  rzold =   4.167993781531555E-004  alpha = 
  0.343253437054811     
 delta_qm =   0.238342E-03 delta_en =   0.981621E-01 tol =   0.100000E-04
 Iteration #          9
  pAp =   3.589739657721963E-004  rzold =   2.030830533685148E-004  alpha = 
  0.565731982629043     
 delta_qm =   0.136496E-03 delta_en =   0.321944E-01 tol =   0.100000E-04
 Iteration #         10
  pAp =   3.709227208895893E-004  rzold =   1.330109004359194E-004  alpha = 
  0.358594642347380     
 delta_qm =   0.645598E-04 delta_en =   0.720226E-02 tol =   0.100000E-04
 Iteration #         11
  pAp =   6.353247107493239E-005  rzold =   2.294575773107409E-005  alpha = 
  0.361165831311851     
 delta_qm =   0.442960E-04 delta_en =   0.339058E-02 tol =   0.100000E-04
 Iteration #         12
  pAp =   1.261843910547390E-005  rzold =   4.730250282782987E-006  alpha = 
  0.374868099235110     
 delta_qm =   0.279558E-04 delta_en =   0.135048E-02 tol =   0.100000E-04
 Iteration #         13
  pAp =   2.717040009182100E-006  rzold =   1.479706563434572E-006  alpha = 
  0.544602419704523     
 delta_qm =   0.153654E-04 delta_en =   0.407975E-03 tol =   0.100000E-04
 Iteration #         14
  pAp =   2.176199296409709E-006  rzold =   7.230738358381786E-007  alpha = 
  0.332264529738202     
 delta_qm =   0.105197E-04 delta_en =   0.191229E-03 tol =   0.100000E-04
 Iteration #         15
  pAp =   1.619734234461704E-006  rzold =   4.349426319910143E-007  alpha = 
  0.268527158799951     
 delta_qm =   0.694153E-05 delta_en =   0.832635E-04 tol =   0.100000E-04
 Iteration #         16
  pAp =   2.300113662428351E-007  rzold =   1.053573433260707E-007  alpha = 
  0.458052769508962     
 delta_qm =   0.362540E-05 delta_en =   0.227120E-04 tol =   0.100000E-04
 Iteration #         17
  pAp =   1.073041747757309E-007  rzold =   4.072430107731067E-008  alpha = 
  0.379522056457037     
 delta_qm =   0.205428E-05 delta_en =   0.729230E-05 tol =   0.100000E-04
 Charges are converged, EXIT

%%%% DENSITY %%%%%%%%%%%%%%%%%%%%%%%%%%%%%%%%%%%%%%%%%%%%%%%%%%%%%%%%%%%%%%%%%%%
 density label              = velectrostatic                                                                  
 integral of density        =    -0.4389575123E-12

%%%% CHARGES %%%%%%%%%%%%%%%%%%%%%%%%%%%%%%%%%%%%%%%%%%%%%%%%%%%%%%%%%%%%%%%%%%%
 total number of charges    =         34
 total charge               =     -1.0000000

%%%% ELECTRONS %%%%%%%%%%%%%%%%%%%%%%%%%%%%%%%%%%%%%%%%%%%%%%%%%%%%%%%%%%%%%%%%%
 number of electrons        =         24
 total electronic charge    =     24.0000000

%%%% DENSITY %%%%%%%%%%%%%%%%%%%%%%%%%%%%%%%%%%%%%%%%%%%%%%%%%%%%%%%%%%%%%%%%%%%
 density label              = vreference                                                                      
 integral of density        =     0.2579006967E-12

%%%% COMPUTE ELECTROSTATIC POTENTIAL %%%%%%%%%%%%%%%%%%%%%%%%%%%%%%%%%%%%%%%%%%%
 Warning: bad guess with residual norm =   0.141514E+04, reset to no guess
 Iteration #          1
  pAp =    98.2612995736588       rzold =    93.7827797381087       alpha = 
  0.954422342723109     
 delta_qm =   0.275058E-01 delta_en =   0.130735E+04 tol =   0.100000E-04
 Iteration #          2
  pAp =    465.580525832588       rzold =    42.0747638559485       alpha = 
  9.037054069370067E-002
 delta_qm =   0.358355E-02 delta_en =   0.221906E+02 tol =   0.100000E-04
 Iteration #          3
  pAp =    1.47715185773706       rzold =   0.250941598714484       alpha = 
  0.169882058774185     
 delta_qm =   0.180129E-02 delta_en =   0.560673E+01 tol =   0.100000E-04
 Iteration #          4
  pAp =   0.247742438123778       rzold =   3.678123516599026E-002  alpha = 
  0.148465621976375     
 delta_qm =   0.135733E-02 delta_en =   0.318358E+01 tol =   0.100000E-04
 Iteration #          5
  pAp =   1.798932695836086E-002  rzold =   5.525288663695749E-003  alpha = 
  0.307142600525573     
 delta_qm =   0.863695E-03 delta_en =   0.128903E+01 tol =   0.100000E-04
 Iteration #          6
  pAp =   6.346444836528129E-003  rzold =   2.330308644301005E-003  alpha = 
  0.367183313544062     
 delta_qm =   0.434726E-03 delta_en =   0.326569E+00 tol =   0.100000E-04
 Iteration #          7
  pAp =   1.728431964170136E-003  rzold =   6.378481106800181E-004  alpha = 
  0.369032813499411     
 delta_qm =   0.279617E-03 delta_en =   0.135105E+00 tol =   0.100000E-04
 Iteration #          8
  pAp =   7.241566028362672E-004  rzold =   2.618777332890405E-004  alpha = 
  0.361631354686759     
 delta_qm =   0.202432E-03 delta_en =   0.708114E-01 tol =   0.100000E-04
 Iteration #          9
  pAp =   9.301939271487502E-004  rzold =   2.732804876018133E-004  alpha = 
  0.293788724722681     
 delta_qm =   0.129145E-03 delta_en =   0.288202E-01 tol =   0.100000E-04
 Iteration #         10
  pAp =   4.008795092276843E-004  rzold =   1.306564203143804E-004  alpha = 
  0.325924416955351     
 delta_qm =   0.630333E-04 delta_en =   0.686568E-02 tol =   0.100000E-04
 Iteration #         11
  pAp =   7.393598264206183E-005  rzold =   2.449911184631926E-005  alpha = 
  0.331355734662027     
 delta_qm =   0.447442E-04 delta_en =   0.345953E-02 tol =   0.100000E-04
 Iteration #         12
  pAp =   1.580223542667100E-005  rzold =   5.309379161431717E-006  alpha = 
  0.335989119138837     
 delta_qm =   0.292638E-04 delta_en =   0.147981E-02 tol =   0.100000E-04
 Iteration #         13
  pAp =   4.125282315679951E-006  rzold =   1.741606915524740E-006  alpha = 
  0.422178843107294     
 delta_qm =   0.181291E-04 delta_en =   0.567935E-03 tol =   0.100000E-04
 Iteration #         14
  pAp =   2.782889516918864E-006  rzold =   1.036892526322931E-006  alpha = 
  0.372595649241206     
 delta_qm =   0.112023E-04 delta_en =   0.216851E-03 tol =   0.100000E-04
 Iteration #         15
  pAp =   8.703117568714646E-007  rzold =   3.554731762445759E-007  alpha = 
  0.408443495607144     
 delta_qm =   0.658108E-05 delta_en =   0.748407E-04 tol =   0.100000E-04
 Iteration #         16
  pAp =   2.886197156342793E-007  rzold =   1.091708353536918E-007  alpha = 
  0.378251482625762     
 delta_qm =   0.405466E-05 delta_en =   0.284088E-04 tol =   0.100000E-04
 Iteration #         17
  pAp =   2.256524094505625E-007  rzold =   5.913628218530244E-008  alpha = 
  0.262068029006614     
 delta_qm =   0.246902E-05 delta_en =   0.105340E-04 tol =   0.100000E-04
 Iteration #         18
  pAp =   6.289649453541693E-008  rzold =   2.236641029176131E-008  alpha = 
  0.355606627316357     
 delta_qm =   0.141665E-05 delta_en =   0.346793E-05 tol =   0.100000E-04
 Charges are converged, EXIT

%%%% DENSITY %%%%%%%%%%%%%%%%%%%%%%%%%%%%%%%%%%%%%%%%%%%%%%%%%%%%%%%%%%%%%%%%%%%
 density label              = velectrostatic                                                                  
 integral of density        =     0.2688220017E-12

%%%% CHARGES %%%%%%%%%%%%%%%%%%%%%%%%%%%%%%%%%%%%%%%%%%%%%%%%%%%%%%%%%%%%%%%%%%%
 total number of charges    =         34
 total charge               =     -1.0000000

%%%% ELECTRONS %%%%%%%%%%%%%%%%%%%%%%%%%%%%%%%%%%%%%%%%%%%%%%%%%%%%%%%%%%%%%%%%%
 number of electrons        =         24
 total electronic charge    =     24.0000000

%%%% DENSITY %%%%%%%%%%%%%%%%%%%%%%%%%%%%%%%%%%%%%%%%%%%%%%%%%%%%%%%%%%%%%%%%%%%
 density label              = vreference                                                                      
 integral of density        =     0.1278384805E-11

%%%% COMPUTE ELECTROSTATIC POTENTIAL %%%%%%%%%%%%%%%%%%%%%%%%%%%%%%%%%%%%%%%%%%%
 Warning: bad guess with residual norm =   0.122574E+04, reset to no guess
 Iteration #          1
  pAp =    97.4582454919302       rzold =    93.5665304960711       alpha = 
  0.960067873413734     
 delta_qm =   0.257287E-01 delta_en =   0.114388E+04 tol =   0.100000E-04
 Iteration #          2
  pAp =    406.202770182857       rzold =    36.6587316581248       alpha = 
  9.024736990745397E-002
 delta_qm =   0.369378E-02 delta_en =   0.235768E+02 tol =   0.100000E-04
 Iteration #          3
  pAp =    1.65346735108637       rzold =   0.278150667556397       alpha = 
  0.168222654879545     
 delta_qm =   0.177211E-02 delta_en =   0.542655E+01 tol =   0.100000E-04
 Iteration #          4
  pAp =   0.274243455752716       rzold =   4.029860236412491E-002  alpha = 
  0.146944627187246     
 delta_qm =   0.131777E-02 delta_en =   0.300073E+01 tol =   0.100000E-04
 Iteration #          5
  pAp =   1.883341523969907E-002  rzold =   5.555830053977842E-003  alpha = 
  0.294998542923148     
 delta_qm =   0.860769E-03 delta_en =   0.128031E+01 tol =   0.100000E-04
 Iteration #          6
  pAp =   5.938239919897201E-003  rzold =   2.202583929551361E-003  alpha = 
  0.370915281171309     
 delta_qm =   0.448351E-03 delta_en =   0.347359E+00 tol =   0.100000E-04
 Iteration #          7
  pAp =   2.225593580812993E-003  rzold =   7.165603590730793E-004  alpha = 
  0.321963706783934     
 delta_qm =   0.297109E-03 delta_en =   0.152537E+00 tol =   0.100000E-04
 Iteration #          8
  pAp =   1.607090144533465E-003  rzold =   3.836678702120096E-004  alpha = 
  0.238734505041338     
 delta_qm =   0.224486E-03 delta_en =   0.870806E-01 tol =   0.100000E-04
 Iteration #          9
  pAp =   4.649349500163151E-004  rzold =   2.167041024567617E-004  alpha = 
  0.466095531104206     
 delta_qm =   0.131990E-03 delta_en =   0.301039E-01 tol =   0.100000E-04
 Iteration #         10
  pAp =   3.209676772029670E-004  rzold =   1.204200030001205E-004  alpha = 
  0.375177974459938     
 delta_qm =   0.620670E-04 delta_en =   0.665679E-02 tol =   0.100000E-04
 Iteration #         11
  pAp =   7.433433234910532E-005  rzold =   2.450299973093563E-005  alpha = 
  0.329632337529571     
 delta_qm =   0.442056E-04 delta_en =   0.337674E-02 tol =   0.100000E-04
 Iteration #         12
  pAp =   1.657581216002689E-005  rzold =   5.436338002429254E-006  alpha = 
  0.327968123066643     
 delta_qm =   0.289832E-04 delta_en =   0.145157E-02 tol =   0.100000E-04
 Iteration #         13
  pAp =   3.928221031162075E-006  rzold =   1.679728018692663E-006  alpha = 
  0.427605271029200     
 delta_qm =   0.179633E-04 delta_en =   0.557590E-03 tol =   0.100000E-04
 Iteration #         14
  pAp =   2.670819569545981E-006  rzold =   1.001107916217421E-006  alpha = 
  0.374831728669564     
 delta_qm =   0.111352E-04 delta_en =   0.214260E-03 tol =   0.100000E-04
 Iteration #         15
  pAp =   8.669727965088394E-007  rzold =   3.579490423749898E-007  alpha = 
  0.412872288284469     
 delta_qm =   0.639692E-05 delta_en =   0.707108E-04 tol =   0.100000E-04
 Iteration #         16
  pAp =   2.157575570341074E-007  rzold =   9.766303258816140E-008  alpha = 
  0.452651735265628     
 delta_qm =   0.357096E-05 delta_en =   0.220350E-04 tol =   0.100000E-04
 Iteration #         17
  pAp =   7.196090022721950E-008  rzold =   3.233886224476956E-008  alpha = 
  0.449394909494715     
 delta_qm =   0.181085E-05 delta_en =   0.566643E-05 tol =   0.100000E-04
 Charges are converged, EXIT

%%%% DENSITY %%%%%%%%%%%%%%%%%%%%%%%%%%%%%%%%%%%%%%%%%%%%%%%%%%%%%%%%%%%%%%%%%%%
 density label              = velectrostatic                                                                  
 integral of density        =    -0.2171760714E-12

%%%% CHARGES %%%%%%%%%%%%%%%%%%%%%%%%%%%%%%%%%%%%%%%%%%%%%%%%%%%%%%%%%%%%%%%%%%%
 total number of charges    =         34
 total charge               =     -1.0000000

%%%% ELECTRONS %%%%%%%%%%%%%%%%%%%%%%%%%%%%%%%%%%%%%%%%%%%%%%%%%%%%%%%%%%%%%%%%%
 number of electrons        =         24
 total electronic charge    =     24.0000000

%%%% DENSITY %%%%%%%%%%%%%%%%%%%%%%%%%%%%%%%%%%%%%%%%%%%%%%%%%%%%%%%%%%%%%%%%%%%
 density label              = vreference                                                                      
 integral of density        =    -0.6242249516E-12

%%%% COMPUTE ELECTROSTATIC POTENTIAL %%%%%%%%%%%%%%%%%%%%%%%%%%%%%%%%%%%%%%%%%%%
 Warning: bad guess with residual norm =   0.120601E+04, reset to no guess
 Iteration #          1
  pAp =    97.4620073991458       rzold =    93.6280658303797       alpha = 
  0.960662193699083     
 delta_qm =   0.255346E-01 delta_en =   0.112669E+04 tol =   0.100000E-04
 Iteration #          2
  pAp =    400.082613694267       rzold =    36.1053082232732       alpha = 
  9.024463195209974E-002
 delta_qm =   0.372567E-02 delta_en =   0.239857E+02 tol =   0.100000E-04
 Iteration #          3
  pAp =    1.68888629699383       rzold =   0.284734930364528       alpha = 
  0.168593309609622     
 delta_qm =   0.177081E-02 delta_en =   0.541859E+01 tol =   0.100000E-04
 Iteration #          4
  pAp =   0.276372332004870       rzold =   4.047870094638575E-002  alpha = 
  0.146464375260518     
 delta_qm =   0.131931E-02 delta_en =   0.300774E+01 tol =   0.100000E-04
 Iteration #          5
  pAp =   1.932098808668760E-002  rzold =   5.631098569285028E-003  alpha = 
  0.291449823581483     
 delta_qm =   0.865165E-03 delta_en =   0.129343E+01 tol =   0.100000E-04
 Iteration #          6
  pAp =   5.821130580777749E-003  rzold =   2.197503799562826E-003  alpha = 
  0.377504639188015     
 delta_qm =   0.446677E-03 delta_en =   0.344772E+00 tol =   0.100000E-04
 Iteration #          7
  pAp =   2.031793960041764E-003  rzold =   6.945896752625098E-004  alpha = 
  0.341860291408796     
 delta_qm =   0.290546E-03 delta_en =   0.145872E+00 tol =   0.100000E-04
 Iteration #          8
  pAp =   1.341251779888040E-003  rzold =   3.404856308593989E-004  alpha = 
  0.253856610641606     
 delta_qm =   0.221102E-03 delta_en =   0.844748E-01 tol =   0.100000E-04
 Iteration #          9
  pAp =   5.685826634215737E-004  rzold =   2.341781023833275E-004  alpha = 
  0.411862896019566     
 delta_qm =   0.133252E-03 delta_en =   0.306824E-01 tol =   0.100000E-04
 Iteration #         10
  pAp =   3.364079559703609E-004  rzold =   1.240041034061071E-004  alpha = 
  0.368612279244170     
 delta_qm =   0.624431E-04 delta_en =   0.673771E-02 tol =   0.100000E-04
 Iteration #         11
  pAp =   7.644561650390556E-005  rzold =   2.514785741735952E-005  alpha = 
  0.328964021319322     
 delta_qm =   0.443303E-04 delta_en =   0.339582E-02 tol =   0.100000E-04
 Iteration #         12
  pAp =   1.666167470945934E-005  rzold =   5.494412479077848E-006  alpha = 
  0.329763518667094     
 delta_qm =   0.290798E-04 delta_en =   0.146126E-02 tol =   0.100000E-04
 Iteration #         13
  pAp =   4.050236411092954E-006  rzold =   1.704813856193189E-006  alpha = 
  0.420917122645971     
 delta_qm =   0.181475E-04 delta_en =   0.569085E-03 tol =   0.100000E-04
 Iteration #         14
  pAp =   2.671543171112404E-006  rzold =   1.012350333675499E-006  alpha = 
  0.378938414554599     
 delta_qm =   0.111585E-04 delta_en =   0.215158E-03 tol =   0.100000E-04
 Iteration #         15
  pAp =   8.594598735320231E-007  rzold =   3.581292548410801E-007  alpha = 
  0.416691070601490     
 delta_qm =   0.642003E-05 delta_en =   0.712227E-04 tol =   0.100000E-04
 Iteration #         16
  pAp =   2.142562263627165E-007  rzold =   9.760293465794996E-008  alpha = 
  0.455543049156093     
 delta_qm =   0.356736E-05 delta_en =   0.219906E-04 tol =   0.100000E-04
 Iteration #         17
  pAp =   6.804757766846685E-008  rzold =   3.183627632696933E-008  alpha = 
  0.467853190631975     
 delta_qm =   0.176200E-05 delta_en =   0.536484E-05 tol =   0.100000E-04
 Charges are converged, EXIT

%%%% DENSITY %%%%%%%%%%%%%%%%%%%%%%%%%%%%%%%%%%%%%%%%%%%%%%%%%%%%%%%%%%%%%%%%%%%
 density label              = velectrostatic                                                                  
 integral of density        =    -0.6790288496E-12

%%%% CHARGES %%%%%%%%%%%%%%%%%%%%%%%%%%%%%%%%%%%%%%%%%%%%%%%%%%%%%%%%%%%%%%%%%%%
 total number of charges    =         34
 total charge               =     -1.0000000

%%%% ELECTRONS %%%%%%%%%%%%%%%%%%%%%%%%%%%%%%%%%%%%%%%%%%%%%%%%%%%%%%%%%%%%%%%%%
 number of electrons        =         24
 total electronic charge    =     24.0000000

%%%% DENSITY %%%%%%%%%%%%%%%%%%%%%%%%%%%%%%%%%%%%%%%%%%%%%%%%%%%%%%%%%%%%%%%%%%%
 density label              = vreference                                                                      
 integral of density        =    -0.5978427629E-12

%%%% COMPUTE ELECTROSTATIC POTENTIAL %%%%%%%%%%%%%%%%%%%%%%%%%%%%%%%%%%%%%%%%%%%
 Warning: bad guess with residual norm =   0.119886E+04, reset to no guess
 Iteration #          1
  pAp =    97.4595859137279       rzold =    93.6461878622366       alpha = 
  0.960872006424622     
 delta_qm =   0.254636E-01 delta_en =   0.112043E+04 tol =   0.100000E-04
 Iteration #          2
  pAp =    397.775014770125       rzold =    35.8970267331392       alpha = 
  9.024454880325791E-002
 delta_qm =   0.375446E-02 delta_en =   0.243578E+02 tol =   0.100000E-04
 Iteration #          3
  pAp =    1.70864787773867       rzold =   0.289467949811366       alpha = 
  0.169413460539608     
 delta_qm =   0.177307E-02 delta_en =   0.543246E+01 tol =   0.100000E-04
 Iteration #          4
  pAp =   0.279506302849062       rzold =   4.083357270100144E-002  alpha = 
  0.146091777841061     
 delta_qm =   0.132057E-02 delta_en =   0.301346E+01 tol =   0.100000E-04
 Iteration #          5
  pAp =   1.969529878007730E-002  rzold =   5.694415692090760E-003  alpha = 
  0.289125631231902     
 delta_qm =   0.868571E-03 delta_en =   0.130363E+01 tol =   0.100000E-04
 Iteration #          6
  pAp =   5.831495471106598E-003  rzold =   2.205534387136974E-003  alpha = 
  0.378210769101128     
 delta_qm =   0.449292E-03 delta_en =   0.348819E+00 tol =   0.100000E-04
 Iteration #          7
  pAp =   2.051049338929413E-003  rzold =   7.018203445393760E-004  alpha = 
  0.342176236923538     
 delta_qm =   0.291566E-03 delta_en =   0.146899E+00 tol =   0.100000E-04
 Iteration #          8
  pAp =   1.360633120204935E-003  rzold =   3.438595553903285E-004  alpha = 
  0.252720259623356     
 delta_qm =   0.221921E-03 delta_en =   0.851025E-01 tol =   0.100000E-04
 Iteration #          9
  pAp =   5.681203103316074E-004  rzold =   2.345309837861444E-004  alpha = 
  0.412819220719728     
 delta_qm =   0.133893E-03 delta_en =   0.309785E-01 tol =   0.100000E-04
 Iteration #         10
  pAp =   3.365849037263528E-004  rzold =   1.246831419418562E-004  alpha = 
  0.370435930315000     
 delta_qm =   0.626790E-04 delta_en =   0.678872E-02 tol =   0.100000E-04
 Iteration #         11
  pAp =   7.764070139323553E-005  rzold =   2.548622706220663E-005  alpha = 
  0.328258588663743     
 delta_qm =   0.444760E-04 delta_en =   0.341818E-02 tol =   0.100000E-04
 Iteration #         12
  pAp =   1.695135171211305E-005  rzold =   5.567492275259414E-006  alpha = 
  0.328439428891149     
 delta_qm =   0.291968E-04 delta_en =   0.147304E-02 tol =   0.100000E-04
 Iteration #         13
  pAp =   4.092540877050738E-006  rzold =   1.719662693549597E-006  alpha = 
  0.420194384176527     
 delta_qm =   0.182358E-04 delta_en =   0.574634E-03 tol =   0.100000E-04
 Iteration #         14
  pAp =   2.671312963911084E-006  rzold =   1.016526314784876E-006  alpha = 
  0.380534339674141     
 delta_qm =   0.112121E-04 delta_en =   0.217230E-03 tol =   0.100000E-04
 Iteration #         15
  pAp =   8.677706604817322E-007  rzold =   3.616698986820401E-007  alpha = 
  0.416780510280520     
 delta_qm =   0.643783E-05 delta_en =   0.716182E-04 tol =   0.100000E-04
 Iteration #         16
  pAp =   2.168747542355373E-007  rzold =   9.862335479724370E-008  alpha = 
  0.454747972602351     
 delta_qm =   0.358709E-05 delta_en =   0.222345E-04 tol =   0.100000E-04
 Iteration #         17
  pAp =   6.782988426291501E-008  rzold =   3.198317297478966E-008  alpha = 
  0.471520382532570     
 delta_qm =   0.176269E-05 delta_en =   0.536902E-05 tol =   0.100000E-04
 Charges are converged, EXIT

%%%% DENSITY %%%%%%%%%%%%%%%%%%%%%%%%%%%%%%%%%%%%%%%%%%%%%%%%%%%%%%%%%%%%%%%%%%%
 density label              = velectrostatic                                                                  
 integral of density        =     0.1115815259E-12

%%%% CHARGES %%%%%%%%%%%%%%%%%%%%%%%%%%%%%%%%%%%%%%%%%%%%%%%%%%%%%%%%%%%%%%%%%%%
 total number of charges    =         34
 total charge               =     -1.0000000

%%%% ELECTRONS %%%%%%%%%%%%%%%%%%%%%%%%%%%%%%%%%%%%%%%%%%%%%%%%%%%%%%%%%%%%%%%%%
 number of electrons        =         24
 total electronic charge    =     24.0000000

%%%% DENSITY %%%%%%%%%%%%%%%%%%%%%%%%%%%%%%%%%%%%%%%%%%%%%%%%%%%%%%%%%%%%%%%%%%%
 density label              = vreference                                                                      
 integral of density        =    -0.5411967171E-12

%%%% COMPUTE ELECTROSTATIC POTENTIAL %%%%%%%%%%%%%%%%%%%%%%%%%%%%%%%%%%%%%%%%%%%
 Warning: bad guess with residual norm =   0.119582E+04, reset to no guess
 Iteration #          1
  pAp =    97.4718496221536       rzold =    93.6673745074871       alpha = 
  0.960968473160052     
 delta_qm =   0.254336E-01 delta_en =   0.111779E+04 tol =   0.100000E-04
 Iteration #          2
  pAp =    396.828894960580       rzold =    35.8116945764424       alpha = 
  9.024467479869339E-002
 delta_qm =   0.375923E-02 delta_en =   0.244198E+02 tol =   0.100000E-04
 Iteration #          3
  pAp =    1.71210957486813       rzold =   0.290154999794086       alpha = 
  0.169472213725827     
 delta_qm =   0.177409E-02 delta_en =   0.543871E+01 tol =   0.100000E-04
 Iteration #          4
  pAp =   0.280875218627496       rzold =   4.102062666163957E-002  alpha = 
  0.146045731133163     
 delta_qm =   0.132040E-02 delta_en =   0.301270E+01 tol =   0.100000E-04
 Iteration #          5
  pAp =   1.973739969407838E-002  rzold =   5.702463673268534E-003  alpha = 
  0.288916663879457     
 delta_qm =   0.868915E-03 delta_en =   0.130466E+01 tol =   0.100000E-04
 Iteration #          6
  pAp =   5.824438171156312E-003  rzold =   2.204449253316809E-003  alpha = 
  0.378482728897981     
 delta_qm =   0.449787E-03 delta_en =   0.349589E+00 tol =   0.100000E-04
 Iteration #          7
  pAp =   2.036839522278565E-003  rzold =   7.014078021879512E-004  alpha = 
  0.344360856373851     
 delta_qm =   0.291032E-03 delta_en =   0.146361E+00 tol =   0.100000E-04
 Iteration #          8
  pAp =   1.332420135727702E-003  rzold =   3.396920819136327E-004  alpha = 
  0.254943671898286     
 delta_qm =   0.221540E-03 delta_en =   0.848099E-01 tol =   0.100000E-04
 Iteration #          9
  pAp =   5.810773167734426E-004  rzold =   2.365744883298760E-004  alpha = 
  0.407130826657470     
 delta_qm =   0.133960E-03 delta_en =   0.310096E-01 tol =   0.100000E-04
 Iteration #         10
  pAp =   3.374899577182949E-004  rzold =   1.249076970950433E-004  alpha = 
  0.370107892808190     
 delta_qm =   0.627196E-04 delta_en =   0.679752E-02 tol =   0.100000E-04
 Iteration #         11
  pAp =   7.796925877123483E-005  rzold =   2.557309578875242E-005  alpha = 
  0.327989469077614     
 delta_qm =   0.445121E-04 delta_en =   0.342373E-02 tol =   0.100000E-04
 Iteration #         12
  pAp =   1.705264552681391E-005  rzold =   5.590931094877209E-006  alpha = 
  0.327862975048999     
 delta_qm =   0.292335E-04 delta_en =   0.147675E-02 tol =   0.100000E-04
 Iteration #         13
  pAp =   4.105250037164602E-006  rzold =   1.723906129373870E-006  alpha = 
  0.419927194145897     
 delta_qm =   0.182610E-04 delta_en =   0.576229E-03 tol =   0.100000E-04
 Iteration #         14
  pAp =   2.668273896981602E-006  rzold =   1.017299688463895E-006  alpha = 
  0.381257594887347     
 delta_qm =   0.112265E-04 delta_en =   0.217787E-03 tol =   0.100000E-04
 Iteration #         15
  pAp =   8.703079803603442E-007  rzold =   3.626872210410086E-007  alpha = 
  0.416734339136866     
 delta_qm =   0.644213E-05 delta_en =   0.717137E-04 tol =   0.100000E-04
 Iteration #         16
  pAp =   2.190295168380362E-007  rzold =   9.907652116725097E-008  alpha = 
  0.452343239384097     
 delta_qm =   0.360478E-05 delta_en =   0.224543E-04 tol =   0.100000E-04
 Iteration #         17
  pAp =   7.414674102458113E-008  rzold =   3.289872295156714E-008  alpha = 
  0.443697490907396     
 delta_qm =   0.184186E-05 delta_en =   0.586212E-05 tol =   0.100000E-04
 Charges are converged, EXIT

%%%% DENSITY %%%%%%%%%%%%%%%%%%%%%%%%%%%%%%%%%%%%%%%%%%%%%%%%%%%%%%%%%%%%%%%%%%%
 density label              = velectrostatic                                                                  
 integral of density        =     0.1502995259E-11

%%%% CHARGES %%%%%%%%%%%%%%%%%%%%%%%%%%%%%%%%%%%%%%%%%%%%%%%%%%%%%%%%%%%%%%%%%%%
 total number of charges    =         34
 total charge               =     -1.0000000

%%%% ELECTRONS %%%%%%%%%%%%%%%%%%%%%%%%%%%%%%%%%%%%%%%%%%%%%%%%%%%%%%%%%%%%%%%%%
 number of electrons        =         24
 total electronic charge    =     24.0000000

%%%% DENSITY %%%%%%%%%%%%%%%%%%%%%%%%%%%%%%%%%%%%%%%%%%%%%%%%%%%%%%%%%%%%%%%%%%%
 density label              = vreference                                                                      
 integral of density        =    -0.5411967171E-12

%%%% DENSITY %%%%%%%%%%%%%%%%%%%%%%%%%%%%%%%%%%%%%%%%%%%%%%%%%%%%%%%%%%%%%%%%%%%
 density label              = velectrostatic                                                                  
 integral of density        =     0.1502995259E-11

%%%% CHARGES %%%%%%%%%%%%%%%%%%%%%%%%%%%%%%%%%%%%%%%%%%%%%%%%%%%%%%%%%%%%%%%%%%%
 total number of charges    =         34
 total charge               =     -1.0000000
