
     Program PWSCF v.6.7+ starts on 20Apr2021 at 12:32: 6 

     This program is part of the open-source Quantum ESPRESSO suite
     for quantum simulation of materials; please cite
         "P. Giannozzi et al., J. Phys.:Condens. Matter 21 395502 (2009);
         "P. Giannozzi et al., J. Phys.:Condens. Matter 29 465901 (2017);
          URL http://www.quantum-espresso.org", 
     in publications or presentations arising from this work. More details at
     http://www.quantum-espresso.org/quote

     Parallel version (MPI), running on     1 processors

     MPI processes distributed on     1 nodes
     Reading input from charged.in

     Current dimensions of program PWSCF are:
     Max number of different atomic species (ntypx) = 10
     Max number of k-points (npk) =  40000
     Max angular momentum in pseudopotentials (lmaxx) =  3
     file C.pbe-rrkjus.UPF: wavefunction(s)  2S 2P renormalized
     file H.pbe-rrkjus.UPF: wavefunction(s)  1S renormalized
     file N.pbe-rrkjus.UPF: wavefunction(s)  2S renormalized
     file O.pbe-rrkjus.UPF: wavefunction(s)  2S renormalized

     gamma-point specific algorithms are used

     Subspace diagonalization in iterative solution of the eigenvalue problem:
     a serial algorithm will be used


     G-vector sticks info
     --------------------
     sticks:   dense  smooth     PW     G-vecs:    dense   smooth      PW
     Sum        9549    3809    949               701475   177509   22119



     bravais-lattice index     =            1
     lattice parameter (alat)  =      20.0000  a.u.
     unit-cell volume          =    8000.0000 (a.u.)^3
     number of atoms/cell      =           10
     number of atomic types    =            4
     number of electrons       =        24.00
     number of Kohn-Sham states=           12
     kinetic-energy cutoff     =      30.0000  Ry
     charge density cutoff     =     300.0000  Ry
     scf convergence threshold =      5.0E-06
     mixing beta               =       0.7000
     number of iterations used =            8  plain     mixing
     Exchange-correlation= SLA  PW   PBE  PBE
                           (   1   4   3   4   0   0   0)


     Environ Module
     ==============

     Plese cite
         O. Andreussi, I. Dabo and N. Marzari, J. Chem. Phys. 136, 064102 (2012)         
     in publications or presentations arising from this work.

     compensation onset threshold      =               0.1000E+03 
     static permittivity               =                   100.00 
     epsilon calculation mode          =               electronic 

     Electrostatic Setup
     -------------------
     electrostatic problem to solve    = generalized              
     numerical solver adopted          = sd                       
     type of auxiliary density adopted = none                     
     type of core tool for poisson     = fft                      



     celldm(1)=  20.000000  celldm(2)=   0.000000  celldm(3)=   0.000000
     celldm(4)=   0.000000  celldm(5)=   0.000000  celldm(6)=   0.000000

     crystal axes: (cart. coord. in units of alat)
               a(1) = (   1.000000   0.000000   0.000000 )  
               a(2) = (   0.000000   1.000000   0.000000 )  
               a(3) = (   0.000000   0.000000   1.000000 )  

     reciprocal axes: (cart. coord. in units 2 pi/alat)
               b(1) = (  1.000000  0.000000  0.000000 )  
               b(2) = (  0.000000  1.000000  0.000000 )  
               b(3) = (  0.000000  0.000000  1.000000 )  


     PseudoPot. # 1 for C  read from file:
     /Users/gabrielmedrano/Desktop/q-e/Environ/tests/../..//pseudo/C.pbe-rrkjus.UPF
     MD5 check sum: c9ac5a99bc85b198593446162950cd17
     Pseudo is Ultrasoft, Zval =  4.0
     Generated by new atomic code, or converted to UPF format
     Using radial grid of  627 points,  4 beta functions with: 
                l(1) =   0
                l(2) =   0
                l(3) =   1
                l(4) =   1
     Q(r) pseudized with 0 coefficients 


     PseudoPot. # 2 for H  read from file:
     /Users/gabrielmedrano/Desktop/q-e/Environ/tests/../..//pseudo/H.pbe-rrkjus.UPF
     MD5 check sum: 2d52a7f45632fd764c17cc6affed14c8
     Pseudo is Ultrasoft, Zval =  1.0
     Generated by new atomic code, or converted to UPF format
     Using radial grid of 1061 points,  2 beta functions with: 
                l(1) =   0
                l(2) =   0
     Q(r) pseudized with 0 coefficients 


     PseudoPot. # 3 for N  read from file:
     /Users/gabrielmedrano/Desktop/q-e/Environ/tests/../..//pseudo/N.pbe-rrkjus.UPF
     MD5 check sum: 28c76d763763edb36c62a6ca2be9aebd
     Pseudo is Ultrasoft, Zval =  5.0
     Generated by new atomic code, or converted to UPF format
     Using radial grid of 1257 points,  4 beta functions with: 
                l(1) =   0
                l(2) =   0
                l(3) =   1
                l(4) =   1
     Q(r) pseudized with 0 coefficients 


     PseudoPot. # 4 for O  read from file:
     /Users/gabrielmedrano/Desktop/q-e/Environ/tests/../..//pseudo/O.pbe-rrkjus.UPF
     MD5 check sum: fadcf19ee70a498d3030e2e79cf929a4
     Pseudo is Ultrasoft, Zval =  6.0
     Generated by new atomic code, or converted to UPF format
     Using radial grid of 1269 points,  4 beta functions with: 
                l(1) =   0
                l(2) =   0
                l(3) =   1
                l(4) =   1
     Q(r) pseudized with 0 coefficients 


     atomic species   valence    mass     pseudopotential
        C              4.00    12.00000     C ( 1.00)
        H              1.00     1.00000     H ( 1.00)
        N              5.00    14.00000     N ( 1.00)
        O              6.00    16.00000     O ( 1.00)

     No symmetry found



   Cartesian axes

     site n.     atom                  positions (alat units)
         1           C   tau(   1) = (   0.0000000   0.0000000   0.0000000  )
         2           C   tau(   2) = (   0.0000000   0.0000000   0.1455089  )
         3           N   tau(   3) = (   0.1170969   0.0000000  -0.0545024  )
         4           H   tau(   4) = (   0.0476617  -0.0825466   0.1792090  )
         5           H   tau(   5) = (  -0.0953183  -0.0000030   0.1792090  )
         6           H   tau(   6) = (   0.0476566   0.0825496   0.1792090  )
         7           O   tau(   7) = (  -0.0984002  -0.0000019  -0.0641310  )
         8           H   tau(   8) = (   0.1263131  -0.0000015  -0.1475548  )
         9           H   tau(   9) = (   0.1944645   0.0000134  -0.0025716  )
        10           H   tau(  10) = (  -0.0770366  -0.0000045  -0.1522861  )

     number of k points=     1
                       cart. coord. in units 2pi/alat
        k(    1) = (   0.0000000   0.0000000   0.0000000), wk =   2.0000000

     Dense  grid:   350738 G-vectors     FFT dimensions: ( 120, 120, 120)

     Smooth grid:    88755 G-vectors     FFT dimensions: (  72,  72,  72)

     Estimated max dynamical RAM per process >     624.11 MB

     Initial potential from superposition of free atoms

     starting charge   24.42266, renormalised to   24.00000

     negative rho (up, down):  4.438E-04 0.000E+00
     Starting wfcs are   22 randomized atomic wfcs

     total cpu time spent up to now is        6.2 secs

     Self-consistent Calculation

     iteration #  1     ecut=    30.00 Ry     beta= 0.70
     Davidson diagonalization with overlap
     ethr =  1.00E-02,  avg # of iterations =  2.0

     negative rho (up, down):  1.234E-04 0.000E+00

     add environment contribution to local potential
     polarization accuracy = 6.3E-06, # of iterations =  41

     total cpu time spent up to now is       16.0 secs

     total energy              =     -80.29562589 Ry
     estimated scf accuracy    <       3.64924908 Ry
     electrostatic embedding   =       0.00000000 Ry
     correction to one-el term =      -0.00000000 Ry

     iteration #  2     ecut=    30.00 Ry     beta= 0.70
     Davidson diagonalization with overlap
     ethr =  1.00E-02,  avg # of iterations =  4.0

     negative rho (up, down):  4.946E-04 0.000E+00

     add environment contribution to local potential
     polarization accuracy = 7.6E-06, # of iterations =  59

     total cpu time spent up to now is       28.6 secs

     total energy              =     -81.17075045 Ry
     estimated scf accuracy    <       1.04503429 Ry
     electrostatic embedding   =      -0.18471758 Ry
     correction to one-el term =      -4.99253313 Ry

     iteration #  3     ecut=    30.00 Ry     beta= 0.70
     Davidson diagonalization with overlap
     ethr =  4.35E-03,  avg # of iterations =  4.0

     negative rho (up, down):  2.227E-04 0.000E+00

     add environment contribution to local potential
     polarization accuracy = 7.4E-06, # of iterations =  75

     total cpu time spent up to now is       43.4 secs

     total energy              =     -81.34941745 Ry
     estimated scf accuracy    <       0.11363945 Ry
     electrostatic embedding   =      -0.15050856 Ry
     correction to one-el term =      -4.27235600 Ry

     iteration #  4     ecut=    30.00 Ry     beta= 0.70
     Davidson diagonalization with overlap
     ethr =  4.73E-04,  avg # of iterations =  5.0

     negative rho (up, down):  1.282E-04 0.000E+00

     add environment contribution to local potential
     polarization accuracy = 8.0E-06, # of iterations =  91

     total cpu time spent up to now is       60.5 secs

     total energy              =     -81.38113729 Ry
     estimated scf accuracy    <       0.01966224 Ry
     electrostatic embedding   =      -0.12810874 Ry
     correction to one-el term =      -4.02652460 Ry

     iteration #  5     ecut=    30.00 Ry     beta= 0.70
     Davidson diagonalization with overlap
     ethr =  8.19E-05,  avg # of iterations =  4.0

     negative rho (up, down):  7.682E-05 0.000E+00

     add environment contribution to local potential
     polarization accuracy = 8.9E-06, # of iterations =  91

     total cpu time spent up to now is       77.5 secs

     total energy              =     -81.38584103 Ry
     estimated scf accuracy    <       0.00175322 Ry
     electrostatic embedding   =      -0.12230889 Ry
     correction to one-el term =      -3.80367340 Ry

     iteration #  6     ecut=    30.00 Ry     beta= 0.70
     Davidson diagonalization with overlap
     ethr =  7.31E-06,  avg # of iterations =  2.0

     negative rho (up, down):  1.015E-04 0.000E+00

     add environment contribution to local potential
     polarization accuracy = 9.6E-06, # of iterations =  91

     total cpu time spent up to now is       94.5 secs

     total energy              =     -81.38631964 Ry
     estimated scf accuracy    <       0.00024193 Ry
     electrostatic embedding   =      -0.12309719 Ry
     correction to one-el term =      -3.78109706 Ry

     iteration #  7     ecut=    30.00 Ry     beta= 0.70
     Davidson diagonalization with overlap
     ethr =  1.01E-06,  avg # of iterations =  5.0

     negative rho (up, down):  3.227E-04 0.000E+00

     add environment contribution to local potential
     polarization accuracy = 8.1E-06, # of iterations =  93

     total cpu time spent up to now is      111.8 secs

     total energy              =     -81.38652893 Ry
     estimated scf accuracy    <       0.00004758 Ry
     electrostatic embedding   =      -0.12459515 Ry
     correction to one-el term =      -3.77607376 Ry

     iteration #  8     ecut=    30.00 Ry     beta= 0.70
     Davidson diagonalization with overlap
     ethr =  1.98E-07,  avg # of iterations =  5.0

     negative rho (up, down):  3.858E-04 0.000E+00

     add environment contribution to local potential
     polarization accuracy = 8.2E-06, # of iterations =  93

     total cpu time spent up to now is      129.2 secs

     total energy              =     -81.38664450 Ry
     estimated scf accuracy    <       0.00001319 Ry
     electrostatic embedding   =      -0.12630179 Ry
     correction to one-el term =      -3.77617912 Ry

     iteration #  9     ecut=    30.00 Ry     beta= 0.70
     Davidson diagonalization with overlap
     ethr =  5.49E-08,  avg # of iterations =  3.0

     negative rho (up, down):  3.015E-04 0.000E+00

     add environment contribution to local potential
     polarization accuracy = 8.2E-06, # of iterations =  93

     total cpu time spent up to now is      146.4 secs

     total energy              =     -81.38667744 Ry
     estimated scf accuracy    <       0.00000705 Ry
     electrostatic embedding   =      -0.12726265 Ry
     correction to one-el term =      -3.78057122 Ry

     iteration # 10     ecut=    30.00 Ry     beta= 0.70
     Davidson diagonalization with overlap
     ethr =  2.94E-08,  avg # of iterations =  5.0

     negative rho (up, down):  2.790E-04 0.000E+00

     the potential shift due to the Gaussian-smeared nuclei is    -0.0668 ev

     total cpu time spent up to now is      149.4 secs

     End of self-consistent calculation

          k = 0.0000 0.0000 0.0000 ( 11060 PWs)   bands (ev):

   -28.9045 -23.0733 -18.6298 -15.9875 -14.6130 -13.3718 -11.6645 -10.9416
    -9.6251  -9.6179  -9.3048  -7.3648

     highest occupied level (ev):    -7.3648

!    total energy              =     -81.38672285 Ry
     estimated scf accuracy    <       0.00000305 Ry

     The total energy is the sum of the following terms:
     one-electron contribution =    -241.97181523 Ry
     hartree contribution      =     123.16619141 Ry
     xc contribution           =     -22.96435057 Ry
     ewald contribution        =      64.30784069 Ry
     electrostatic embedding   =      -0.12983355 Ry
     correction to one-el term =      -3.79475560 Ry

     convergence has been achieved in  10 iterations
 forces lc
       1    0.0494    0.0000   -0.1007
       2    0.0478    0.0000   -0.0553
       3    0.0078    0.0000   -0.1031
       4    0.0124   -0.0005   -0.0137
       5    0.0058    0.0000   -0.0077
       6    0.0124    0.0005   -0.0137
       7    0.2101   -0.0000   -0.2555
       8   -0.0192    0.0000   -0.0435
       9    0.0268    0.0000    0.0082
      10    0.0450   -0.0000   -0.1018

     Forces acting on atoms (cartesian axes, Ry/au):

     atom    1 type  1   force =     0.21744829    0.00000252    0.09511554
     atom    2 type  1   force =    -0.03060908    0.00000165   -0.07951933
     atom    3 type  3   force =    -0.13870831   -0.00000243    0.04288736
     atom    4 type  2   force =     0.01866419   -0.02832121    0.00881272
     atom    5 type  2   force =    -0.03120480   -0.00000047    0.01155531
     atom    6 type  2   force =     0.01866264    0.02832296    0.00881406
     atom    7 type  4   force =    -0.09351914   -0.00000594   -0.00078258
     atom    8 type  2   force =     0.00704570    0.00000055   -0.05311211
     atom    9 type  2   force =     0.04356723    0.00000251    0.03737235
     atom   10 type  2   force =    -0.01134671   -0.00000015   -0.07114331

     Total force =     0.329144     Total SCF correction =     0.002235

     Writing output data file /Users/gabrielmedrano/Desktop/q-e/Environ/tests/../..//tempdir/pwscf.save/

     init_run     :      5.56s CPU      6.10s WALL (       1 calls)
     electrons    :    140.19s CPU    143.30s WALL (       1 calls)
     forces       :      1.40s CPU      1.57s WALL (       1 calls)

     Called by init_run:
     wfcinit      :      0.13s CPU      0.12s WALL (       1 calls)
     potinit      :      1.78s CPU      1.92s WALL (       1 calls)
     hinit0       :      2.95s CPU      3.05s WALL (       1 calls)

     Called by electrons:
     c_bands      :      2.45s CPU      2.01s WALL (      10 calls)
     sum_band     :     13.19s CPU      7.81s WALL (      10 calls)
     v_of_rho     :      6.16s CPU      7.16s WALL (      11 calls)
     newd         :      4.27s CPU      6.01s WALL (      11 calls)
     mix_rho      :      0.82s CPU      0.93s WALL (      10 calls)

     Called by c_bands:
     init_us_2    :      0.08s CPU      0.08s WALL (      21 calls)
     regterg      :      2.35s CPU      1.90s WALL (      10 calls)

     Called by *egterg:
     rdiaghg      :      0.01s CPU      0.01s WALL (      49 calls)
     h_psi        :      1.99s CPU      1.82s WALL (      50 calls)
     s_psi        :      0.15s CPU      0.02s WALL (      50 calls)
     g_psi        :      0.01s CPU      0.01s WALL (      39 calls)

     Called by h_psi:
     h_psi:calbec :      0.06s CPU      0.05s WALL (      50 calls)
     vloc_psi     :      1.66s CPU      1.67s WALL (      50 calls)
     add_vuspsi   :      0.26s CPU      0.09s WALL (      50 calls)

     General routines
     calbec       :      0.08s CPU      0.07s WALL (      64 calls)
     fft          :     77.43s CPU     81.43s WALL (    1756 calls)
     ffts         :      0.11s CPU      0.11s WALL (      21 calls)
     fftw         :      1.49s CPU      1.49s WALL (     476 calls)
     interpolate  :      0.51s CPU      0.57s WALL (      11 calls)

     Parallel routines
     fft_scatt_xy :      7.91s CPU      7.93s WALL (    1631 calls)
     fft_scatt_yz :     10.33s CPU     10.36s WALL (    1631 calls)

     Environ routines
     calc_eelect  :      0.05s CPU      0.05s WALL (      20 calls)
     calc_velect  :    101.42s CPU    106.97s WALL (      18 calls)
     dielectric   :      0.56s CPU      0.64s WALL (      12 calls)
     calc_felect  :      0.34s CPU      0.36s WALL (       1 calls)

     PWSCF        :   2m27.25s CPU   2m31.15s WALL


   This run was terminated on:  12:34:37  20Apr2021            

=------------------------------------------------------------------------------=
   JOB DONE.
=------------------------------------------------------------------------------=
 Calling electrostatic_initbase now
 electrolyte_distance:    0.0000000000000000     
 sc_distance:    0.0000000000000000     
 velectrostatic started
 vreference created

%%%% IONS %%%%%%%%%%%%%%%%%%%%%%%%%%%%%%%%%%%%%%%%%%%%%%%%%%%%%%%%%%%%%%%%%%%%%%
 number of ions             =         10
 ionic center of charge     =      0.0095530    -0.0000002     0.0063981
 total ionic charge         =    -25.0000000
 ionic dipole               =      0.0000000     0.0000000     0.0000000
 ionic quadrupole (pc)      =    -79.0828051    -5.4513517  -105.8059620
 ionic quadrupole (gauss)   =    -82.2078051    -8.5763517  -108.9309620
 ion   1 type =  1 coordinates =      0.0000000     0.0000000     0.0000000
 ion   2 type =  1 coordinates =      0.0000000     0.0000000     2.9101782
 ion   3 type =  3 coordinates =      2.3419379     0.0000000    -1.0900479
 ion   4 type =  2 coordinates =      0.9532347    -1.6509323     3.5841800
 ion   5 type =  2 coordinates =     -1.9063663    -0.0000596     3.5841809
 ion   6 type =  2 coordinates =      0.9531315     1.6509919     3.5841800
 ion   7 type =  4 coordinates =     -1.9680045    -0.0000375    -1.2826193
 ion   8 type =  2 coordinates =      2.5262613    -0.0000303    -2.9510950
 ion   9 type =  2 coordinates =      3.8892907     0.0002681    -0.0514326
 ion  10 type =  2 coordinates =     -1.5407317    -0.0000890    -3.0457220

%%%% SYSTEM %%%%%%%%%%%%%%%%%%%%%%%%%%%%%%%%%%%%%%%%%%%%%%%%%%%%%%%%%%%%%%%%%%%%
 system is built from all present ionic types
 system defined dimension   =  0 
 system defined axis        =  3 
 system center              =      0.0095530    -0.0000002     0.0063981 
 system width               =      0.2021425 

%%%% IONS %%%%%%%%%%%%%%%%%%%%%%%%%%%%%%%%%%%%%%%%%%%%%%%%%%%%%%%%%%%%%%%%%%%%%%
 number of ions             =         10
 ionic center of charge     =      0.0095530    -0.0000002     0.0063981
 total ionic charge         =    -25.0000000
 ionic dipole               =      0.0000000     0.0000000     0.0000000
 ionic quadrupole (pc)      =    -79.0828051    -5.4513517  -105.8059620
 ionic quadrupole (gauss)   =    -82.2078051    -8.5763517  -108.9309620
 ion   1 type =  1 coordinates =      0.0000000     0.0000000     0.0000000
 ion   2 type =  1 coordinates =      0.0000000     0.0000000     2.9101782
 ion   3 type =  3 coordinates =      2.3419379     0.0000000    -1.0900479
 ion   4 type =  2 coordinates =      0.9532347    -1.6509323     3.5841800
 ion   5 type =  2 coordinates =     -1.9063663    -0.0000596     3.5841809
 ion   6 type =  2 coordinates =      0.9531315     1.6509919     3.5841800
 ion   7 type =  4 coordinates =     -1.9680045    -0.0000375    -1.2826193
 ion   8 type =  2 coordinates =      2.5262613    -0.0000303    -2.9510950
 ion   9 type =  2 coordinates =      3.8892907     0.0002681    -0.0514326
 ion  10 type =  2 coordinates =     -1.5407317    -0.0000890    -3.0457220

%%%% SYSTEM %%%%%%%%%%%%%%%%%%%%%%%%%%%%%%%%%%%%%%%%%%%%%%%%%%%%%%%%%%%%%%%%%%%%
 system is built from all present ionic types
 system defined dimension   =  0 
 system defined axis        =  3 
 system center              =      0.0095530    -0.0000002     0.0063981 
 system width               =      0.2021425 

%%%% ELECTRONS %%%%%%%%%%%%%%%%%%%%%%%%%%%%%%%%%%%%%%%%%%%%%%%%%%%%%%%%%%%%%%%%%
 number of electrons        =         24
 total electronic charge    =     24.0000000

%%%% ELECTRONS %%%%%%%%%%%%%%%%%%%%%%%%%%%%%%%%%%%%%%%%%%%%%%%%%%%%%%%%%%%%%%%%%
 number of electrons        =         24
 total electronic charge    =     24.0000000

%%%% BOUNDARY %%%%%%%%%%%%%%%%%%%%%%%%%%%%%%%%%%%%%%%%%%%%%%%%%%%%%%%%%%%%%%%%%%
 boundary label             = solvent              
 boundary mode              = electronic           
 boundary is built as a function of a smooth density
 function type              =  2 
 using the modified SCCS function with parameters 
 rhomax                     =      0.0050000 
 rhomin                     =      0.0001000 
 volume of the QM region    =   2771.6247496 
 surface of the QM region   =    905.6008158 

%%%% DIELECTRIC %%%%%%%%%%%%%%%%%%%%%%%%%%%%%%%%%%%%%%%%%%%%%%%%%%%%%%%%%%%%%%%%%
 dielectric build on homogeneous background
 environment bulk permitt.  =    100.0000000 
 dielectric flags
 need gradient              =  F 
 need factor depend. sqrt   =  T 
 total dielectric charge    =      0.0000000

%%%% DENSITY %%%%%%%%%%%%%%%%%%%%%%%%%%%%%%%%%%%%%%%%%%%%%%%%%%%%%%%%%%%%%%%%%%%
 density label              = dvtot                                                                           
 integral of density        =      0.000000000    

%%%% DENSITY %%%%%%%%%%%%%%%%%%%%%%%%%%%%%%%%%%%%%%%%%%%%%%%%%%%%%%%%%%%%%%%%%%%
 density label              = vreference                                                                      
 integral of density        =      0.000000000    

%%%% DENSITY %%%%%%%%%%%%%%%%%%%%%%%%%%%%%%%%%%%%%%%%%%%%%%%%%%%%%%%%%%%%%%%%%%%
 density label              = velectrostatic                                                                  
 integral of density        =      0.000000000    

%%%% CHARGES %%%%%%%%%%%%%%%%%%%%%%%%%%%%%%%%%%%%%%%%%%%%%%%%%%%%%%%%%%%%%%%%%%%
 total number of charges    =         34
 total charge               =     -1.0000000

%%%% DENSITY %%%%%%%%%%%%%%%%%%%%%%%%%%%%%%%%%%%%%%%%%%%%%%%%%%%%%%%%%%%%%%%%%%%
 density label              = vsoftcavity                                                                     
 integral of density        =      0.000000000    

%%%% ELECTRONS %%%%%%%%%%%%%%%%%%%%%%%%%%%%%%%%%%%%%%%%%%%%%%%%%%%%%%%%%%%%%%%%%
 number of electrons        =         24
 total electronic charge    =     24.0000000

%%%% ELECTRONS %%%%%%%%%%%%%%%%%%%%%%%%%%%%%%%%%%%%%%%%%%%%%%%%%%%%%%%%%%%%%%%%%
 number of electrons        =         24
 total electronic charge    =     24.0000000

%%%% BOUNDARY %%%%%%%%%%%%%%%%%%%%%%%%%%%%%%%%%%%%%%%%%%%%%%%%%%%%%%%%%%%%%%%%%%
 boundary label             = solvent              
 boundary mode              = electronic           
 boundary is built as a function of a smooth density
 function type              =  2 
 using the modified SCCS function with parameters 
 rhomax                     =      0.0050000 
 rhomin                     =      0.0001000 
 volume of the QM region    =    994.3250268 
 surface of the QM region   =    491.9124258 

%%%% DIELECTRIC %%%%%%%%%%%%%%%%%%%%%%%%%%%%%%%%%%%%%%%%%%%%%%%%%%%%%%%%%%%%%%%%%
 dielectric build on homogeneous background
 environment bulk permitt.  =    100.0000000 
 dielectric flags
 need gradient              =  F 
 need factor depend. sqrt   =  T 
 total dielectric charge    =      0.0000000

%%%% DENSITY %%%%%%%%%%%%%%%%%%%%%%%%%%%%%%%%%%%%%%%%%%%%%%%%%%%%%%%%%%%%%%%%%%%
 density label              = vreference                                                                      
 integral of density        =    -0.2399915657E-11

%%%% COMPUTE ELECTROSTATIC POTENTIAL %%%%%%%%%%%%%%%%%%%%%%%%%%%%%%%%%%%%%%%%%%%
 Iteration #          1
  pAp =    92.304525136900466       rzold =    89.435737116039732       alpha =   0.96892039673454877     
 delta_qm =   0.143097E-01 delta_en =   0.353837E+03 tol =   0.100000E-04
 Iteration #          2
  pAp =    133.97519675801695       rzold =    17.391247882867017       alpha =   0.12980945953957959     
 delta_qm =   0.335817E-02 delta_en =   0.194872E+02 tol =   0.100000E-04
 Iteration #          3
  pAp =   0.90945361369720412       rzold =   0.24075585831906821       alpha =   0.26472582514717030     
 delta_qm =   0.194653E-02 delta_en =   0.654739E+01 tol =   0.100000E-04
 Iteration #          4
  pAp =   0.42792021059474072       rzold =    9.0834781454469743E-002  alpha =   0.21227037004918256     
 delta_qm =   0.169328E-02 delta_en =   0.495454E+01 tol =   0.100000E-04
 Iteration #          5
  pAp =   0.18031516362180974       rzold =    4.3458359638065915E-002  alpha =   0.24101333889597223     
 delta_qm =   0.107400E-02 delta_en =   0.199320E+01 tol =   0.100000E-04
 Iteration #          6
  pAp =   0.14054972323170972       rzold =    2.9410733332544015E-002  alpha =   0.20925500709850275     
 delta_qm =   0.103796E-02 delta_en =   0.186168E+01 tol =   0.100000E-04
 Iteration #          7
  pAp =    6.4352484319072811E-002  rzold =    1.5346843682733393E-002  alpha =   0.23848098243792104     
 delta_qm =   0.648494E-03 delta_en =   0.726701E+00 tol =   0.100000E-04
 Iteration #          8
  pAp =    5.0730672122231833E-002  rzold =    1.0558202061907541E-002  alpha =   0.20812265282960035     
 delta_qm =   0.651123E-03 delta_en =   0.732606E+00 tol =   0.100000E-04
 Iteration #          9
  pAp =    2.3447494158480988E-002  rzold =    5.5738042459302761E-003  alpha =   0.23771428231337138     
 delta_qm =   0.405665E-03 delta_en =   0.284366E+00 tol =   0.100000E-04
 Iteration #         10
  pAp =    1.8564289097416840E-002  rzold =    3.8589256157260015E-003  alpha =   0.20786821383119694     
 delta_qm =   0.417490E-03 delta_en =   0.301187E+00 tol =   0.100000E-04
 Iteration #         11
  pAp =    8.6226619176296374E-003  rzold =    2.0490476820665591E-003  alpha =   0.23763516436579024     
 delta_qm =   0.261310E-03 delta_en =   0.117993E+00 tol =   0.100000E-04
 Iteration #         12
  pAp =    6.8543735057295732E-003  rzold =    1.4251849313942628E-003  alpha =   0.20792344190215931     
 delta_qm =   0.273372E-03 delta_en =   0.129138E+00 tol =   0.100000E-04
 Iteration #         13
  pAp =    3.1971245009912094E-003  rzold =    7.6029219634210325E-004  alpha =   0.23780500137119737     
 delta_qm =   0.172912E-03 delta_en =   0.516649E-01 tol =   0.100000E-04
 Iteration #         14
  pAp =    2.5534951933714662E-003  rzold =    5.3140422550120058E-004  alpha =   0.20810856698718497     
 delta_qm =   0.182615E-03 delta_en =   0.576255E-01 tol =   0.100000E-04
 Iteration #         15
  pAp =    1.1968051513361350E-003  rzold =    2.8497037669899096E-004  alpha =   0.23810924976454592     
 delta_qm =   0.117322E-03 delta_en =   0.237850E-01 tol =   0.100000E-04
 Iteration #         16
  pAp =    9.6167367583588424E-004  rzold =    2.0040131626329451E-004  alpha =   0.20838806478622410     
 delta_qm =   0.124261E-03 delta_en =   0.266817E-01 tol =   0.100000E-04
 Iteration #         17
  pAp =    4.5353457292007739E-004  rzold =    1.0818585954493712E-004  alpha =   0.23853938818463971     
 delta_qm =   0.813970E-04 delta_en =   0.114488E-01 tol =   0.100000E-04
 Iteration #         18
  pAp =    3.6736476791025976E-004  rzold =    7.6695123838470386E-005  alpha =   0.20877103777465550     
 delta_qm =   0.859585E-04 delta_en =   0.127680E-01 tol =   0.100000E-04
 Iteration #         19
  pAp =    1.7468059909743407E-004  rzold =    4.1769257588612664E-005  alpha =   0.23911789749080511     
 delta_qm =   0.575222E-04 delta_en =   0.571761E-02 tol =   0.100000E-04
 Iteration #         20
  pAp =    1.4300273374723011E-004  rzold =    2.9927254158826319E-005  alpha =   0.20927749683251068     
 delta_qm =   0.603120E-04 delta_en =   0.628567E-02 tol =   0.100000E-04
 Iteration #         21
  pAp =    6.8732852108435101E-005  rzold =    1.6486957861182184E-005  alpha =   0.23987012549940229     
 delta_qm =   0.412278E-04 delta_en =   0.293714E-02 tol =   0.100000E-04
 Iteration #         22
  pAp =    5.7047121290163952E-005  rzold =    1.1975469034927159E-005  alpha =   0.20992240737293724     
 delta_qm =   0.428207E-04 delta_en =   0.316848E-02 tol =   0.100000E-04
 Iteration #         23
  pAp =    2.7796337655995066E-005  rzold =    6.6935341381609010E-006  alpha =   0.24080633287015965     
 delta_qm =   0.298485E-04 delta_en =   0.153953E-02 tol =   0.100000E-04
 Iteration #         24
  pAp =    2.3467687990938532E-005  rzold =    4.9447081953534682E-006  alpha =   0.21070282668078530     
 delta_qm =   0.306951E-04 delta_en =   0.162810E-02 tol =   0.100000E-04
 Iteration #         25
  pAp =    1.1625058589648136E-005  rzold =    2.8121721673419314E-006  alpha =   0.24190606401296852     
 delta_qm =   0.217572E-04 delta_en =   0.817994E-03 tol =   0.100000E-04
 Iteration #         26
  pAp =    1.0013172212983976E-005  rzold =    2.1186682924902253E-006  alpha =   0.21158812086972500     
 delta_qm =   0.221718E-04 delta_en =   0.849469E-03 tol =   0.100000E-04
 Iteration #         27
  pAp =    5.0538544519540226E-006  rzold =    1.2286436422776666E-006  alpha =   0.24311021497712973     
 delta_qm =   0.159294E-04 delta_en =   0.438472E-03 tol =   0.100000E-04
 Iteration #         28
  pAp =    4.4494203341851042E-006  rzold =    9.4558986848922948E-007  alpha =   0.21251978852710732     
 delta_qm =   0.161123E-04 delta_en =   0.448598E-03 tol =   0.100000E-04
 Iteration #         29
  pAp =    2.2903243789939386E-006  rzold =    5.5959443351601812E-007  alpha =   0.24432977208312687     
 delta_qm =   0.116964E-04 delta_en =   0.236400E-03 tol =   0.100000E-04
 Iteration #         30
  pAp =    2.0615192046221663E-006  rzold =    4.3998070517688871E-007  alpha =   0.21342547000794398     
 delta_qm =   0.117652E-04 delta_en =   0.239190E-03 tol =   0.100000E-04
 Iteration #         31
  pAp =    1.0816190476162166E-006  rzold =    2.6550667544216121E-007  alpha =   0.24547152347891077     
 delta_qm =   0.860608E-05 delta_en =   0.127984E-03 tol =   0.100000E-04
 Iteration #         32
  pAp =    9.9390496980866728E-007  rzold =    2.1293568055017498E-007  alpha =   0.21424148889321520     
 delta_qm =   0.862475E-05 delta_en =   0.128540E-03 tol =   0.100000E-04
 Iteration #         33
  pAp =    5.3050806351447041E-007  rzold =    1.3075255035105327E-007  alpha =   0.24646665968628920     
 delta_qm =   0.634332E-05 delta_en =   0.695307E-04 tol =   0.100000E-04
 Iteration #         34
  pAp =    4.9633322432834347E-007  rzold =    1.0667702760268243E-007  alpha =   0.21493025728237666     
 delta_qm =   0.634355E-05 delta_en =   0.695359E-04 tol =   0.100000E-04
 Iteration #         35
  pAp =    2.6878470627631033E-007  rzold =    6.6466458806218891E-008  alpha =   0.24728512171332939     
 delta_qm =   0.468342E-05 delta_en =   0.379027E-04 tol =   0.100000E-04
 Iteration #         36
  pAp =    2.5520820874902417E-007  rzold =    5.4993163114250157E-008  alpha =   0.21548351984371833     
 delta_qm =   0.467928E-05 delta_en =   0.378357E-04 tol =   0.100000E-04
 Iteration #         37
  pAp =    1.3981732825823826E-007  rzold =    3.4665093014944996E-008  alpha =   0.24793130756239060     
 delta_qm =   0.346398E-05 delta_en =   0.207345E-04 tol =   0.100000E-04
 Iteration #         38
  pAp =    1.3430637014459644E-007  rzold =    2.8998633872664934E-008  alpha =   0.21591406157015880     
 delta_qm =   0.346068E-05 delta_en =   0.206951E-04 tol =   0.100000E-04
 Iteration #         39
  pAp =    7.4245377956128109E-008  rzold =    1.8444768081847632E-008  alpha =   0.24842984963652173     
 delta_qm =   0.256680E-05 delta_en =   0.113849E-04 tol =   0.100000E-04
 Iteration #         40
  pAp =    7.1958970642598620E-008  rzold =    1.5560716533399267E-008  alpha =   0.21624429024541325     
 delta_qm =   0.256560E-05 delta_en =   0.113742E-04 tol =   0.100000E-04
 Iteration #         41
  pAp =    4.0053773131364414E-008  rzold =    9.9658538229300565E-009  alpha =   0.24881186075142114     
 delta_qm =   0.190564E-05 delta_en =   0.627519E-05 tol =   0.100000E-04
 Charges are converged, EXIT

%%%% DENSITY %%%%%%%%%%%%%%%%%%%%%%%%%%%%%%%%%%%%%%%%%%%%%%%%%%%%%%%%%%%%%%%%%%%
 density label              = velectrostatic                                                                  
 integral of density        =    -0.2867278431E-11

%%%% CHARGES %%%%%%%%%%%%%%%%%%%%%%%%%%%%%%%%%%%%%%%%%%%%%%%%%%%%%%%%%%%%%%%%%%%
 total number of charges    =         34
 total charge               =     -1.0000000

%%%% DENSITY %%%%%%%%%%%%%%%%%%%%%%%%%%%%%%%%%%%%%%%%%%%%%%%%%%%%%%%%%%%%%%%%%%%
 density label              = vsoftcavity                                                                     
 integral of density        =      71.30521976    

%%%% DENSITY %%%%%%%%%%%%%%%%%%%%%%%%%%%%%%%%%%%%%%%%%%%%%%%%%%%%%%%%%%%%%%%%%%%
 density label              = dvtot                                                                           
 integral of density        =      71.30521976    

%%%% ELECTRONS %%%%%%%%%%%%%%%%%%%%%%%%%%%%%%%%%%%%%%%%%%%%%%%%%%%%%%%%%%%%%%%%%
 number of electrons        =         24
 total electronic charge    =     24.0000000

%%%% ELECTRONS %%%%%%%%%%%%%%%%%%%%%%%%%%%%%%%%%%%%%%%%%%%%%%%%%%%%%%%%%%%%%%%%%
 number of electrons        =         24
 total electronic charge    =     24.0000000

%%%% BOUNDARY %%%%%%%%%%%%%%%%%%%%%%%%%%%%%%%%%%%%%%%%%%%%%%%%%%%%%%%%%%%%%%%%%%
 boundary label             = solvent              
 boundary mode              = electronic           
 boundary is built as a function of a smooth density
 function type              =  2 
 using the modified SCCS function with parameters 
 rhomax                     =      0.0050000 
 rhomin                     =      0.0001000 
 volume of the QM region    =    821.6226620 
 surface of the QM region   =    443.1627264 

%%%% DIELECTRIC %%%%%%%%%%%%%%%%%%%%%%%%%%%%%%%%%%%%%%%%%%%%%%%%%%%%%%%%%%%%%%%%%
 dielectric build on homogeneous background
 environment bulk permitt.  =    100.0000000 
 dielectric flags
 need gradient              =  F 
 need factor depend. sqrt   =  T 
 total dielectric charge    =      0.9814004

%%%% DENSITY %%%%%%%%%%%%%%%%%%%%%%%%%%%%%%%%%%%%%%%%%%%%%%%%%%%%%%%%%%%%%%%%%%%
 density label              = vreference                                                                      
 integral of density        =    -0.4696555901E-11

%%%% COMPUTE ELECTROSTATIC POTENTIAL %%%%%%%%%%%%%%%%%%%%%%%%%%%%%%%%%%%%%%%%%%%
 Warning: bad guess with residual norm =   0.692420E+03, reset to no guess
 Iteration #          1
  pAp =    95.365858176019103       rzold =    92.648525288395533       alpha =   0.97150622938234221     
 delta_qm =   0.195480E-01 delta_en =   0.660313E+03 tol =   0.100000E-04
 Iteration #          2
  pAp =    179.23720072262827       rzold =    19.890363668829664       alpha =   0.11097229586624845     
 delta_qm =   0.415632E-02 delta_en =   0.298513E+02 tol =   0.100000E-04
 Iteration #          3
  pAp =    1.2075970047489186       rzold =   0.25907619688941302       alpha =   0.21453862163502110     
 delta_qm =   0.217144E-02 delta_en =   0.814775E+01 tol =   0.100000E-04
 Iteration #          4
  pAp =   0.46160624814603668       rzold =    8.8605712752298685E-002  alpha =   0.19195085228626893     
 delta_qm =   0.221041E-02 delta_en =   0.844286E+01 tol =   0.100000E-04
 Iteration #          5
  pAp =   0.25290932396793075       rzold =    5.0673624497333168E-002  alpha =   0.20036281661074168     
 delta_qm =   0.130257E-02 delta_en =   0.293187E+01 tol =   0.100000E-04
 Iteration #          6
  pAp =   0.18031165241311412       rzold =    3.4119632790948831E-002  alpha =   0.18922588936613449     
 delta_qm =   0.149558E-02 delta_en =   0.386513E+01 tol =   0.100000E-04
 Iteration #          7
  pAp =   0.10556343380025501       rzold =    2.0955804806217636E-002  alpha =   0.19851386083053896     
 delta_qm =   0.866356E-03 delta_en =   0.129699E+01 tol =   0.100000E-04
 Iteration #          8
  pAp =    7.6299758571335904E-002  rzold =    1.4362227310274559E-002  alpha =   0.18823424319025464     
 delta_qm =   0.104132E-02 delta_en =   0.187374E+01 tol =   0.100000E-04
 Iteration #          9
  pAp =    4.5078754867752757E-002  rzold =    8.9238267994764635E-003  alpha =   0.19796080938029975     
 delta_qm =   0.609664E-03 delta_en =   0.642280E+00 tol =   0.100000E-04
 Iteration #         10
  pAp =    3.2796815349514334E-002  rzold =    6.1677833953115626E-003  alpha =   0.18806043603873560     
 delta_qm =   0.744310E-03 delta_en =   0.957308E+00 tol =   0.100000E-04
 Iteration #         11
  pAp =    1.9508038310554279E-002  rzold =    3.8626283237787867E-003  alpha =   0.19800188323851198     
 delta_qm =   0.448181E-03 delta_en =   0.347097E+00 tol =   0.100000E-04
 Iteration #         12
  pAp =    1.4291654461260586E-002  rzold =    2.6902675313338481E-003  alpha =   0.18824045449924451     
 delta_qm =   0.545112E-03 delta_en =   0.513470E+00 tol =   0.100000E-04
 Iteration #         13
  pAp =    8.5652804614602812E-003  rzold =    1.6986591432856524E-003  alpha =   0.19831915031023406     
 delta_qm =   0.340594E-03 delta_en =   0.200455E+00 tol =   0.100000E-04
 Iteration #         14
  pAp =    6.3302176760897423E-003  rzold =    1.1939782648435543E-003  alpha =   0.18861567262582510     
 delta_qm =   0.407857E-03 delta_en =   0.287448E+00 tol =   0.100000E-04
 Iteration #         15
  pAp =    3.8306021028347110E-003  rzold =    7.6162237601353443E-004  alpha =   0.19882576043330652     
 delta_qm =   0.265060E-03 delta_en =   0.121404E+00 tol =   0.100000E-04
 Iteration #         16
  pAp =    2.8638759385215804E-003  rzold =    5.4171156612197238E-004  alpha =   0.18915329356117999     
 delta_qm =   0.310664E-03 delta_en =   0.166773E+00 tol =   0.100000E-04
 Iteration #         17
  pAp =    1.7549887602910676E-003  rzold =    3.5013924649597138E-004  alpha =   0.19951081990855613     
 delta_qm =   0.209523E-03 delta_en =   0.758591E-01 tol =   0.100000E-04
 Iteration #         18
  pAp =    1.3318580335993785E-003  rzold =    2.5285467969554784E-004  alpha =   0.18985107520221353     
 delta_qm =   0.240028E-03 delta_en =   0.995560E-01 tol =   0.100000E-04
 Iteration #         19
  pAp =    8.2933373129984720E-004  rzold =    1.6617274114559446E-004  alpha =   0.20036896471718982     
 delta_qm =   0.167158E-03 delta_en =   0.482835E-01 tol =   0.100000E-04
 Iteration #         20
  pAp =    6.4115974489425335E-004  rzold =    1.2226522552711929E-004  alpha =   0.19069385827908539     
 delta_qm =   0.187485E-03 delta_en =   0.607400E-01 tol =   0.100000E-04
 Iteration #         21
  pAp =    4.0699362543569279E-004  rzold =    8.1955014681224874E-005  alpha =   0.20136682630714622     
 delta_qm =   0.133993E-03 delta_en =   0.310245E-01 tol =   0.100000E-04
 Iteration #         22
  pAp =    3.2148454974218773E-004  rzold =    6.1607325328158206E-005  alpha =   0.19163386040655381     
 delta_qm =   0.147624E-03 delta_en =   0.376582E-01 tol =   0.100000E-04
 Iteration #         23
  pAp =    2.0848723617359678E-004  rzold =    4.2204621048817351E-005  alpha =   0.20243263723672608     
 delta_qm =   0.107611E-03 delta_en =   0.200106E-01 tol =   0.100000E-04
 Iteration #         24
  pAp =    1.6850411588874721E-004  rzold =    3.2452644270106828E-005  alpha =   0.19259259098177336     
 delta_qm =   0.116907E-03 delta_en =   0.236169E-01 tol =   0.100000E-04
 Iteration #         25
  pAp =    1.1168802458682938E-004  rzold =    2.2725255907262886E-005  alpha =   0.20347083755246867     
 delta_qm =   0.864523E-04 delta_en =   0.129151E-01 tol =   0.100000E-04
 Iteration #         26
  pAp =    9.2306079924555005E-005  rzold =    1.7859732528072861E-005  alpha =   0.19348381539623657     
 delta_qm =   0.929514E-04 delta_en =   0.149299E-01 tol =   0.100000E-04
 Iteration #         27
  pAp =    6.2435480680380761E-005  rzold =    1.2761442876554962E-005  alpha =   0.20439408390051875     
 delta_qm =   0.694275E-04 delta_en =   0.832926E-02 tol =   0.100000E-04
 Iteration #         28
  pAp =    5.2634255886025610E-005  rzold =    1.0223839117923815E-005  alpha =   0.19424306368199734     
 delta_qm =   0.741080E-04 delta_en =   0.949018E-02 tol =   0.100000E-04
 Iteration #         29
  pAp =    3.6221531672395669E-005  rzold =    7.4308754188106714E-006  alpha =   0.20515077843805599     
 delta_qm =   0.557244E-04 delta_en =   0.536580E-02 tol =   0.100000E-04
 Iteration #         30
  pAp =    3.1035458349983473E-005  rzold =    6.0470592680133731E-006  alpha =   0.19484356247687232     
 delta_qm =   0.591971E-04 delta_en =   0.605542E-02 tol =   0.100000E-04
 Iteration #         31
  pAp =    2.1651208104949058E-005  rzold =    4.4543311503003862E-006  alpha =   0.20573129816632310     
 delta_qm =   0.447050E-04 delta_en =   0.345347E-02 tol =   0.100000E-04
 Iteration #         32
  pAp =    1.8783683667608121E-005  rzold =    3.6683057598958986E-006  alpha =   0.19529213890147532     
 delta_qm =   0.473501E-04 delta_en =   0.387423E-02 tol =   0.100000E-04
 Iteration #         33
  pAp =    1.3238148152361038E-005  rzold =    2.7291206083629338E-006  alpha =   0.20615576868855273     
 delta_qm =   0.358545E-04 delta_en =   0.222142E-02 tol =   0.100000E-04
 Iteration #         34
  pAp =    1.1589780650559739E-005  rzold =    2.2671287518029293E-006  alpha =   0.19561446589530029     
 delta_qm =   0.379121E-04 delta_en =   0.248370E-02 tol =   0.100000E-04
 Iteration #         35
  pAp =    8.2280219148626500E-006  rzold =    1.6987324980355450E-006  alpha =   0.20645697296540341     
 delta_qm =   0.287537E-04 delta_en =   0.142866E-02 tol =   0.100000E-04
 Iteration #         36
  pAp =    7.2500591535546014E-006  rzold =    1.4198603553772272E-006  alpha =   0.19584120974807354     
 delta_qm =   0.303793E-04 delta_en =   0.159477E-02 tol =   0.100000E-04
 Iteration #         37
  pAp =    5.1735691538967505E-006  rzold =    1.0692110267005503E-006  alpha =   0.20666796845562929     
 delta_qm =   0.230610E-04 delta_en =   0.918969E-03 tol =   0.100000E-04
 Iteration #         38
  pAp =    4.5792269870617181E-006  rzold =    8.9752836110749732E-007  alpha =   0.19599997196981067     
 delta_qm =   0.243595E-04 delta_en =   0.102537E-02 tol =   0.100000E-04
 Iteration #         39
  pAp =    3.2794203873022483E-006  rzold =    6.7823745990188909E-007  alpha =   0.20681626013181800     
 delta_qm =   0.184994E-04 delta_en =   0.591370E-03 tol =   0.100000E-04
 Iteration #         40
  pAp =    2.9118521769513965E-006  rzold =    5.7105028873742689E-007  alpha =   0.19611238965272468     
 delta_qm =   0.195443E-04 delta_en =   0.660058E-03 tol =   0.100000E-04
 Iteration #         41
  pAp =    2.0906055992790093E-006  rzold =    4.3259328898219977E-007  alpha =   0.20692247697575714     
 delta_qm =   0.148448E-04 delta_en =   0.380798E-03 tol =   0.100000E-04
 Iteration #         42
  pAp =    1.8604659925333363E-006  rzold =    3.6501251104849858E-007  alpha =   0.19619413228374730     
 delta_qm =   0.156897E-04 delta_en =   0.425376E-03 tol =   0.100000E-04
 Iteration #         43
  pAp =    1.3381935249870602E-006  rzold =    2.7700761756570811E-007  alpha =   0.20700116417644948     
 delta_qm =   0.119170E-04 delta_en =   0.245401E-03 tol =   0.100000E-04
 Iteration #         44
  pAp =    1.1928580292134410E-006  rzold =    2.3410555928060675E-007  alpha =   0.19625601165209383     
 delta_qm =   0.126023E-04 delta_en =   0.274436E-03 tol =   0.100000E-04
 Iteration #         45
  pAp =    8.5917916523050920E-007  rzold =    1.7790351999397157E-007  alpha =   0.20706219051091845     
 delta_qm =   0.957098E-05 delta_en =   0.158291E-03 tol =   0.100000E-04
 Iteration #         46
  pAp =    7.6684690415862366E-007  rzold =    1.5053608296847336E-007  alpha =   0.19630526269600052     
 delta_qm =   0.101279E-04 delta_en =   0.177249E-03 tol =   0.100000E-04
 Iteration #         47
  pAp =    5.5293784773905213E-007  rzold =    1.1452011217191154E-007  alpha =   0.20711208798634634     
 delta_qm =   0.769069E-05 delta_en =   0.102205E-03 tol =   0.100000E-04
 Iteration #         48
  pAp =    4.9402869554370861E-007  rzold =    9.7000869543999854E-008  alpha =   0.19634663010261882     
 delta_qm =   0.814388E-05 delta_en =   0.114606E-03 tol =   0.100000E-04
 Iteration #         49
  pAp =    3.5654492286592067E-007  rzold =    7.3860102002302104E-008  alpha =   0.20715510799764583     
 delta_qm =   0.618314E-05 delta_en =   0.660636E-04 tol =   0.100000E-04
 Iteration #         50
  pAp =    3.1884273830557825E-007  rzold =    6.2615351298240060E-008  alpha =   0.19638318134825963     
 delta_qm =   0.655218E-05 delta_en =   0.741850E-04 tol =   0.100000E-04
 Iteration #         51
  pAp =    2.3029532197244847E-007  rzold =    4.7715805013641726E-008  alpha =   0.20719398294747055     
 delta_qm =   0.497395E-05 delta_en =   0.427510E-04 tol =   0.100000E-04
 Iteration #         52
  pAp =    2.0610797166120031E-007  rzold =    4.0483084062308226E-008  alpha =   0.19641687672737959     
 delta_qm =   0.527459E-05 delta_en =   0.480753E-04 tol =   0.100000E-04
 Iteration #         53
  pAp =    1.4897772182863589E-007  rzold =    3.0872720219968386E-008  alpha =   0.20723044923106188     
 delta_qm =   0.400362E-05 delta_en =   0.276980E-04 tol =   0.100000E-04
 Iteration #         54
  pAp =    1.3343064703922153E-007  rzold =    2.6212311098165431E-008  alpha =   0.19644895441794868     
 delta_qm =   0.424859E-05 delta_en =   0.311914E-04 tol =   0.100000E-04
 Iteration #         55
  pAp =    9.6512547558021596E-008  rzold =    2.0003730708131622E-008  alpha =   0.20726559617655665     
 delta_qm =   0.322457E-05 delta_en =   0.179674E-04 tol =   0.100000E-04
 Iteration #         56
  pAp =    8.6502767024989701E-008  rzold =    1.6996079656695261E-008  alpha =   0.19648018486836705     
 delta_qm =   0.342420E-05 delta_en =   0.202611E-04 tol =   0.100000E-04
 Iteration #         57
  pAp =    6.2611074839907078E-008  rzold =    1.2979281751967818E-008  alpha =   0.20730009483394266     
 delta_qm =   0.259875E-05 delta_en =   0.116701E-04 tol =   0.100000E-04
 Iteration #         58
  pAp =    5.6156881594812988E-008  rzold =    1.1035447013462647E-008  alpha =   0.19651103658294930     
 delta_qm =   0.276144E-05 delta_en =   0.131770E-04 tol =   0.100000E-04
 Iteration #         59
  pAp =    4.0673644678626151E-008  rzold =    8.4330435350200651E-009  alpha =   0.20733434639683515     
 delta_qm =   0.209576E-05 delta_en =   0.758971E-05 tol =   0.100000E-04
 Charges are converged, EXIT

%%%% DENSITY %%%%%%%%%%%%%%%%%%%%%%%%%%%%%%%%%%%%%%%%%%%%%%%%%%%%%%%%%%%%%%%%%%%
 density label              = velectrostatic                                                                  
 integral of density        =    -0.5528770857E-11

%%%% CHARGES %%%%%%%%%%%%%%%%%%%%%%%%%%%%%%%%%%%%%%%%%%%%%%%%%%%%%%%%%%%%%%%%%%%
 total number of charges    =         34
 total charge               =     -1.0000000

%%%% DENSITY %%%%%%%%%%%%%%%%%%%%%%%%%%%%%%%%%%%%%%%%%%%%%%%%%%%%%%%%%%%%%%%%%%%
 density label              = vsoftcavity                                                                     
 integral of density        =      48.40543242    

%%%% DENSITY %%%%%%%%%%%%%%%%%%%%%%%%%%%%%%%%%%%%%%%%%%%%%%%%%%%%%%%%%%%%%%%%%%%
 density label              = dvtot                                                                           
 integral of density        =      48.40543242    

%%%% ELECTRONS %%%%%%%%%%%%%%%%%%%%%%%%%%%%%%%%%%%%%%%%%%%%%%%%%%%%%%%%%%%%%%%%%
 number of electrons        =         24
 total electronic charge    =     24.0000000

%%%% ELECTRONS %%%%%%%%%%%%%%%%%%%%%%%%%%%%%%%%%%%%%%%%%%%%%%%%%%%%%%%%%%%%%%%%%
 number of electrons        =         24
 total electronic charge    =     24.0000000

%%%% BOUNDARY %%%%%%%%%%%%%%%%%%%%%%%%%%%%%%%%%%%%%%%%%%%%%%%%%%%%%%%%%%%%%%%%%%
 boundary label             = solvent              
 boundary mode              = electronic           
 boundary is built as a function of a smooth density
 function type              =  2 
 using the modified SCCS function with parameters 
 rhomax                     =      0.0050000 
 rhomin                     =      0.0001000 
 volume of the QM region    =    753.8451124 
 surface of the QM region   =    423.4688741 

%%%% DIELECTRIC %%%%%%%%%%%%%%%%%%%%%%%%%%%%%%%%%%%%%%%%%%%%%%%%%%%%%%%%%%%%%%%%%
 dielectric build on homogeneous background
 environment bulk permitt.  =    100.0000000 
 dielectric flags
 need gradient              =  F 
 need factor depend. sqrt   =  T 
 total dielectric charge    =      0.9823032

%%%% DENSITY %%%%%%%%%%%%%%%%%%%%%%%%%%%%%%%%%%%%%%%%%%%%%%%%%%%%%%%%%%%%%%%%%%%
 density label              = vreference                                                                      
 integral of density        =     0.5573582748E-11

%%%% COMPUTE ELECTROSTATIC POTENTIAL %%%%%%%%%%%%%%%%%%%%%%%%%%%%%%%%%%%%%%%%%%%
 Warning: bad guess with residual norm =   0.956450E+03, reset to no guess
 Iteration #          1
  pAp =    96.050701258418329       rzold =    93.487218268979731       alpha =   0.97331114759337667     
 delta_qm =   0.229745E-01 delta_en =   0.912089E+03 tol =   0.100000E-04
 Iteration #          2
  pAp =    219.24046502008770       rzold =    21.533246908588179       alpha =    9.8217484197614779E-002
 delta_qm =   0.450847E-02 delta_en =   0.351239E+02 tol =   0.100000E-04
 Iteration #          3
  pAp =    1.3402121750735136       rzold =   0.27797596183677736       alpha =   0.20741190611966329     
 delta_qm =   0.218528E-02 delta_en =   0.825201E+01 tol =   0.100000E-04
 Iteration #          4
  pAp =   0.43533207674896879       rzold =    8.0483274849362810E-002  alpha =   0.18487788781935527     
 delta_qm =   0.239544E-02 delta_en =   0.991553E+01 tol =   0.100000E-04
 Iteration #          5
  pAp =   0.30037280040148312       rzold =    5.1573048084868567E-002  alpha =   0.17169679816526398     
 delta_qm =   0.134854E-02 delta_en =   0.314246E+01 tol =   0.100000E-04
 Iteration #          6
  pAp =   0.18113329471264042       rzold =    3.2618622679976790E-002  alpha =   0.18008076721468974     
 delta_qm =   0.169144E-02 delta_en =   0.494375E+01 tol =   0.100000E-04
 Iteration #          7
  pAp =   0.13641798492467816       rzold =    2.3263168573655821E-002  alpha =   0.17052860432222591     
 delta_qm =   0.962529E-03 delta_en =   0.160092E+01 tol =   0.100000E-04
 Iteration #          8
  pAp =    8.3885047015159170E-002  rzold =    1.5046475918591375E-002  alpha =   0.17937017923912318     
 delta_qm =   0.123079E-02 delta_en =   0.261766E+01 tol =   0.100000E-04
 Iteration #          9
  pAp =    6.3727542619692101E-002  rzold =    1.0848110056671302E-002  alpha =   0.17022639836294562     
 delta_qm =   0.724027E-03 delta_en =   0.905845E+00 tol =   0.100000E-04
 Iteration #         10
  pAp =    3.9483606887748240E-002  rzold =    7.0791691802787587E-003  alpha =   0.17929388265881616     
 delta_qm =   0.921029E-03 delta_en =   0.146585E+01 tol =   0.100000E-04
 Iteration #         11
  pAp =    3.0205600300344609E-002  rzold =    5.1445671130653479E-003  alpha =   0.17031832050716286     
 delta_qm =   0.566334E-03 delta_en =   0.554228E+00 tol =   0.100000E-04
 Iteration #         12
  pAp =    1.8853777643018391E-002  rzold =    3.3847325323604328E-003  alpha =   0.17952542967503435     
 delta_qm =   0.706886E-03 delta_en =   0.863461E+00 tol =   0.100000E-04
 Iteration #         13
  pAp =    1.4545096084787840E-002  rzold =    2.4816903584157423E-003  alpha =   0.17062041693978547     
 delta_qm =   0.455850E-03 delta_en =   0.359077E+00 tol =   0.100000E-04
 Iteration #         14
  pAp =    9.1629435593777175E-003  rzold =    1.6488917521289893E-003  alpha =   0.17995218910209793     
 delta_qm =   0.554524E-03 delta_en =   0.531355E+00 tol =   0.100000E-04
 Iteration #         15
  pAp =    7.1472649308735488E-003  rzold =    1.2227824225990731E-003  alpha =   0.17108396490482730     
 delta_qm =   0.374240E-03 delta_en =   0.242016E+00 tol =   0.100000E-04
 Iteration #         16
  pAp =    4.5573201827553231E-003  rzold =    8.2284010746012199E-004  alpha =   0.18055349952669744     
 delta_qm =   0.442920E-03 delta_en =   0.338996E+00 tol =   0.100000E-04
 Iteration #         17
  pAp =    3.6065662755736714E-003  rzold =    6.1926174567464504E-004  alpha =   0.17170396947055780     
 delta_qm =   0.311129E-03 delta_en =   0.167272E+00 tol =   0.100000E-04
 Iteration #         18
  pAp =    2.3357899731273981E-003  rzold =    4.2354025650659697E-004  alpha =   0.18132634414022991     
 delta_qm =   0.358860E-03 delta_en =   0.222533E+00 tol =   0.100000E-04
 Iteration #         19
  pAp =    1.8825511364337841E-003  rzold =    3.2468579925930746E-004  alpha =   0.17247117115467944     
 delta_qm =   0.260540E-03 delta_en =   0.117299E+00 tol =   0.100000E-04
 Iteration #         20
  pAp =    1.2427558332113134E-003  rzold =    2.2648816926590100E-004  alpha =   0.18224671589804545     
 delta_qm =   0.293928E-03 delta_en =   0.149288E+00 tol =   0.100000E-04
 Iteration #         21
  pAp =    1.0235133575171040E-003  rzold =    1.7742339067627490E-004  alpha =   0.17334741102615259     
 delta_qm =   0.218970E-03 delta_en =   0.828538E-01 tol =   0.100000E-04
 Iteration #         22
  pAp =    6.9053603752950202E-004  rzold =    1.2654280433711088E-004  alpha =   0.18325300557786536     
 delta_qm =   0.242673E-03 delta_en =   0.101762E+00 tol =   0.100000E-04
 Iteration #         23
  pAp =    5.8230096985084157E-004  rzold =    1.0147261331238282E-004  alpha =   0.17426145338273330     
 delta_qm =   0.184291E-03 delta_en =   0.586884E-01 tol =   0.100000E-04
 Iteration #         24
  pAp =    4.0187729889700884E-004  rzold =    7.4047553411815619E-005  alpha =   0.18425413332638171     
 delta_qm =   0.201499E-03 delta_en =   0.701602E-01 tol =   0.100000E-04
 Iteration #         25
  pAp =    3.4693362807843042E-004  rzold =    6.0757602927960814E-005  alpha =   0.17512745381438058     
 delta_qm =   0.155136E-03 delta_en =   0.415882E-01 tol =   0.100000E-04
 Iteration #         26
  pAp =    2.4463791376084441E-004  rzold =    4.5296952278406135E-005  alpha =   0.18515916679492284     
 delta_qm =   0.167974E-03 delta_en =   0.487559E-01 tol =   0.100000E-04
 Iteration #         27
  pAp =    2.1571704348893200E-004  rzold =    3.7939251990477195E-005  alpha =   0.17587507865331828     
 delta_qm =   0.130553E-03 delta_en =   0.294520E-01 tol =   0.100000E-04
 Iteration #         28
  pAp =    1.5495841490051142E-004  rzold =    2.8808048275809395E-005  alpha =   0.18590825347758716     
 delta_qm =   0.140404E-03 delta_en =   0.340645E-01 tol =   0.100000E-04
 Iteration #         29
  pAp =    1.3905707738925816E-004  rzold =    2.4539392089926505E-005  alpha =   0.17646992552010959     
 delta_qm =   0.109816E-03 delta_en =   0.208389E-01 tol =   0.100000E-04
 Iteration #         30
  pAp =    1.0137465479546455E-004  rzold =    1.8904757667331802E-005  alpha =   0.18648406453737776     
 delta_qm =   0.117573E-03 delta_en =   0.238867E-01 tol =   0.100000E-04
 Iteration #         31
  pAp =    9.2206125325563218E-005  rzold =    1.6312484202333857E-005  alpha =   0.17691323808193235     
 delta_qm =   0.923375E-04 delta_en =   0.147333E-01 tol =   0.100000E-04
 Iteration #         32
  pAp =    6.7962305974598791E-005  rzold =    1.2702305796513923E-005  alpha =   0.18690221902213655     
 delta_qm =   0.985754E-04 delta_en =   0.167912E-01 tol =   0.100000E-04
 Iteration #         33
  pAp =    6.2423260414893935E-005  rzold =    1.1063153524128296E-005  alpha =   0.17722806291432788     
 delta_qm =   0.776202E-04 delta_en =   0.104110E-01 tol =   0.100000E-04
 Iteration #         34
  pAp =    4.6370541004365321E-005  rzold =    8.6802833334963233E-006  alpha =   0.18719391979229144     
 delta_qm =   0.827175E-04 delta_en =   0.118233E-01 tol =   0.100000E-04
 Iteration #         35
  pAp =    4.2882701195758087E-005  rzold =    7.6092985891249797E-006  alpha =   0.17744447940414920     
 delta_qm =   0.652392E-04 delta_en =   0.735464E-02 tol =   0.100000E-04
 Iteration #         36
  pAp =    3.2026167276786886E-005  rzold =    6.0014554326660806E-006  alpha =   0.18739224649638417     
 delta_qm =   0.694520E-04 delta_en =   0.833516E-02 tol =   0.100000E-04
 Iteration #         37
  pAp =    2.9754800407219345E-005  rzold =    5.2841670281274043E-006  alpha =   0.17759040409645355     
 delta_qm =   0.548305E-04 delta_en =   0.519503E-02 tol =   0.100000E-04
 Iteration #         38
  pAp =    2.2302197075531056E-005  rzold =    4.1822255370081766E-006  alpha =   0.18752527039574599     
 delta_qm =   0.583395E-04 delta_en =   0.588124E-02 tol =   0.100000E-04
 Iteration #         39
  pAp =    2.0784898845857814E-005  rzold =    3.6932270181201872E-006  alpha =   0.17768799576603203     
 delta_qm =   0.460836E-04 delta_en =   0.366975E-02 tol =   0.100000E-04
 Iteration #         40
  pAp =    1.5616572811613305E-005  rzold =    2.9298909506207833E-006  alpha =   0.18761420869769596     
 delta_qm =   0.490215E-04 delta_en =   0.415257E-02 tol =   0.100000E-04
 Iteration #         41
  pAp =    1.4584316204590672E-005  rzold =    2.5924113797446553E-006  alpha =   0.17775337173014993     
 delta_qm =   0.387351E-04 delta_en =   0.259271E-02 tol =   0.100000E-04
 Iteration #         42
  pAp =    1.0975496308410475E-005  rzold =    2.0598158714999644E-006  alpha =   0.18767405260038550     
 delta_qm =   0.412031E-04 delta_en =   0.293361E-02 tol =   0.100000E-04
 Iteration #         43
  pAp =    1.0264289624318886E-005  rzold =    1.8249666610173260E-006  alpha =   0.17779765846566578     
 delta_qm =   0.325620E-04 delta_en =   0.183218E-02 tol =   0.100000E-04
 Iteration #         44
  pAp =    7.7328609429736103E-006  rzold =    1.4515737530468337E-006  alpha =   0.18771496911059707     
 delta_qm =   0.346397E-04 delta_en =   0.207344E-02 tol =   0.100000E-04
 Iteration #         45
  pAp =    7.2386401904367902E-006  rzold =    1.2872350408252680E-006  alpha =   0.17782829467416786     
 delta_qm =   0.273765E-04 delta_en =   0.129509E-02 tol =   0.100000E-04
 Iteration #         46
  pAp =    5.4575099974851724E-006  rzold =    1.0246130174339125E-006  alpha =   0.18774368125867941     
 delta_qm =   0.291279E-04 delta_en =   0.146609E-02 tol =   0.100000E-04
 Iteration #         47
  pAp =    5.1121006281714309E-006  rzold =    9.0918789357319454E-007  alpha =   0.17785015587582553     
 delta_qm =   0.230202E-04 delta_en =   0.915718E-03 tol =   0.100000E-04
 Iteration #         48
  pAp =    3.8562815583606574E-006  rzold =    7.2407303239491194E-007  alpha =   0.18776456579657072     
 delta_qm =   0.244979E-04 delta_en =   0.103705E-02 tol =   0.100000E-04
 Iteration #         49
  pAp =    3.6139499919165820E-006  rzold =    6.4280027098547766E-007  alpha =   0.17786639893281481     
 delta_qm =   0.193602E-04 delta_en =   0.647687E-03 tol =   0.100000E-04
 Iteration #         50
  pAp =    2.7272365256755119E-006  rzold =    5.1212168884833350E-007  alpha =   0.18778044516013717     
 delta_qm =   0.206076E-04 delta_en =   0.733834E-03 tol =   0.100000E-04
 Iteration #         51
  pAp =    2.5567832906052829E-006  rzold =    4.5479819090477828E-007  alpha =   0.17787905317431540     
 delta_qm =   0.162849E-04 delta_en =   0.458263E-03 tol =   0.100000E-04
 Iteration #         52
  pAp =    1.9300443494456147E-006  rzold =    3.6244906869818710E-007  alpha =   0.18779312962538755     
 delta_qm =   0.173382E-04 delta_en =   0.519457E-03 tol =   0.100000E-04
 Iteration #         53
  pAp =    1.8099378680524851E-006  rzold =    3.2196879412149998E-007  alpha =   0.17788941808700995     
 delta_qm =   0.137005E-04 delta_en =   0.324350E-03 tol =   0.100000E-04
 Iteration #         54
  pAp =    1.3666115998664688E-006  rzold =    2.5665482057811489E-007  alpha =   0.18780377731550982     
 delta_qm =   0.145900E-04 delta_en =   0.367835E-03 tol =   0.100000E-04
 Iteration #         55
  pAp =    1.2818761209866017E-006  rzold =    2.2804361433407255E-007  alpha =   0.17789832465133820     
 delta_qm =   0.115282E-04 delta_en =   0.229649E-03 tol =   0.100000E-04
 Iteration #         56
  pAp =    9.6809920782796081E-007  rzold =    1.8182174130700814E-007  alpha =   0.18781312889920199     
 delta_qm =   0.122795E-04 delta_en =   0.260558E-03 tol =   0.100000E-04
 Iteration #         57
  pAp =    9.0826426767059231E-007  rzold =    1.6158593948309618E-007  alpha =   0.17790630462377707     
 delta_qm =   0.970204E-05 delta_en =   0.162656E-03 tol =   0.100000E-04
 Iteration #         58
  pAp =    6.8607000080370615E-007  rzold =    1.2885880565192085E-007  alpha =   0.18782165887003865     
 delta_qm =   0.103367E-04 delta_en =   0.184631E-03 tol =   0.100000E-04
 Iteration #         59
  pAp =    6.4378944193977269E-007  rzold =    1.1453896113060410E-007  alpha =   0.17791369921428343     
 delta_qm =   0.816663E-05 delta_en =   0.115247E-03 tol =   0.100000E-04
 Iteration #         60
  pAp =    4.8638047695059175E-007  rzold =    9.1356685631129368E-008  alpha =   0.18782967236657755     
 delta_qm =   0.870271E-05 delta_en =   0.130874E-03 tol =   0.100000E-04
 Iteration #         61
  pAp =    4.5648798565427422E-007  rzold =    8.1218674943502565E-008  alpha =   0.17792072846581847     
 delta_qm =   0.687544E-05 delta_en =   0.816854E-04 tol =   0.100000E-04
 Iteration #         62
  pAp =    3.4493222657569524E-007  rzold =    6.4791161185924039E-008  alpha =   0.18783736686228605     
 delta_qm =   0.732828E-05 delta_en =   0.927999E-04 tol =   0.100000E-04
 Iteration #         63
  pAp =    3.2378858047618202E-007  rzold =    5.7610904111634173E-008  alpha =   0.17792753539024841     
 delta_qm =   0.578943E-05 delta_en =   0.579183E-04 tol =   0.100000E-04
 Iteration #         64
  pAp =    2.4470095825128571E-007  rzold =    4.5965820025005291E-008  alpha =   0.18784487136254921     
 delta_qm =   0.617195E-05 delta_en =   0.658247E-04 tol =   0.100000E-04
 Iteration #         65
  pAp =    2.2973967939896162E-007  rzold =    4.0878549274958637E-008  alpha =   0.17793421398473233     
 delta_qm =   0.487585E-05 delta_en =   0.410813E-04 tol =   0.100000E-04
 Iteration #         66
  pAp =    1.7365147161919137E-007  rzold =    3.2620823352678808E-008  alpha =   0.18785227126790249     
 delta_qm =   0.519896E-05 delta_en =   0.467065E-04 tol =   0.100000E-04
 Iteration #         67
  pAp =    1.6306107531534374E-007  rzold =    2.9015222592017618E-008  alpha =   0.17794082699322994     
 delta_qm =   0.410717E-05 delta_en =   0.291494E-04 tol =   0.100000E-04
 Iteration #         68
  pAp =    1.2327083507056142E-007  rzold =    2.3157612742681648E-008  alpha =   0.18785962413109319     
 delta_qm =   0.438010E-05 delta_en =   0.331522E-04 tol =   0.100000E-04
 Iteration #         69
  pAp =    1.1577189804369392E-007  rzold =    2.0601310236584703E-008  alpha =   0.17794741715998716     
 delta_qm =   0.346030E-05 delta_en =   0.206906E-04 tol =   0.100000E-04
 Iteration #         70
  pAp =    8.7534748252026509E-008  rzold =    1.6444887892248198E-008  alpha =   0.18786696963931102     
 delta_qm =   0.369085E-05 delta_en =   0.235394E-04 tol =   0.100000E-04
 Iteration #         71
  pAp =    8.2223161416230676E-008  rzold =    1.4631941647279354E-008  alpha =   0.17795401435867242     
 delta_qm =   0.291585E-05 delta_en =   0.146918E-04 tol =   0.100000E-04
 Iteration #         72
  pAp =    6.2178299208465517E-008  rzold =    1.1681706673610691E-008  alpha =   0.18787433593906083     
 delta_qm =   0.311059E-05 delta_en =   0.167197E-04 tol =   0.100000E-04
 Iteration #         73
  pAp =    5.8414889510276323E-008  rzold =    1.0395551129245191E-008  alpha =   0.17796064011071031     
 delta_qm =   0.245751E-05 delta_en =   0.104360E-04 tol =   0.100000E-04
 Iteration #         74
  pAp =    4.4181028799186047E-008  rzold =    8.3008087268597088E-009  alpha =   0.18788174364587534     
 delta_qm =   0.262200E-05 delta_en =   0.118798E-04 tol =   0.100000E-04
 Iteration #         75
  pAp =    4.1513749184631186E-008  rzold =    7.3880902891199383E-009  alpha =   0.17796731045084901     
 delta_qm =   0.207160E-05 delta_en =   0.741577E-05 tol =   0.100000E-04
 Charges are converged, EXIT

%%%% DENSITY %%%%%%%%%%%%%%%%%%%%%%%%%%%%%%%%%%%%%%%%%%%%%%%%%%%%%%%%%%%%%%%%%%%
 density label              = velectrostatic                                                                  
 integral of density        =     0.7027308776E-11

%%%% CHARGES %%%%%%%%%%%%%%%%%%%%%%%%%%%%%%%%%%%%%%%%%%%%%%%%%%%%%%%%%%%%%%%%%%%
 total number of charges    =         34
 total charge               =     -1.0000000

%%%% DENSITY %%%%%%%%%%%%%%%%%%%%%%%%%%%%%%%%%%%%%%%%%%%%%%%%%%%%%%%%%%%%%%%%%%%
 density label              = vsoftcavity                                                                     
 integral of density        =      37.62095331    

%%%% DENSITY %%%%%%%%%%%%%%%%%%%%%%%%%%%%%%%%%%%%%%%%%%%%%%%%%%%%%%%%%%%%%%%%%%%
 density label              = dvtot                                                                           
 integral of density        =      37.62095331    

%%%% ELECTRONS %%%%%%%%%%%%%%%%%%%%%%%%%%%%%%%%%%%%%%%%%%%%%%%%%%%%%%%%%%%%%%%%%
 number of electrons        =         24
 total electronic charge    =     24.0000000

%%%% ELECTRONS %%%%%%%%%%%%%%%%%%%%%%%%%%%%%%%%%%%%%%%%%%%%%%%%%%%%%%%%%%%%%%%%%
 number of electrons        =         24
 total electronic charge    =     24.0000000

%%%% BOUNDARY %%%%%%%%%%%%%%%%%%%%%%%%%%%%%%%%%%%%%%%%%%%%%%%%%%%%%%%%%%%%%%%%%%
 boundary label             = solvent              
 boundary mode              = electronic           
 boundary is built as a function of a smooth density
 function type              =  2 
 using the modified SCCS function with parameters 
 rhomax                     =      0.0050000 
 rhomin                     =      0.0001000 
 volume of the QM region    =    715.6644757 
 surface of the QM region   =    412.2785326 

%%%% DIELECTRIC %%%%%%%%%%%%%%%%%%%%%%%%%%%%%%%%%%%%%%%%%%%%%%%%%%%%%%%%%%%%%%%%%
 dielectric build on homogeneous background
 environment bulk permitt.  =    100.0000000 
 dielectric flags
 need gradient              =  F 
 need factor depend. sqrt   =  T 
 total dielectric charge    =      0.9822465

%%%% DENSITY %%%%%%%%%%%%%%%%%%%%%%%%%%%%%%%%%%%%%%%%%%%%%%%%%%%%%%%%%%%%%%%%%%%
 density label              = vreference                                                                      
 integral of density        =     0.3407973492E-13

%%%% COMPUTE ELECTROSTATIC POTENTIAL %%%%%%%%%%%%%%%%%%%%%%%%%%%%%%%%%%%%%%%%%%%
 Warning: bad guess with residual norm =   0.146382E+04, reset to no guess
 Iteration #          1
  pAp =    96.000479076609579       rzold =    93.403495666732269       alpha =   0.97294822447912077     
 delta_qm =   0.283810E-01 delta_en =   0.139187E+04 tol =   0.100000E-04
 Iteration #          2
  pAp =    260.68896826303563       rzold =    23.688287090861639       alpha =    9.0868007375594487E-002
 delta_qm =   0.533570E-02 delta_en =   0.491956E+02 tol =   0.100000E-04
 Iteration #          3
  pAp =    1.8245124239134038       rzold =   0.33813052028113322       alpha =   0.18532651016750862     
 delta_qm =   0.238143E-02 delta_en =   0.979986E+01 tol =   0.100000E-04
 Iteration #          4
  pAp =   0.53011825826811421       rzold =    9.0163244977623888E-002  alpha =   0.17008138009089785     
 delta_qm =   0.281284E-02 delta_en =   0.136720E+02 tol =   0.100000E-04
 Iteration #          5
  pAp =   0.37037378150216954       rzold =    5.8959396335251095E-002  alpha =   0.15918890396648050     
 delta_qm =   0.151051E-02 delta_en =   0.394265E+01 tol =   0.100000E-04
 Iteration #          6
  pAp =   0.23058529987794760       rzold =    3.8425740690599494E-002  alpha =   0.16664436419380957     
 delta_qm =   0.204113E-02 delta_en =   0.719918E+01 tol =   0.100000E-04
 Iteration #          7
  pAp =   0.17761136173787700       rzold =    2.8117145367730165E-002  alpha =   0.15830713245263051     
 delta_qm =   0.111905E-02 delta_en =   0.216393E+01 tol =   0.100000E-04
 Iteration #          8
  pAp =   0.11296134654219564       rzold =    1.8765131266929316E-002  alpha =   0.16611993253745236     
 delta_qm =   0.152453E-02 delta_en =   0.401618E+01 tol =   0.100000E-04
 Iteration #          9
  pAp =    8.7793910838969355E-002  rzold =    1.3880502598084765E-002  alpha =   0.15810324959260824     
 delta_qm =   0.874073E-03 delta_en =   0.132020E+01 tol =   0.100000E-04
 Iteration #         10
  pAp =    5.6226651181357584E-002  rzold =    9.3389441113494003E-003  alpha =   0.16609461732349809     
 delta_qm =   0.117098E-02 delta_en =   0.236943E+01 tol =   0.100000E-04
 Iteration #         11
  pAp =    4.3970124532454948E-002  rzold =    6.9560853091428483E-003  alpha =   0.15820026399989992     
 delta_qm =   0.708705E-03 delta_en =   0.867910E+00 tol =   0.100000E-04
 Iteration #         12
  pAp =    2.8339977638527011E-002  rzold =    4.7128219813834943E-003  alpha =   0.16629589625986896     
 delta_qm =   0.922429E-03 delta_en =   0.147031E+01 tol =   0.100000E-04
 Iteration #         13
  pAp =    2.2321355792762631E-002  rzold =    3.5368480124920751E-003  alpha =   0.15845130758763523     
 delta_qm =   0.590091E-03 delta_en =   0.601703E+00 tol =   0.100000E-04
 Iteration #         14
  pAp =    1.4499663602754205E-002  rzold =    2.4162499660488092E-003  alpha =   0.16664179475100674     
 delta_qm =   0.742669E-03 delta_en =   0.953090E+00 tol =   0.100000E-04
 Iteration #         15
  pAp =    1.1527587014699737E-002  rzold =    1.8308897484805957E-003  alpha =   0.15882679923785295     
 delta_qm =   0.500266E-03 delta_en =   0.432459E+00 tol =   0.100000E-04
 Iteration #         16
  pAp =    7.5657860493729655E-003  rzold =    1.2644490756851916E-003  alpha =   0.16712725782008944     
 delta_qm =   0.608846E-03 delta_en =   0.640558E+00 tol =   0.100000E-04
 Iteration #         17
  pAp =    6.0900900865115586E-003  rzold =    9.7035773054800407E-004  alpha =   0.15933388780195057     
 delta_qm =   0.428962E-03 delta_en =   0.317966E+00 tol =   0.100000E-04
 Iteration #         18
  pAp =    4.0515561703458741E-003  rzold =    6.7970278491218247E-004  alpha =   0.16776338679124309     
 delta_qm =   0.506384E-03 delta_en =   0.443101E+00 tol =   0.100000E-04
 Iteration #         19
  pAp =    3.3140677426073944E-003  rzold =    5.3018006599042861E-004  alpha =   0.15997864472537945     
 delta_qm =   0.370224E-03 delta_en =   0.236850E+00 tol =   0.100000E-04
 Iteration #         20
  pAp =    2.2427931042317902E-003  rzold =    3.7801582336462072E-004  alpha =   0.16854689924423505     
 delta_qm =   0.425876E-03 delta_en =   0.313408E+00 tol =   0.100000E-04
 Iteration #         21
  pAp =    1.8710381344641210E-003  rzold =    3.0075940202374117E-004  alpha =   0.16074466708284429     
 delta_qm =   0.320564E-03 delta_en =   0.177571E+00 tol =   0.100000E-04
 Iteration #         22
  pAp =    1.2921765391971682E-003  rzold =    2.1894934929228544E-004  alpha =   0.16944228799287681     
 delta_qm =   0.361169E-03 delta_en =   0.225405E+00 tol =   0.100000E-04
 Iteration #         23
  pAp =    1.1024979073996997E-003  rzold =    1.7814508932624166E-004  alpha =   0.16158315415437513     
 delta_qm =   0.277896E-03 delta_en =   0.133447E+00 tol =   0.100000E-04
 Iteration #         24
  pAp =    7.7849616135327693E-004  rzold =    1.3263982633058332E-004  alpha =   0.17037955087667048     
 delta_qm =   0.308165E-03 delta_en =   0.164101E+00 tol =   0.100000E-04
 Iteration #         25
  pAp =    6.8002354474199823E-004  rzold =    1.1044962135181916E-004  alpha =   0.16242029001175817     
 delta_qm =   0.240926E-03 delta_en =   0.100302E+00 tol =   0.100000E-04
 Iteration #         26
  pAp =    4.9093488410474021E-004  rzold =    8.4083671306183888E-005  alpha =   0.17127255371049324     
 delta_qm =   0.264086E-03 delta_en =   0.120513E+00 tol =   0.100000E-04
 Iteration #         27
  pAp =    4.3854591297398627E-004  rzold =    7.1562431760439389E-005  alpha =   0.16318116220748896     
 delta_qm =   0.208787E-03 delta_en =   0.753267E-01 tol =   0.100000E-04
 Iteration #         28
  pAp =    3.2304092363052257E-004  rzold =    5.5578868220703870E-005  alpha =   0.17204900108653756     
 delta_qm =   0.227002E-03 delta_en =   0.890440E-01 tol =   0.100000E-04
 Iteration #         29
  pAp =    2.9423804744073466E-004  rzold =    4.8200644084768117E-005  alpha =   0.16381513031375278     
 delta_qm =   0.180838E-03 delta_en =   0.565098E-01 tol =   0.100000E-04
 Iteration #         30
  pAp =    2.2040609051016818E-004  rzold =    3.8057892695765648E-005  alpha =   0.17267169254567349     
 delta_qm =   0.195539E-03 delta_en =   0.660708E-01 tol =   0.100000E-04
 Iteration #         31
  pAp =    2.0390987710266849E-004  rzold =    3.3503619047767374E-005  alpha =   0.16430601363610417     
 delta_qm =   0.156559E-03 delta_en =   0.423547E-01 tol =   0.100000E-04
 Iteration #         32
  pAp =    1.5473899739881796E-004  rzold =    2.6791437157490672E-005  alpha =   0.17313952919340378     
 delta_qm =   0.168683E-03 delta_en =   0.491684E-01 tol =   0.100000E-04
 Iteration #         33
  pAp =    1.4484410378819856E-004  rzold =    2.3850775271914527E-005  alpha =   0.16466514444240576     
 delta_qm =   0.135498E-03 delta_en =   0.317253E-01 tol =   0.100000E-04
 Iteration #         34
  pAp =    1.1096459901983218E-004  rzold =    1.9249516401452078E-005  alpha =   0.17347439247729543     
 delta_qm =   0.145664E-03 delta_en =   0.366649E-01 tol =   0.100000E-04
 Iteration #         35
  pAp =    1.0474279129288883E-004  rzold =    1.7273917551898310E-005  alpha =   0.16491748347240262     
 delta_qm =   0.117249E-03 delta_en =   0.237555E-01 tol =   0.100000E-04
 Iteration #         36
  pAp =    8.0779758233408399E-005  rzold =    1.4031952456657386E-005  alpha =   0.17370629429358872     
 delta_qm =   0.125879E-03 delta_en =   0.273811E-01 tol =   0.100000E-04
 Iteration #         37
  pAp =    7.6693829234932313E-005  rzold =    1.2661401191753626E-005  alpha =   0.16509022066128159     
 delta_qm =   0.101453E-03 delta_en =   0.177858E-01 tol =   0.100000E-04
 Iteration #         38
  pAp =    5.9418131070206683E-005  rzold =    1.0330657747667824E-005  alpha =   0.17386372747842621     
 delta_qm =   0.108840E-03 delta_en =   0.204701E-01 tol =   0.100000E-04
 Iteration #         39
  pAp =    5.6635000689409232E-005  rzold =    9.3564874438488375E-006  alpha =   0.16520680374245153     
 delta_qm =   0.877878E-04 delta_en =   0.133172E-01 tol =   0.100000E-04
 Iteration #         40
  pAp =    4.4012757167478033E-005  rzold =    7.6568838852808992E-006  alpha =   0.17396964830321365     
 delta_qm =   0.941457E-04 delta_en =   0.153160E-01 tol =   0.100000E-04
 Iteration #         41
  pAp =    4.2062232326363549E-005  rzold =    6.9522629720366311E-006  alpha =   0.16528516408957039     
 delta_qm =   0.759700E-04 delta_en =   0.997306E-02 tol =   0.100000E-04
 Iteration #         42
  pAp =    3.2755339833667568E-005  rzold =    5.7007701905361466E-006  alpha =   0.17404094170552953     
 delta_qm =   0.814623E-04 delta_en =   0.114672E-01 tol =   0.100000E-04
 Iteration #         43
  pAp =    3.1359359306070501E-005  rzold =    5.1848965491713295E-006  alpha =   0.16533808929468927     
 delta_qm =   0.657515E-04 delta_en =   0.747059E-02 tol =   0.100000E-04
 Iteration #         44
  pAp =    2.4454628081560231E-005  rzold =    4.2572907617734873E-006  alpha =   0.17408936858801197     
 delta_qm =   0.705069E-04 delta_en =   0.859028E-02 tol =   0.100000E-04
 Iteration #         45
  pAp =    2.3440610639838474E-005  rzold =    3.8764750226851771E-006  alpha =   0.16537431905024336     
 delta_qm =   0.569160E-04 delta_en =   0.559773E-02 tol =   0.100000E-04
 Iteration #         46
  pAp =    1.8296805090981497E-005  rzold =    3.1858918613460730E-006  alpha =   0.17412285071104575     
 delta_qm =   0.610394E-04 delta_en =   0.643819E-02 tol =   0.100000E-04
 Iteration #         47
  pAp =    1.7552683796642235E-005  rzold =    2.9032081291332304E-006  alpha =   0.16539967122797505     
 delta_qm =   0.492758E-04 delta_en =   0.419577E-02 tol =   0.100000E-04
 Iteration #         48
  pAp =    1.3710002320465542E-005  rzold =    2.3875504818705623E-006  alpha =   0.17414661398755255     
 delta_qm =   0.528544E-04 delta_en =   0.482731E-02 tol =   0.100000E-04
 Iteration #         49
  pAp =    1.3160144466686431E-005  rzold =    2.1769241977360122E-006  alpha =   0.16541795595380238     
 delta_qm =   0.426685E-04 delta_en =   0.314600E-02 tol =   0.100000E-04
 Iteration #         50
  pAp =    1.0283981146453567E-005  rzold =    1.7910999295367997E-006  alpha =   0.17416406195517589     
 delta_qm =   0.457758E-04 delta_en =   0.362089E-02 tol =   0.100000E-04
 Iteration #         51
  pAp =    9.8757643674645167E-006  rzold =    1.6337639330501851E-006  alpha =   0.16543164379585479     
 delta_qm =   0.369535E-04 delta_en =   0.235969E-02 tol =   0.100000E-04
 Iteration #         52
  pAp =    7.7201417870222787E-006  rzold =    1.3446741808523470E-006  alpha =   0.17417739439873664     
 delta_qm =   0.396525E-04 delta_en =   0.271696E-02 tol =   0.100000E-04
 Iteration #         53
  pAp =    7.4161142811418971E-006  rzold =    1.2269392085610998E-006  alpha =   0.16544232761906438     
 delta_qm =   0.320095E-04 delta_en =   0.177052E-02 tol =   0.100000E-04
 Iteration #         54
  pAp =    5.7989655122185126E-006  rzold =    1.0101103627857219E-006  alpha =   0.17418802727096813     
 delta_qm =   0.343541E-04 delta_en =   0.203940E-02 tol =   0.100000E-04
 Iteration #         55
  pAp =    5.5720385310513313E-006  rzold =    9.2189952326564116E-007  alpha =   0.16545103163378472     
 delta_qm =   0.277316E-04 delta_en =   0.132891E-02 tol =   0.100000E-04
 Iteration #         56
  pAp =    4.3579791222782443E-006  rzold =    7.5914632542920057E-007  alpha =   0.17419687064318415     
 delta_qm =   0.297686E-04 delta_en =   0.153130E-02 tol =   0.100000E-04
 Iteration #         57
  pAp =    4.1883389811894203E-006  rzold =    6.9299592588211770E-007  alpha =   0.16545841418148971     
 delta_qm =   0.240295E-04 delta_en =   0.997777E-03 tol =   0.100000E-04
 Iteration #         58
  pAp =    3.2763832731700604E-006  rzold =    5.7076074223791123E-007  alpha =   0.17420450986665928     
 delta_qm =   0.257993E-04 delta_en =   0.115016E-02 tol =   0.100000E-04
 Iteration #         59
[...]
 delta_qm =   0.968106E-03 delta_en =   0.161953E+01 tol =   0.100000E-04
 Iteration #         13
  pAp =    2.5153727524246924E-002  rzold =    3.9837153274214828E-003  alpha =   0.15837475076333646     
 delta_qm =   0.620902E-03 delta_en =   0.666178E+00 tol =   0.100000E-04
 Iteration #         14
  pAp =    1.6851212398739563E-002  rzold =    2.7649213624133394E-003  alpha =   0.16407848272211856     
 delta_qm =   0.779672E-03 delta_en =   0.105043E+01 tol =   0.100000E-04
 Iteration #         15
  pAp =    1.3009669619040183E-002  rzold =    2.0649886189361985E-003  alpha =   0.15872721440320078     
 delta_qm =   0.527003E-03 delta_en =   0.479920E+00 tol =   0.100000E-04
 Iteration #         16
  pAp =    8.7991516359950152E-003  rzold =    1.4476346963990696E-003  alpha =   0.16451980330435231     
 delta_qm =   0.639683E-03 delta_en =   0.707089E+00 tol =   0.100000E-04
 Iteration #         17
  pAp =    6.8709863489257485E-003  rzold =    1.0938840057996850E-003  alpha =   0.15920334435982533     
 delta_qm =   0.452613E-03 delta_en =   0.353996E+00 tol =   0.100000E-04
 Iteration #         18
  pAp =    4.7064455308320615E-003  rzold =    7.7704557062347487E-004  alpha =   0.16510242507493750     
 delta_qm =   0.532676E-03 delta_en =   0.490309E+00 tol =   0.100000E-04
 Iteration #         19
  pAp =    3.7302665104020612E-003  rzold =    5.9615706606048840E-004  alpha =   0.15981621270171190     
 delta_qm =   0.391425E-03 delta_en =   0.264753E+00 tol =   0.100000E-04
 Iteration #         20
  pAp =    2.5969332899309400E-003  rzold =    4.3065288304394868E-004  alpha =   0.16583132293529226     
 delta_qm =   0.448687E-03 delta_en =   0.347881E+00 tol =   0.100000E-04
 Iteration #         21
  pAp =    2.0969104564889261E-003  rzold =    3.3667570231092744E-004  alpha =   0.16055797769956204     
 delta_qm =   0.339716E-03 delta_en =   0.199423E+00 tol =   0.100000E-04
 Iteration #         22
  pAp =    1.4887407082220228E-003  rzold =    2.4814590034730552E-004  alpha =   0.16668174583850928     
 delta_qm =   0.381211E-03 delta_en =   0.251116E+00 tol =   0.100000E-04
 Iteration #         23
  pAp =    1.2284205393425346E-003  rzold =    1.9825309726781678E-004  alpha =   0.16138862133803478     
 delta_qm =   0.295257E-03 delta_en =   0.150642E+00 tol =   0.100000E-04
 Iteration #         24
  pAp =    8.9149886562826818E-004  rzold =    1.4940949142950785E-004  alpha =   0.16759358557816462     
 delta_qm =   0.325931E-03 delta_en =   0.183567E+00 tol =   0.100000E-04
 Iteration #         25
  pAp =    7.5288955795025899E-004  rzold =    1.2214801515645344E-004  alpha =   0.16223895505869584     
 delta_qm =   0.256671E-03 delta_en =   0.113841E+00 tol =   0.100000E-04
 Iteration #         26
  pAp =    5.5880837826486631E-004  rzold =    9.4150534121626524E-005  alpha =   0.16848447121349469     
 delta_qm =   0.279926E-03 delta_en =   0.135404E+00 tol =   0.100000E-04
 Iteration #         27
  pAp =    4.8274663913867383E-004  rzold =    7.8702823504781788E-005  alpha =   0.16303132352242769     
 delta_qm =   0.223047E-03 delta_en =   0.859679E-01 tol =   0.100000E-04
 Iteration #         28
  pAp =    3.6588214796846370E-004  rzold =    6.1935711149511860E-005  alpha =   0.16927776196080016     
 delta_qm =   0.241178E-03 delta_en =   0.100512E+00 tol =   0.100000E-04
 Iteration #         29
  pAp =    3.2252297171109223E-004  rzold =    5.2799136042186672E-005  alpha =   0.16370659045484295     
 delta_qm =   0.193726E-03 delta_en =   0.648517E-01 tol =   0.100000E-04
 Iteration #         30
  pAp =    2.4884398834532117E-004  rzold =    4.2285368116712303E-005  alpha =   0.16992722387182138     
 delta_qm =   0.208251E-03 delta_en =   0.749404E-01 tol =   0.100000E-04
 Iteration #         31
  pAp =    2.2300647451384397E-004  rzold =    3.6626432786724411E-005  alpha =   0.16423932473965319     
 delta_qm =   0.168181E-03 delta_en =   0.488764E-01 tol =   0.100000E-04
 Iteration #         32
  pAp =    1.7449848311419802E-004  rzold =    2.9738602615017083E-005  alpha =   0.17042327293788040     
 delta_qm =   0.180093E-03 delta_en =   0.560453E-01 tol =   0.100000E-04
 Iteration #         33
  pAp =    1.5836395331532820E-004  rzold =    2.6072205297344358E-005  alpha =   0.16463472116934583     
 delta_qm =   0.145956E-03 delta_en =   0.368120E-01 tol =   0.100000E-04
 Iteration #         34
  pAp =    1.2521655015361270E-004  rzold =    2.1384820523724639E-005  alpha =   0.17078270003038934     
 delta_qm =   0.155910E-03 delta_en =   0.420040E-01 tol =   0.100000E-04
 Iteration #         35
  pAp =    1.1468085230019893E-004  rzold =    1.8912641828982548E-005  alpha =   0.16491542789963851     
 delta_qm =   0.126645E-03 delta_en =   0.277153E-01 tol =   0.100000E-04
 Iteration #         36
  pAp =    9.1350618365973685E-005  rzold =    1.5624037416719643E-005  alpha =   0.17103373459526894     
 delta_qm =   0.135077E-03 delta_en =   0.315287E-01 tol =   0.100000E-04
 Iteration #         37
  pAp =    8.4199173257451434E-005  rzold =    1.3902033951320359E-005  alpha =   0.16510891275396294     
 delta_qm =   0.109882E-03 delta_en =   0.208639E-01 tol =   0.100000E-04
 Iteration #         38
  pAp =    6.7412901932452821E-005  rzold =    1.1541430970911241E-005  alpha =   0.17120507558739514     
 delta_qm =   0.117094E-03 delta_en =   0.236926E-01 tol =   0.100000E-04
 Iteration #         39
  pAp =    6.2406022307167911E-005  rzold =    1.0311972991131773E-005  alpha =   0.16524002988646413     
 delta_qm =   0.953401E-04 delta_en =   0.157071E-01 tol =   0.100000E-04
 Iteration #         40
  pAp =    5.0137311774497703E-005  rzold =    8.5895581928336251E-006  alpha =   0.17132067693351474     
 delta_qm =   0.101549E-03 delta_en =   0.178195E-01 tol =   0.100000E-04
 Iteration #         41
  pAp =    4.6549642223922471E-005  rzold =    7.6959734845159104E-006  alpha =   0.16532830580083061     
 delta_qm =   0.827305E-04 delta_en =   0.118270E-01 tol =   0.100000E-04
 Iteration #         42
  pAp =    3.7485130960835266E-005  rzold =    6.4248962787164361E-006  alpha =   0.17139852827056185     
 delta_qm =   0.880980E-04 delta_en =   0.134115E-01 tol =   0.100000E-04
 Iteration #         43
  pAp =    3.4871413359942750E-005  rzold =    5.7673096999475728E-006  alpha =   0.16538789639574969     
 delta_qm =   0.717980E-04 delta_en =   0.890776E-02 tol =   0.100000E-04
 Iteration #         44
  pAp =    2.8124937814517467E-005  rzold =    4.8220578171720152E-006  alpha =   0.17145132369618882     
 delta_qm =   0.764508E-04 delta_en =   0.100997E-01 tol =   0.100000E-04
 Iteration #         45
  pAp =    2.6198768274018634E-005  rzold =    4.3340249754536387E-006  alpha =   0.16542857779125819     
 delta_qm =   0.623200E-04 delta_en =   0.671117E-02 tol =   0.100000E-04
 Iteration #         46
  pAp =    2.1152687568417989E-005  rzold =    3.6274254235563903E-006  alpha =   0.17148768504349851     
 delta_qm =   0.663599E-04 delta_en =   0.760948E-02 tol =   0.100000E-04
 Iteration #         47
  pAp =    1.9722065774620144E-005  rzold =    3.2631519009844000E-006  alpha =   0.16545690184157444     
 delta_qm =   0.541023E-04 delta_en =   0.505796E-02 tol =   0.100000E-04
 Iteration #         48
  pAp =    1.5935225187113970E-005  rzold =    2.7331035534421734E-006  alpha =   0.17151333108566921     
 delta_qm =   0.576137E-04 delta_en =   0.573581E-02 tol =   0.100000E-04
 Iteration #         49
  pAp =    1.4867039147597721E-005  rzold =    2.4601556898307435E-006  alpha =   0.16547717843524115     
 delta_qm =   0.469766E-04 delta_en =   0.381335E-02 tol =   0.100000E-04
 Iteration #         50
  pAp =    1.2018749569967304E-005  rzold =    2.0616001484212456E-006  alpha =   0.17153199976583369     
 delta_qm =   0.500303E-04 delta_en =   0.432524E-02 tol =   0.100000E-04
 Iteration #         51
  pAp =    1.1218328103146826E-005  rzold =    1.8565459150267638E-006  alpha =   0.16549221042179971     
 delta_qm =   0.407967E-04 delta_en =   0.287603E-02 tol =   0.100000E-04
 Iteration #         52
  pAp =    9.0726038268451960E-006  rzold =    1.5563699190821987E-006  alpha =   0.17154611275728912     
 delta_qm =   0.434533E-04 delta_en =   0.326279E-02 tol =   0.100000E-04
 Iteration #         53
  pAp =    8.4713618155520901E-006  rzold =    1.4020426427607465E-006  alpha =   0.16550380839439727     
 delta_qm =   0.354361E-04 delta_en =   0.216988E-02 tol =   0.100000E-04
 Iteration #         54
  pAp =    6.8530959069778045E-006  rzold =    1.1756981592217302E-006  alpha =   0.17155723123977257     
 delta_qm =   0.377475E-04 delta_en =   0.246218E-02 tol =   0.100000E-04
 Iteration #         55
  pAp =    6.4007020102920721E-006  rzold =    1.0594002749845186E-006  alpha =   0.16551313797784140     
 delta_qm =   0.307852E-04 delta_en =   0.163768E-02 tol =   0.100000E-04
 Iteration #         56
  pAp =    5.1792285218527884E-006  rzold =    8.8858138275886112E-007  alpha =   0.17156635954749974     
 delta_qm =   0.327965E-04 delta_en =   0.185865E-02 tol =   0.100000E-04
 Iteration #         57
  pAp =    4.8384197905256747E-006  rzold =    8.0085983492274395E-007  alpha =   0.16552094890380187     
 delta_qm =   0.267494E-04 delta_en =   0.123643E-02 tol =   0.100000E-04
 Iteration #         58
  pAp =    3.9158640119210595E-006  rzold =    6.7186101556124669E-007  alpha =   0.17157414392223558     
 delta_qm =   0.284994E-04 delta_en =   0.140351E-02 tol =   0.100000E-04
 Iteration #         59
  pAp =    3.6588872636672315E-006  rzold =    6.0564728122993700E-007  alpha =   0.16552772402801735     
 delta_qm =   0.232465E-04 delta_en =   0.933808E-03 tol =   0.100000E-04
 Iteration #         60
  pAp =    2.9617466545526136E-006  rzold =    5.0817945624253102E-007  alpha =   0.17158100118434810     
 delta_qm =   0.247691E-04 delta_en =   0.106014E-02 tol =   0.100000E-04
 Iteration #         61
  pAp =    2.7678475239018645E-006  rzold =    4.5817225043790755E-007  alpha =   0.16553377542705719     
 delta_qm =   0.202055E-04 delta_en =   0.705480E-03 tol =   0.100000E-04
 Iteration #         62
  pAp =    2.2408235754966665E-006  rzold =    3.8449664627927909E-007  alpha =   0.17158720145741838     
 delta_qm =   0.215303E-04 delta_en =   0.801021E-03 tol =   0.100000E-04
 Iteration #         63
  pAp =    2.0944384198388294E-006  rzold =    3.4671188253962718E-007  alpha =   0.16553930602853784     
 delta_qm =   0.175652E-04 delta_en =   0.533149E-03 tol =   0.100000E-04
 Iteration #         64
  pAp =    1.6958750294999045E-006  rzold =    2.9100015016723539E-007  alpha =   0.17159292112051927     
 delta_qm =   0.187176E-04 delta_en =   0.605405E-03 tol =   0.100000E-04
 Iteration #         65
  pAp =    1.5853101440730626E-006  rzold =    2.6243929429476084E-007  alpha =   0.16554444900004736     
 delta_qm =   0.152722E-04 delta_en =   0.403036E-03 tol =   0.100000E-04
 Iteration #         66
  pAp =    1.2837985375701137E-006  rzold =    2.2029761656234360E-007  alpha =   0.17159827661068058     
 delta_qm =   0.162747E-04 delta_en =   0.457686E-03 tol =   0.100000E-04
 Iteration #         67
  pAp =    1.2002557549097555E-006  rzold =    1.9870149148872036E-007  alpha =   0.16554929287021855     
 delta_qm =   0.132804E-04 delta_en =   0.304767E-03 tol =   0.100000E-04
 Iteration #         68
  pAp =    9.7209671146206855E-007  rzold =    1.6681504829060217E-007  alpha =   0.17160334596719942     
 delta_qm =   0.141524E-04 delta_en =   0.346103E-03 tol =   0.100000E-04
 Iteration #         69
  pAp =    9.0894968192821153E-007  rzold =    1.5048016250358326E-007  alpha =   0.16555389753188574     
 delta_qm =   0.115501E-04 delta_en =   0.230523E-03 tol =   0.100000E-04
 Iteration #         70
  pAp =    7.3625098620449739E-007  rzold =    1.2634669364505012E-007  alpha =   0.17160818255251437     
 delta_qm =   0.123085E-04 delta_en =   0.261790E-03 tol =   0.100000E-04
 Iteration #         71
  pAp =    6.8850517531723013E-007  rzold =    1.1398774941885285E-007  alpha =   0.16555830443298086     
 delta_qm =   0.100466E-04 delta_en =   0.174414E-03 tol =   0.100000E-04
 Iteration #         72
  pAp =    5.5775237565159144E-007  rzold =    9.5717460161197421E-008  alpha =   0.17161282379008422     
 delta_qm =   0.107062E-04 delta_en =   0.198066E-03 tol =   0.100000E-04
 Iteration #         73
  pAp =    5.2164087112569634E-007  rzold =    8.6364189191862229E-008  alpha =   0.16556254306816312     
 delta_qm =   0.873997E-05 delta_en =   0.131997E-03 tol =   0.100000E-04
 Iteration #         74
  pAp =    4.2262203632987940E-007  rzold =    7.2529251414699136E-008  alpha =   0.17161729673292786     
 delta_qm =   0.931353E-05 delta_en =   0.149890E-03 tol =   0.100000E-04
 Iteration #         75
  pAp =    3.9530234413482232E-007  rzold =    6.5448878972758207E-008  alpha =   0.16556663511824793     
 delta_qm =   0.760427E-05 delta_en =   0.999214E-04 tol =   0.100000E-04
 Iteration #         76
  pAp =    3.2029827711184633E-007  rzold =    5.4970109719125090E-008  alpha =   0.17162162161718353     
 delta_qm =   0.810300E-05 delta_en =   0.113458E-03 tol =   0.100000E-04
 Iteration #         77
  pAp =    2.9962451720575326E-007  rzold =    4.9609010217931890E-008  alpha =   0.16557059709458022     
 delta_qm =   0.661697E-05 delta_en =   0.756593E-04 tol =   0.100000E-04
 Iteration #         78
  pAp =    2.4279839440190811E-007  rzold =    4.1670472110068682E-008  alpha =   0.17162581413570172     
 delta_qm =   0.705062E-05 delta_en =   0.859010E-04 tol =   0.100000E-04
 Iteration #         79
  pAp =    2.2714994812567572E-007  rzold =    3.7610225918839040E-008  alpha =   0.16557444203346397     
 delta_qm =   0.575856E-05 delta_en =   0.573023E-04 tol =   0.100000E-04
 Iteration #         80
  pAp =    1.8408697673993854E-007  rzold =    3.1594826997183020E-008  alpha =   0.17162988689752529     
 delta_qm =   0.613559E-05 delta_en =   0.650513E-04 tol =   0.100000E-04
 Iteration #         81
  pAp =    1.7223948280596764E-007  rzold =    2.8519100188239749E-008  alpha =   0.16557818058689408     
 delta_qm =   0.501211E-05 delta_en =   0.434095E-04 tol =   0.100000E-04
 Iteration #         82
  pAp =    1.3959951989854561E-007  rzold =    2.3960003109986840E-008  alpha =   0.17163385036997153     
 delta_qm =   0.533989E-05 delta_en =   0.492729E-04 tol =   0.100000E-04
 Iteration #         83
  pAp =    1.3062768460601442E-007  rzold =    2.1629569985270975E-008  alpha =   0.16558182172873862     
 delta_qm =   0.436292E-05 delta_en =   0.328925E-04 tol =   0.100000E-04
 Iteration #         84
  pAp =    1.0588298042952569E-007  rzold =    1.8173512658581955E-008  alpha =   0.17163771349143317     
 delta_qm =   0.464786E-05 delta_en =   0.373294E-04 tol =   0.100000E-04
 Iteration #         85
  pAp =    9.9087313805534543E-008  rzold =    1.6407409837508519E-008  alpha =   0.16558537321648617     
 delta_qm =   0.379823E-05 delta_en =   0.249291E-04 tol =   0.100000E-04
 Iteration #         86
  pAp =    8.0324441382432606E-008  rzold =    1.3787006326255017E-008  alpha =   0.17164148407349286     
 delta_qm =   0.404594E-05 delta_en =   0.282867E-04 tol =   0.100000E-04
 Iteration #         87
  pAp =    7.5176001851854035E-008  rzold =    1.2448307085027126E-008  alpha =   0.16558884189609399     
 delta_qm =   0.330700E-05 delta_en =   0.188978E-04 tol =   0.100000E-04
 Iteration #         88
  pAp =    6.0946209902943077E-008  rzold =    1.0461122502938846E-008  alpha =   0.17164516906954835     
 delta_qm =   0.352231E-05 delta_en =   0.214388E-04 tol =   0.100000E-04
 Iteration #         89
  pAp =    5.7044912742536866E-008  rzold =    9.4461945340646441E-009  alpha =   0.16559223390696626     
 delta_qm =   0.287960E-05 delta_en =   0.143288E-04 tol =   0.100000E-04
 Iteration #         90
  pAp =    4.6251026450473929E-008  rzold =    7.9389320214379661E-009  alpha =   0.17164877475614634     
 delta_qm =   0.306676E-05 delta_en =   0.162518E-04 tol =   0.100000E-04
 Iteration #         91
  pAp =    4.3294174090497827E-008  rzold =    7.1693227790965122E-009  alpha =   0.16559555482246813     
 delta_qm =   0.250771E-05 delta_en =   0.108667E-04 tol =   0.100000E-04
 Iteration #         92
  pAp =    3.5105091532827698E-008  rzold =    6.0258699441043525E-009  alpha =   0.17165230685894672     
 delta_qm =   0.267037E-05 delta_en =   0.123222E-04 tol =   0.100000E-04
 Iteration #         93
  pAp =    3.2863610963072858E-008  rzold =    5.4421748595181600E-009  alpha =   0.16559880974836425     
 delta_qm =   0.218406E-05 delta_en =   0.824276E-05 tol =   0.100000E-04
 Charges are converged, EXIT

%%%% DENSITY %%%%%%%%%%%%%%%%%%%%%%%%%%%%%%%%%%%%%%%%%%%%%%%%%%%%%%%%%%%%%%%%%%%
 density label              = velectrostatic                                                                  
 integral of density        =    -0.6738461641E-11

%%%% CHARGES %%%%%%%%%%%%%%%%%%%%%%%%%%%%%%%%%%%%%%%%%%%%%%%%%%%%%%%%%%%%%%%%%%%
 total number of charges    =         34
 total charge               =     -1.0000000

%%%% DENSITY %%%%%%%%%%%%%%%%%%%%%%%%%%%%%%%%%%%%%%%%%%%%%%%%%%%%%%%%%%%%%%%%%%%
 density label              = vsoftcavity                                                                     
 integral of density        =      35.46830220    

%%%% DENSITY %%%%%%%%%%%%%%%%%%%%%%%%%%%%%%%%%%%%%%%%%%%%%%%%%%%%%%%%%%%%%%%%%%%
 density label              = dvtot                                                                           
 integral of density        =      35.46830220    

%%%% ELECTRONS %%%%%%%%%%%%%%%%%%%%%%%%%%%%%%%%%%%%%%%%%%%%%%%%%%%%%%%%%%%%%%%%%
 number of electrons        =         24
 total electronic charge    =     24.0000000

%%%% ELECTRONS %%%%%%%%%%%%%%%%%%%%%%%%%%%%%%%%%%%%%%%%%%%%%%%%%%%%%%%%%%%%%%%%%
 number of electrons        =         24
 total electronic charge    =     24.0000000

%%%% BOUNDARY %%%%%%%%%%%%%%%%%%%%%%%%%%%%%%%%%%%%%%%%%%%%%%%%%%%%%%%%%%%%%%%%%%
 boundary label             = solvent              
 boundary mode              = electronic           
 boundary is built as a function of a smooth density
 function type              =  2 
 using the modified SCCS function with parameters 
 rhomax                     =      0.0050000 
 rhomin                     =      0.0001000 
 volume of the QM region    =    716.4763999 
 surface of the QM region   =    413.0285700 

%%%% DIELECTRIC %%%%%%%%%%%%%%%%%%%%%%%%%%%%%%%%%%%%%%%%%%%%%%%%%%%%%%%%%%%%%%%%%
 dielectric build on homogeneous background
 environment bulk permitt.  =    100.0000000 
 dielectric flags
 need gradient              =  F 
 need factor depend. sqrt   =  T 
 total dielectric charge    =      0.9829072

%%%% DENSITY %%%%%%%%%%%%%%%%%%%%%%%%%%%%%%%%%%%%%%%%%%%%%%%%%%%%%%%%%%%%%%%%%%%
 density label              = dvtot                                                                           
 integral of density        =      35.46830220    

%%%% DENSITY %%%%%%%%%%%%%%%%%%%%%%%%%%%%%%%%%%%%%%%%%%%%%%%%%%%%%%%%%%%%%%%%%%%
 density label              = vreference                                                                      
 integral of density        =     0.6297300130E-11

%%%% DENSITY %%%%%%%%%%%%%%%%%%%%%%%%%%%%%%%%%%%%%%%%%%%%%%%%%%%%%%%%%%%%%%%%%%%
 density label              = velectrostatic                                                                  
 integral of density        =    -0.6738461641E-11

%%%% CHARGES %%%%%%%%%%%%%%%%%%%%%%%%%%%%%%%%%%%%%%%%%%%%%%%%%%%%%%%%%%%%%%%%%%%
 total number of charges    =         34
 total charge               =     -1.0000000

%%%% DENSITY %%%%%%%%%%%%%%%%%%%%%%%%%%%%%%%%%%%%%%%%%%%%%%%%%%%%%%%%%%%%%%%%%%%
 density label              = vsoftcavity                                                                     
 integral of density        =      35.46830220    
