
     Program PWSCF v.6.3MaX starts on 21Apr2019 at 23:13:36 

     This program is part of the open-source Quantum ESPRESSO suite
     for quantum simulation of materials; please cite
         "P. Giannozzi et al., J. Phys.:Condens. Matter 21 395502 (2009);
         "P. Giannozzi et al., J. Phys.:Condens. Matter 29 465901 (2017);
          URL http://www.quantum-espresso.org", 
     in publications or presentations arising from this work. More details at
     http://www.quantum-espresso.org/quote

     Parallel version (MPI), running on     1 processors

     MPI processes distributed on     1 nodes
     Reading input from neutral.in

     Current dimensions of program PWSCF are:
     Max number of different atomic species (ntypx) = 10
     Max number of k-points (npk) =  40000
     Max angular momentum in pseudopotentials (lmaxx) =  3
               file H.pbe-rrkjus.UPF: wavefunction(s)  1S renormalized
               file O.pbe-rrkjus.UPF: wavefunction(s)  2S renormalized

     gamma-point specific algorithms are used

     Subspace diagonalization in iterative solution of the eigenvalue problem:
     a serial algorithm will be used

 
     G-vector sticks info
     --------------------
     sticks:   dense  smooth     PW     G-vecs:    dense   smooth      PW
     Sum        9549    3809    949               701475   177509   22119
 


     bravais-lattice index     =            1
     lattice parameter (alat)  =      20.0000  a.u.
     unit-cell volume          =    8000.0000 (a.u.)^3
     number of atoms/cell      =            3
     number of atomic types    =            2
     number of electrons       =         8.00
     number of Kohn-Sham states=            4
     kinetic-energy cutoff     =      30.0000  Ry
     charge density cutoff     =     300.0000  Ry
     convergence threshold     =      5.0E-03
     mixing beta               =       0.7000
     number of iterations used =            8  plain     mixing
     Exchange-correlation      = SLA PW PBE PBE ( 1  4  3  4 0 0)
 

     Environ Module
     ==============

     Plese cite
         O. Andreussi, I. Dabo and N. Marzari, J. Chem. Phys. 136, 064102 (2012)         
     in publications or presentations arising from this work.

     compensation onset threshold      =               0.1000E+03 
     switching function adopted        =                     SCCS 
     density limit for vacuum region   =               0.5000E-02 
     density limit for bulk solvent    =               0.1000E-03 
     static permittivity               =                   100.00 
     epsilon calculation mode          =               electronic 

     Electrostatic Setup
     -------------------
     electrostatic problem to solve    = generalized              
     numerical solver adopted          = cg                       
     type of auxiliary density adopted = none                     
     type of core tool for poisson     = fft                      
     type of core tool for s(r) deriv  = analytic                 



     celldm(1)=  20.000000  celldm(2)=   0.000000  celldm(3)=   0.000000
     celldm(4)=   0.000000  celldm(5)=   0.000000  celldm(6)=   0.000000

     crystal axes: (cart. coord. in units of alat)
               a(1) = (   1.000000   0.000000   0.000000 )  
               a(2) = (   0.000000   1.000000   0.000000 )  
               a(3) = (   0.000000   0.000000   1.000000 )  

     reciprocal axes: (cart. coord. in units 2 pi/alat)
               b(1) = (  1.000000  0.000000  0.000000 )  
               b(2) = (  0.000000  1.000000  0.000000 )  
               b(3) = (  0.000000  0.000000  1.000000 )  


     PseudoPot. # 1 for H  read from file:
     /home/fnattino/Programs/quantumespresso/q-e-qe-6.3-develop/Environ/tests/../..//pseudo/H.pbe-rrkjus.UPF
     MD5 check sum: 2d52a7f45632fd764c17cc6affed14c8
     Pseudo is Ultrasoft, Zval =  1.0
     Generated by new atomic code, or converted to UPF format
     Using radial grid of 1061 points,  2 beta functions with: 
                l(1) =   0
                l(2) =   0
     Q(r) pseudized with 0 coefficients 


     PseudoPot. # 2 for O  read from file:
     /home/fnattino/Programs/quantumespresso/q-e-qe-6.3-develop/Environ/tests/../..//pseudo/O.pbe-rrkjus.UPF
     MD5 check sum: fadcf19ee70a498d3030e2e79cf929a4
     Pseudo is Ultrasoft, Zval =  6.0
     Generated by new atomic code, or converted to UPF format
     Using radial grid of 1269 points,  4 beta functions with: 
                l(1) =   0
                l(2) =   0
                l(3) =   1
                l(4) =   1
     Q(r) pseudized with 0 coefficients 


     atomic species   valence    mass     pseudopotential
        H              1.00     1.00000     H ( 1.00)
        O              6.00    16.00000     O ( 1.00)

     No symmetry found



   Cartesian axes

     site n.     atom                  positions (alat units)
         1           O   tau(   1) = (   0.5895000   0.6025000   0.5750000  )
         2           H   tau(   2) = (   0.6725000   0.5610000   0.5750000  )
         3           H   tau(   3) = (   0.5280000   0.5330000   0.5750000  )

     number of k points=     1
                       cart. coord. in units 2pi/alat
        k(    1) = (   0.0000000   0.0000000   0.0000000), wk =   2.0000000

     Dense  grid:   350738 G-vectors     FFT dimensions: ( 120, 120, 120)

     Smooth grid:    88755 G-vectors     FFT dimensions: (  72,  72,  72)

     Estimated max dynamical RAM per process >     548.70 MB

     Initial potential from superposition of free atoms
     Check: negative starting charge=   -0.000775

     starting charge    7.80759, renormalised to    8.00000

     negative rho (up, down):  7.936E-04 0.000E+00
     Starting wfcs are    6 randomized atomic wfcs

     total cpu time spent up to now is        3.0 secs

     Self-consistent Calculation

     iteration #  1     ecut=    30.00 Ry     beta= 0.70
     Davidson diagonalization with overlap
     ethr =  1.00E-02,  avg # of iterations =  2.0

     negative rho (up, down):  2.595E-04 0.000E+00

     add environment contribution to local potential
     polarization accuracy = 2.3E-06, # of iterations =  11

     total cpu time spent up to now is        6.0 secs

     total energy              =     -34.06237118 Ry
     Harris-Foulkes estimate   =     -34.58698941 Ry
     estimated scf accuracy    <       0.68459185 Ry
     electrostatic embedding   =       0.00000000 Ry
     correction to one-el term =       0.00000000 Ry

     iteration #  2     ecut=    30.00 Ry     beta= 0.70
     Davidson diagonalization with overlap
     ethr =  8.56E-03,  avg # of iterations =  2.0

     negative rho (up, down):  2.656E-03 0.000E+00

     add environment contribution to local potential
     polarization accuracy = 5.4E-06, # of iterations =  12

     total cpu time spent up to now is        9.6 secs

     total energy              =     -34.20822910 Ry
     Harris-Foulkes estimate   =     -33.94014373 Ry
     estimated scf accuracy    <       0.35519379 Ry
     electrostatic embedding   =      -0.03785652 Ry
     correction to one-el term =      -0.41330098 Ry

     iteration #  3     ecut=    30.00 Ry     beta= 0.70
     Davidson diagonalization with overlap
     ethr =  4.44E-03,  avg # of iterations =  2.0

     negative rho (up, down):  2.205E-04 0.000E+00

     add environment contribution to local potential
     polarization accuracy = 5.2E-06, # of iterations =  13

     total cpu time spent up to now is       12.7 secs

     total energy              =     -34.29047972 Ry
     Harris-Foulkes estimate   =     -33.97796199 Ry
     estimated scf accuracy    <       0.01537482 Ry
     electrostatic embedding   =      -0.02889743 Ry
     correction to one-el term =      -0.29226919 Ry

     iteration #  4     ecut=    30.00 Ry     beta= 0.70
     Davidson diagonalization with overlap
     ethr =  1.92E-04,  avg # of iterations =  2.0

     negative rho (up, down):  2.142E-04 0.000E+00

     the potential shift due to the Gaussian-smeared nuclei is    -0.0214 ev

     total cpu time spent up to now is       14.0 secs

     End of self-consistent calculation

          k = 0.0000 0.0000 0.0000 ( 11060 PWs)   bands (ev):

   -24.5417 -12.3152  -8.7692  -6.7994

     highest occupied level (ev):    -6.7994

!    total energy              =     -34.29563633 Ry
     Harris-Foulkes estimate   =     -34.17197844 Ry
     estimated scf accuracy    <       0.00017514 Ry

     The total energy is the sum of the following terms:

     one-electron contribution =     -63.79214801 Ry
     hartree contribution      =      33.45947050 Ry
     xc contribution           =      -8.39661945 Ry
     ewald contribution        =       4.55735774 Ry
     electrostatic embedding   =      -0.03350773 Ry
     correction to one-el term =      -0.09018939 Ry

     convergence has been achieved in   4 iterations

     Forces acting on atoms (cartesian axes, Ry/au):

     atom    1 type  2   force =     0.00237540   -0.01240043   -0.00001441
     atom    2 type  1   force =    -0.00871878    0.00471837    0.00000691
     atom    3 type  1   force =     0.00634338    0.00768206    0.00000750

     Total force =     0.018893     Total SCF correction =     0.022983
     SCF correction compared to forces is large: reduce conv_thr to get better values

     Writing output data file pwscf.save/
 
     init_run     :      2.30s CPU      2.67s WALL (       1 calls)
     electrons    :      9.24s CPU     10.97s WALL (       1 calls)
     forces       :      0.35s CPU      0.45s WALL (       1 calls)

     Called by init_run:
     wfcinit      :      0.04s CPU      0.04s WALL (       1 calls)
     potinit      :      1.15s CPU      1.29s WALL (       1 calls)
     hinit0       :      0.90s CPU      0.93s WALL (       1 calls)

     Called by electrons:
     c_bands      :      0.27s CPU      0.29s WALL (       4 calls)
     sum_band     :      0.70s CPU      0.92s WALL (       4 calls)
     v_of_rho     :      2.10s CPU      2.34s WALL (       5 calls)
     newd         :      0.60s CPU      0.96s WALL (       5 calls)
     mix_rho      :      0.17s CPU      0.18s WALL (       4 calls)

     Called by c_bands:
     init_us_2    :      0.00s CPU      0.02s WALL (       9 calls)
     regterg      :      0.26s CPU      0.27s WALL (       4 calls)

     Called by sum_band:
     sum_band:bec :      0.00s CPU      0.00s WALL (       4 calls)
     addusdens    :      0.52s CPU      0.73s WALL (       4 calls)

     Called by *egterg:
     h_psi        :      0.28s CPU      0.28s WALL (      13 calls)
     s_psi        :      0.00s CPU      0.00s WALL (      13 calls)
     g_psi        :      0.00s CPU      0.00s WALL (       8 calls)
     rdiaghg      :      0.00s CPU      0.00s WALL (      12 calls)

     Called by h_psi:
     h_psi:pot    :      0.28s CPU      0.28s WALL (      13 calls)
     h_psi:calbec :      0.00s CPU      0.00s WALL (      13 calls)
     vloc_psi     :      0.27s CPU      0.27s WALL (      13 calls)
     add_vuspsi   :      0.00s CPU      0.00s WALL (      13 calls)

     General routines
     calbec       :      0.00s CPU      0.01s WALL (      21 calls)
     fft          :      3.64s CPU      3.70s WALL (     193 calls)
     ffts         :      0.02s CPU      0.03s WALL (       9 calls)
     fftw         :      0.24s CPU      0.25s WALL (      62 calls)
     interpolate  :      0.14s CPU      0.16s WALL (       5 calls)
 
     Parallel routines
 
     Environ routines
     calc_eelect  :      0.01s CPU      0.01s WALL (       8 calls)
     calc_velect  :      3.44s CPU      4.13s WALL (       6 calls)
     dielectric   :      0.50s CPU      0.51s WALL (       6 calls)
     calc_felect  :      0.04s CPU      0.05s WALL (       1 calls)
 
     PWSCF        :    12.23s CPU        14.46s WALL

 
   This run was terminated on:  23:13:50  21Apr2019            

=------------------------------------------------------------------------------=
   JOB DONE.
=------------------------------------------------------------------------------=

%%%% IONS %%%%%%%%%%%%%%%%%%%%%%%%%%%%%%%%%%%%%%%%%%%%%%%%%%%%%%%%%%%%%%%%%%%%%%
 number of ions             =          3
 ionic center of charge     =      0.5921875     0.5886250     0.5750000
 total ionic charge         =     -8.0000000
 ionic dipole               =      0.0000000     0.0000000     0.0000000
 ionic quadrupole (pc)      =     -4.2453875    -2.0049500     0.0000000
 ionic quadrupole (gauss)   =     -5.2453875    -3.0049500    -1.0000000
 ion   1 type =  2 coordinates =     11.7900000    12.0500000    11.5000000
 ion   2 type =  1 coordinates =     13.4500000    11.2200000    11.5000000
 ion   3 type =  1 coordinates =     10.5600000    10.6600000    11.5000000

%%%% SYSTEM %%%%%%%%%%%%%%%%%%%%%%%%%%%%%%%%%%%%%%%%%%%%%%%%%%%%%%%%%%%%%%%%%%%%
 system is built from all present ionic types
 system defined dimension   =  0 
 system defined axis        =  3 
 system center              =      0.5921875     0.5886250     0.5750000 
 system width               =      0.0849363 

%%%% ELECTRONS %%%%%%%%%%%%%%%%%%%%%%%%%%%%%%%%%%%%%%%%%%%%%%%%%%%%%%%%%%%%%%%%%
 number of electrons        =          8
 total electronic charge    =      8.0000000
 number of spin components  =  1

%%%% BOUNDARY %%%%%%%%%%%%%%%%%%%%%%%%%%%%%%%%%%%%%%%%%%%%%%%%%%%%%%%%%%%%%%%%%%
 boundary label             = solvent              
 boundary mode              = electronic           
 boundary is built as a function of a smooth density
 function type              =  1 
 using the optimal SCCS function with parameters 
 rhomax                     =      0.0050000 
 rhomin                     =      0.0001000 
 volume of the QM region    =    479.9702285 
 surface of the QM region   =    281.4538971 

%%%% DIELECTRIC %%%%%%%%%%%%%%%%%%%%%%%%%%%%%%%%%%%%%%%%%%%%%%%%%%%%%%%%%%%%%%%%%
 dielectric build on homogeneous background
 environment bulk permitt.  =    100.0000000 
 dielectric flags
 need gradient              =  F 
 need factor depend. sqrt   =  T 
 total dielectric charge    =      0.0000000

%%%% DENSITY %%%%%%%%%%%%%%%%%%%%%%%%%%%%%%%%%%%%%%%%%%%%%%%%%%%%%%%%%%%%%%%%%%%
 density label              = vreference                                                                      
 integral of density        =      0.000000000    

%%%% DENSITY %%%%%%%%%%%%%%%%%%%%%%%%%%%%%%%%%%%%%%%%%%%%%%%%%%%%%%%%%%%%%%%%%%%
 density label              = velectrostatic                                                                  
 integral of density        =      0.000000000    

%%%% CHARGES %%%%%%%%%%%%%%%%%%%%%%%%%%%%%%%%%%%%%%%%%%%%%%%%%%%%%%%%%%%%%%%%%%%
 total number of charges    =         11
 total charge               =     -0.0000000

%%%% DENSITY %%%%%%%%%%%%%%%%%%%%%%%%%%%%%%%%%%%%%%%%%%%%%%%%%%%%%%%%%%%%%%%%%%%
 density label              = vsoftcavity                                                                     
 integral of density        =      0.000000000    

%%%% ELECTRONS %%%%%%%%%%%%%%%%%%%%%%%%%%%%%%%%%%%%%%%%%%%%%%%%%%%%%%%%%%%%%%%%%
 number of electrons        =          8
 total electronic charge    =      8.0000000
 number of spin components  =  1

%%%% BOUNDARY %%%%%%%%%%%%%%%%%%%%%%%%%%%%%%%%%%%%%%%%%%%%%%%%%%%%%%%%%%%%%%%%%%
 boundary label             = solvent              
 boundary mode              = electronic           
 boundary is built as a function of a smooth density
 function type              =  1 
 using the optimal SCCS function with parameters 
 rhomax                     =      0.0050000 
 rhomin                     =      0.0001000 
 volume of the QM region    =    220.5940716 
 surface of the QM region   =    175.4343928 

%%%% DIELECTRIC %%%%%%%%%%%%%%%%%%%%%%%%%%%%%%%%%%%%%%%%%%%%%%%%%%%%%%%%%%%%%%%%%
 dielectric build on homogeneous background
 environment bulk permitt.  =    100.0000000 
 dielectric flags
 need gradient              =  F 
 need factor depend. sqrt   =  T 
 total dielectric charge    =      0.0000000

%%%% DENSITY %%%%%%%%%%%%%%%%%%%%%%%%%%%%%%%%%%%%%%%%%%%%%%%%%%%%%%%%%%%%%%%%%%%
 density label              = vreference                                                                      
 integral of density        =     0.1091472591E-12

%%%% COMPUTE ELECTROSTATIC POTENTIAL %%%%%%%%%%%%%%%%%%%%%%%%%%%%%%%%%%%%%%%%%%%
 Iteration #          1
  pAp =    26.7239994710220       rzold =    26.1621899959716       alpha = 
  0.978977342981182     
 delta_qm =   0.832725E-02 delta_en =   0.119825E+03 tol =   0.100000E-04
 Iteration #          2
  pAp =    26.7070466600947       rzold =    3.36932345759198       alpha = 
  0.126158594039766     
 delta_qm =   0.276282E-02 delta_en =   0.131901E+02 tol =   0.100000E-04
 Iteration #          3
  pAp =    1.66085118168841       rzold =   0.235698582302077       alpha = 
  0.141914329773043     
 delta_qm =   0.788671E-03 delta_en =   0.107482E+01 tol =   0.100000E-04
 Iteration #          4
  pAp =   3.307116421833629E-002  rzold =   8.575405228116726E-003  alpha = 
  0.259301582838203     
 delta_qm =   0.436590E-03 delta_en =   0.329375E+00 tol =   0.100000E-04
 Iteration #          5
  pAp =   1.208056634661023E-003  rzold =   7.160178517280611E-004  alpha = 
  0.592702222051844     
 delta_qm =   0.126505E-03 delta_en =   0.276541E-01 tol =   0.100000E-04
 Iteration #          6
  pAp =   2.196879476683735E-004  rzold =   8.600582960966897E-005  alpha = 
  0.391490887517861     
 delta_qm =   0.716146E-04 delta_en =   0.886232E-02 tol =   0.100000E-04
 Iteration #          7
  pAp =   6.787983420930257E-006  rzold =   7.230074589582148E-006  alpha = 
   1.06512849858895     
 delta_qm =   0.330558E-04 delta_en =   0.188816E-02 tol =   0.100000E-04
 Iteration #          8
  pAp =   9.694912352486858E-006  rzold =   4.265635129259612E-006  alpha = 
  0.439986971946727     
 delta_qm =   0.176526E-04 delta_en =   0.538472E-03 tol =   0.100000E-04
 Iteration #          9
  pAp =   6.747671745788510E-006  rzold =   1.942166672494319E-006  alpha = 
  0.287827675332088     
 delta_qm =   0.957677E-05 delta_en =   0.158483E-03 tol =   0.100000E-04
 Iteration #         10
  pAp =   1.207004683472091E-006  rzold =   3.878616736952023E-007  alpha = 
  0.321342310437001     
 delta_qm =   0.502009E-05 delta_en =   0.435479E-04 tol =   0.100000E-04
 Iteration #         11
  pAp =   1.176058943283549E-007  rzold =   7.273630638624409E-008  alpha = 
  0.618475007580528     
 delta_qm =   0.115809E-05 delta_en =   0.231753E-05 tol =   0.100000E-04
 Charges are converged, EXIT

%%%% DENSITY %%%%%%%%%%%%%%%%%%%%%%%%%%%%%%%%%%%%%%%%%%%%%%%%%%%%%%%%%%%%%%%%%%%
 density label              = velectrostatic                                                                  
 integral of density        =     0.6776472387E-13

%%%% CHARGES %%%%%%%%%%%%%%%%%%%%%%%%%%%%%%%%%%%%%%%%%%%%%%%%%%%%%%%%%%%%%%%%%%%
 total number of charges    =         11
 total charge               =      0.0000000

%%%% DENSITY %%%%%%%%%%%%%%%%%%%%%%%%%%%%%%%%%%%%%%%%%%%%%%%%%%%%%%%%%%%%%%%%%%%
 density label              = vsoftcavity                                                                     
 integral of density        =      15.38428116    

%%%% ELECTRONS %%%%%%%%%%%%%%%%%%%%%%%%%%%%%%%%%%%%%%%%%%%%%%%%%%%%%%%%%%%%%%%%%
 number of electrons        =          8
 total electronic charge    =      8.0000000
 number of spin components  =  1

%%%% BOUNDARY %%%%%%%%%%%%%%%%%%%%%%%%%%%%%%%%%%%%%%%%%%%%%%%%%%%%%%%%%%%%%%%%%%
 boundary label             = solvent              
 boundary mode              = electronic           
 boundary is built as a function of a smooth density
 function type              =  1 
 using the optimal SCCS function with parameters 
 rhomax                     =      0.0050000 
 rhomin                     =      0.0001000 
 volume of the QM region    =    247.0040292 
 surface of the QM region   =    189.1847726 

%%%% DIELECTRIC %%%%%%%%%%%%%%%%%%%%%%%%%%%%%%%%%%%%%%%%%%%%%%%%%%%%%%%%%%%%%%%%%
 dielectric build on homogeneous background
 environment bulk permitt.  =    100.0000000 
 dielectric flags
 need gradient              =  F 
 need factor depend. sqrt   =  T 
 total dielectric charge    =     -0.0000051

%%%% DENSITY %%%%%%%%%%%%%%%%%%%%%%%%%%%%%%%%%%%%%%%%%%%%%%%%%%%%%%%%%%%%%%%%%%%
 density label              = vreference                                                                      
 integral of density        =    -0.5921189465E-14

%%%% COMPUTE ELECTROSTATIC POTENTIAL %%%%%%%%%%%%%%%%%%%%%%%%%%%%%%%%%%%%%%%%%%%
 Warning: bad guess with residual norm =   0.184626E+03, reset to no guess
 Iteration #          1
  pAp =    28.9426625312738       rzold =    28.5284760041317       alpha = 
  0.985689411722416     
 delta_qm =   0.102050E-01 delta_en =   0.179958E+03 tol =   0.100000E-04
 Iteration #          2
  pAp =    19.8540125944535       rzold =    2.50856878777696       alpha = 
  0.126350720079515     
 delta_qm =   0.321021E-02 delta_en =   0.178078E+02 tol =   0.100000E-04
 Iteration #          3
  pAp =    1.15882077894385       rzold =   0.165128656171819       alpha = 
  0.142497148111476     
 delta_qm =   0.100495E-02 delta_en =   0.174516E+01 tol =   0.100000E-04
 Iteration #          4
  pAp =   2.955092942042523E-002  rzold =   7.208352304550675E-003  alpha = 
  0.243929800041022     
 delta_qm =   0.590695E-03 delta_en =   0.602936E+00 tol =   0.100000E-04
 Iteration #          5
  pAp =   9.751012762189248E-004  rzold =   5.919388218871170E-004  alpha = 
  0.607053683882389     
 delta_qm =   0.208461E-03 delta_en =   0.750918E-01 tol =   0.100000E-04
 Iteration #          6
  pAp =   1.789963422051896E-004  rzold =   6.809086439214392E-005  alpha = 
  0.380403663858611     
 delta_qm =   0.146215E-03 delta_en =   0.369426E-01 tol =   0.100000E-04
 Iteration #          7
  pAp =   1.165998762538159E-005  rzold =   1.033757742497926E-005  alpha = 
  0.886585625740830     
 delta_qm =   0.750028E-04 delta_en =   0.972073E-02 tol =   0.100000E-04
 Iteration #          8
  pAp =   1.879910947287116E-005  rzold =   8.790883998141486E-006  alpha = 
  0.467622363220318     
 delta_qm =   0.282832E-04 delta_en =   0.138229E-02 tol =   0.100000E-04
 Iteration #          9
  pAp =   3.313660277706415E-006  rzold =   1.458998166783166E-006  alpha = 
  0.440298052458482     
 delta_qm =   0.145636E-04 delta_en =   0.366504E-03 tol =   0.100000E-04
 Iteration #         10
  pAp =   2.427844907628428E-006  rzold =   5.467673477953439E-007  alpha = 
  0.225206868065324     
 delta_qm =   0.919087E-05 delta_en =   0.145968E-03 tol =   0.100000E-04
 Iteration #         11
  pAp =   1.506309596716144E-007  rzold =   9.244623246582723E-008  alpha = 
  0.613726638052139     
 delta_qm =   0.268046E-05 delta_en =   0.124154E-04 tol =   0.100000E-04
 Iteration #         12
  pAp =   1.281975131934790E-008  rzold =   6.093035038174428E-009  alpha = 
  0.475284963521770     
 delta_qm =   0.177038E-05 delta_en =   0.541597E-05 tol =   0.100000E-04
 Charges are converged, EXIT

%%%% DENSITY %%%%%%%%%%%%%%%%%%%%%%%%%%%%%%%%%%%%%%%%%%%%%%%%%%%%%%%%%%%%%%%%%%%
 density label              = velectrostatic                                                                  
 integral of density        =    -0.1354636568E-12

%%%% CHARGES %%%%%%%%%%%%%%%%%%%%%%%%%%%%%%%%%%%%%%%%%%%%%%%%%%%%%%%%%%%%%%%%%%%
 total number of charges    =         11
 total charge               =      0.0000000

%%%% DENSITY %%%%%%%%%%%%%%%%%%%%%%%%%%%%%%%%%%%%%%%%%%%%%%%%%%%%%%%%%%%%%%%%%%%
 density label              = vsoftcavity                                                                     
 integral of density        =      11.37888292    

%%%% ELECTRONS %%%%%%%%%%%%%%%%%%%%%%%%%%%%%%%%%%%%%%%%%%%%%%%%%%%%%%%%%%%%%%%%%
 number of electrons        =          8
 total electronic charge    =      8.0000000
 number of spin components  =  1

%%%% BOUNDARY %%%%%%%%%%%%%%%%%%%%%%%%%%%%%%%%%%%%%%%%%%%%%%%%%%%%%%%%%%%%%%%%%%
 boundary label             = solvent              
 boundary mode              = electronic           
 boundary is built as a function of a smooth density
 function type              =  1 
 using the optimal SCCS function with parameters 
 rhomax                     =      0.0050000 
 rhomin                     =      0.0001000 
 volume of the QM region    =    228.7979917 
 surface of the QM region   =    180.1317883 

%%%% DIELECTRIC %%%%%%%%%%%%%%%%%%%%%%%%%%%%%%%%%%%%%%%%%%%%%%%%%%%%%%%%%%%%%%%%%
 dielectric build on homogeneous background
 environment bulk permitt.  =    100.0000000 
 dielectric flags
 need gradient              =  F 
 need factor depend. sqrt   =  T 
 total dielectric charge    =      0.0000706

%%%% DENSITY %%%%%%%%%%%%%%%%%%%%%%%%%%%%%%%%%%%%%%%%%%%%%%%%%%%%%%%%%%%%%%%%%%%
 density label              = vreference                                                                      
 integral of density        =    -0.7460698725E-13

%%%% COMPUTE ELECTROSTATIC POTENTIAL %%%%%%%%%%%%%%%%%%%%%%%%%%%%%%%%%%%%%%%%%%%
 Warning: bad guess with residual norm =   0.200797E+03, reset to no guess
 Iteration #          1
  pAp =    28.8382610903312       rzold =    28.4041338558658       alpha = 
  0.984946136901056     
 delta_qm =   0.106345E-01 delta_en =   0.195426E+03 tol =   0.100000E-04
 Iteration #          2
  pAp =    19.4713526304409       rzold =    2.55647816914533       alpha = 
  0.131294328527984     
 delta_qm =   0.257407E-02 delta_en =   0.114495E+02 tol =   0.100000E-04
 Iteration #          3
  pAp =    1.53269281258993       rzold =   0.177438240857794       alpha = 
  0.115768952134617     
 delta_qm =   0.921760E-03 delta_en =   0.146818E+01 tol =   0.100000E-04
 Iteration #          4
  pAp =   5.371361071514223E-002  rzold =   1.104032430649700E-002  alpha = 
  0.205540535434246     
 delta_qm =   0.538563E-03 delta_en =   0.501206E+00 tol =   0.100000E-04
 Iteration #          5
  pAp =   1.189937062991695E-003  rzold =   7.000845714660239E-004  alpha = 
  0.588337478711603     
 delta_qm =   0.190546E-03 delta_en =   0.627400E-01 tol =   0.100000E-04
 Iteration #          6
  pAp =   4.247205771819016E-004  rzold =   1.403016010488089E-004  alpha = 
  0.330338600450526     
 delta_qm =   0.132111E-03 delta_en =   0.301591E-01 tol =   0.100000E-04
 Iteration #          7
  pAp =   2.156054673203794E-005  rzold =   1.387888836900292E-005  alpha = 
  0.643716902984634     
 delta_qm =   0.897997E-04 delta_en =   0.139346E-01 tol =   0.100000E-04
 Iteration #          8
  pAp =   1.975974622216233E-005  rzold =   1.242377794276345E-005  alpha = 
  0.628741776492507     
 delta_qm =   0.350284E-04 delta_en =   0.212024E-02 tol =   0.100000E-04
 Iteration #          9
  pAp =   1.133005950585247E-005  rzold =   3.988129413574899E-006  alpha = 
  0.351995451702161     
 delta_qm =   0.224323E-04 delta_en =   0.869542E-03 tol =   0.100000E-04
 Iteration #         10
  pAp =   9.119264711456207E-006  rzold =   2.029293649319369E-006  alpha = 
  0.222528209623089     
 delta_qm =   0.148705E-04 delta_en =   0.382116E-03 tol =   0.100000E-04
 Iteration #         11
  pAp =   3.060543200912434E-007  rzold =   2.160366778126977E-007  alpha = 
  0.705876910178203     
 delta_qm =   0.463528E-05 delta_en =   0.371275E-04 tol =   0.100000E-04
 Iteration #         12
  pAp =   7.731071006119125E-008  rzold =   3.258168371323615E-008  alpha = 
  0.421438164097158     
 delta_qm =   0.298377E-05 delta_en =   0.153842E-04 tol =   0.100000E-04
 Iteration #         13
  pAp =   1.230013977912327E-008  rzold =   7.386493407946669E-009  alpha = 
  0.600521094929635     
 delta_qm =   0.172882E-05 delta_en =   0.516471E-05 tol =   0.100000E-04
 Charges are converged, EXIT

%%%% DENSITY %%%%%%%%%%%%%%%%%%%%%%%%%%%%%%%%%%%%%%%%%%%%%%%%%%%%%%%%%%%%%%%%%%%
 density label              = velectrostatic                                                                  
 integral of density        =     0.8105450467E-13

%%%% CHARGES %%%%%%%%%%%%%%%%%%%%%%%%%%%%%%%%%%%%%%%%%%%%%%%%%%%%%%%%%%%%%%%%%%%
 total number of charges    =         11
 total charge               =      0.0000000

%%%% DENSITY %%%%%%%%%%%%%%%%%%%%%%%%%%%%%%%%%%%%%%%%%%%%%%%%%%%%%%%%%%%%%%%%%%%
 density label              = vsoftcavity                                                                     
 integral of density        =      11.45451776    

%%%% ELECTRONS %%%%%%%%%%%%%%%%%%%%%%%%%%%%%%%%%%%%%%%%%%%%%%%%%%%%%%%%%%%%%%%%%
 number of electrons        =          8
 total electronic charge    =      8.0000000
 number of spin components  =  1

%%%% BOUNDARY %%%%%%%%%%%%%%%%%%%%%%%%%%%%%%%%%%%%%%%%%%%%%%%%%%%%%%%%%%%%%%%%%%
 boundary label             = solvent              
 boundary mode              = electronic           
 boundary is built as a function of a smooth density
 function type              =  1 
 using the optimal SCCS function with parameters 
 rhomax                     =      0.0050000 
 rhomin                     =      0.0001000 
 volume of the QM region    =    228.7979917 
 surface of the QM region   =    180.1317883 

%%%% DIELECTRIC %%%%%%%%%%%%%%%%%%%%%%%%%%%%%%%%%%%%%%%%%%%%%%%%%%%%%%%%%%%%%%%%%
 dielectric build on homogeneous background
 environment bulk permitt.  =    100.0000000 
 dielectric flags
 need gradient              =  F 
 need factor depend. sqrt   =  T 
 total dielectric charge    =      0.0000731

%%%% DENSITY %%%%%%%%%%%%%%%%%%%%%%%%%%%%%%%%%%%%%%%%%%%%%%%%%%%%%%%%%%%%%%%%%%%
 density label              = vreference                                                                      
 integral of density        =    -0.7460698725E-13

%%%% DENSITY %%%%%%%%%%%%%%%%%%%%%%%%%%%%%%%%%%%%%%%%%%%%%%%%%%%%%%%%%%%%%%%%%%%
 density label              = velectrostatic                                                                  
 integral of density        =     0.8105450467E-13

%%%% CHARGES %%%%%%%%%%%%%%%%%%%%%%%%%%%%%%%%%%%%%%%%%%%%%%%%%%%%%%%%%%%%%%%%%%%
 total number of charges    =         11
 total charge               =      0.0000000

%%%% DENSITY %%%%%%%%%%%%%%%%%%%%%%%%%%%%%%%%%%%%%%%%%%%%%%%%%%%%%%%%%%%%%%%%%%%
 density label              = vsoftcavity                                                                     
 integral of density        =      11.45451776    
