
     Program PWSCF v.6.1 (svn rev. 13369) starts on 14Nov2017 at 14:41:17 

     This program is part of the open-source Quantum ESPRESSO suite
     for quantum simulation of materials; please cite
         "P. Giannozzi et al., J. Phys.:Condens. Matter 21 395502 (2009);
          URL http://www.quantum-espresso.org", 
     in publications or presentations arising from this work. More details at
     http://www.quantum-espresso.org/quote

     Parallel version (MPI), running on     1 processors
     Reading input from charged.in

     Current dimensions of program PWSCF are:
     Max number of different atomic species (ntypx) = 10
     Max number of k-points (npk) =  40000
     Max angular momentum in pseudopotentials (lmaxx) =  3
               file C.pbe-rrkjus.UPF: wavefunction(s)  2S 2P renormalized
               file H.pbe-rrkjus.UPF: wavefunction(s)  1S renormalized
               file N.pbe-rrkjus.UPF: wavefunction(s)  2S renormalized
               file O.pbe-rrkjus.UPF: wavefunction(s)  2S renormalized

     gamma-point specific algorithms are used

     Subspace diagonalization in iterative solution of the eigenvalue problem:
     a serial algorithm will be used

 
     G-vector sticks info
     --------------------
     sticks:   dense  smooth     PW     G-vecs:    dense   smooth      PW
     Sum        9549    3809    949               701475   177509   22119
 


     bravais-lattice index     =            1
     lattice parameter (alat)  =      20.0000  a.u.
     unit-cell volume          =    8000.0000 (a.u.)^3
     number of atoms/cell      =           10
     number of atomic types    =            4
     number of electrons       =        24.00
     number of Kohn-Sham states=           12
     kinetic-energy cutoff     =      30.0000  Ry
     charge density cutoff     =     300.0000  Ry
     convergence threshold     =      5.0E-03
     mixing beta               =       0.7000
     number of iterations used =            8  plain     mixing
     Exchange-correlation      =  SLA  PW   PBE  PBE ( 1  4  3  4 0 0)
 

     Environ Module
     ==============

     Plese cite
         O. Andreussi, I. Dabo and N. Marzari, J. Chem. Phys. 136, 064102 (2012)         
     in publications or presentations arising from this work.

     compensation onset threshold      =               0.1000E+03 
     static permittivity               =                   100.00 
     epsilon calculation mode          =                    ionic 

     Electrostatic Setup
     -------------------
     electrostatic problem to solve    = generalized              
     numerical solver adopted          = cg                       
     type of auxiliary density adopted = none                     
     type of core tool for poisson     = fft                      
     type of core tool for s(r) deriv  = analytic                 



     celldm(1)=  20.000000  celldm(2)=   0.000000  celldm(3)=   0.000000
     celldm(4)=   0.000000  celldm(5)=   0.000000  celldm(6)=   0.000000

     crystal axes: (cart. coord. in units of alat)
               a(1) = (   1.000000   0.000000   0.000000 )  
               a(2) = (   0.000000   1.000000   0.000000 )  
               a(3) = (   0.000000   0.000000   1.000000 )  

     reciprocal axes: (cart. coord. in units 2 pi/alat)
               b(1) = (  1.000000  0.000000  0.000000 )  
               b(2) = (  0.000000  1.000000  0.000000 )  
               b(3) = (  0.000000  0.000000  1.000000 )  


     PseudoPot. # 1 for C  read from file:
     /home/andreo/PWSCF/espresso-6.1-Environ-1.0/Environ/tests/../..//pseudo/C.pbe-rrkjus.UPF
     MD5 check sum: 00fb224312de0c5b6853bd333518df6f
     Pseudo is Ultrasoft, Zval =  4.0
     Generated by new atomic code, or converted to UPF format
     Using radial grid of  627 points,  4 beta functions with: 
                l(1) =   0
                l(2) =   0
                l(3) =   1
                l(4) =   1
     Q(r) pseudized with 0 coefficients 


     PseudoPot. # 2 for H  read from file:
     /home/andreo/PWSCF/espresso-6.1-Environ-1.0/Environ/tests/../..//pseudo/H.pbe-rrkjus.UPF
     MD5 check sum: 7cc9d459525c9a0585f487a71c3c9563
     Pseudo is Ultrasoft, Zval =  1.0
     Generated by new atomic code, or converted to UPF format
     Using radial grid of 1061 points,  2 beta functions with: 
                l(1) =   0
                l(2) =   0
     Q(r) pseudized with 0 coefficients 


     PseudoPot. # 3 for N  read from file:
     /home/andreo/PWSCF/espresso-6.1-Environ-1.0/Environ/tests/../..//pseudo/N.pbe-rrkjus.UPF
     MD5 check sum: 0c3fbe5807a93f9ba59d5a7019aa238b
     Pseudo is Ultrasoft, Zval =  5.0
     Generated by new atomic code, or converted to UPF format
     Using radial grid of 1257 points,  4 beta functions with: 
                l(1) =   0
                l(2) =   0
                l(3) =   1
                l(4) =   1
     Q(r) pseudized with 0 coefficients 


     PseudoPot. # 4 for O  read from file:
     /home/andreo/PWSCF/espresso-6.1-Environ-1.0/Environ/tests/../..//pseudo/O.pbe-rrkjus.UPF
     MD5 check sum: 390ba29e75625707450f3bd3f0eb6be9
     Pseudo is Ultrasoft, Zval =  6.0
     Generated by new atomic code, or converted to UPF format
     Using radial grid of 1269 points,  4 beta functions with: 
                l(1) =   0
                l(2) =   0
                l(3) =   1
                l(4) =   1
     Q(r) pseudized with 0 coefficients 


     atomic species   valence    mass     pseudopotential
        C              4.00    12.00000     C ( 1.00)
        H              1.00     1.00000     H ( 1.00)
        N              5.00    14.00000     N ( 1.00)
        O              6.00    16.00000     O ( 1.00)

     No symmetry found



   Cartesian axes

     site n.     atom                  positions (alat units)
         1           C   tau(   1) = (   0.0000000   0.0000000   0.0000000  )
         2           C   tau(   2) = (   0.0000000   0.0000000   0.1455089  )
         3           N   tau(   3) = (   0.1170969   0.0000000  -0.0545024  )
         4           H   tau(   4) = (   0.0476617  -0.0825466   0.1792090  )
         5           H   tau(   5) = (  -0.0953183  -0.0000030   0.1792090  )
         6           H   tau(   6) = (   0.0476566   0.0825496   0.1792090  )
         7           O   tau(   7) = (  -0.0984002  -0.0000019  -0.0641310  )
         8           H   tau(   8) = (   0.1263131  -0.0000015  -0.1475548  )
         9           H   tau(   9) = (   0.1944645   0.0000134  -0.0025716  )
        10           H   tau(  10) = (  -0.0770366  -0.0000045  -0.1522861  )

     number of k points=     1
                       cart. coord. in units 2pi/alat
        k(    1) = (   0.0000000   0.0000000   0.0000000), wk =   2.0000000

     Dense  grid:   350738 G-vectors     FFT dimensions: ( 120, 120, 120)

     Smooth grid:    88755 G-vectors     FFT dimensions: (  72,  72,  72)

     Estimated max dynamical RAM per process >     298.98MB

     Initial potential from superposition of free atoms
     Check: negative starting charge=   -0.000452

     starting charge   24.42266, renormalised to   24.00000

     negative rho (up, down):  4.438E-04 0.000E+00
     Starting wfc are   22 randomized atomic wfcs

     total cpu time spent up to now is       15.8 secs

     per-process dynamical memory:   529.9 Mb

     Self-consistent Calculation

     iteration #  1     ecut=    30.00 Ry     beta=0.70
     Davidson diagonalization with overlap
     ethr =  1.00E-02,  avg # of iterations =  2.0

     negative rho (up, down):  1.277E-04 0.000E+00

     add environment contribution to local potential
     polarization accuracy = 3.5E-06, # of iterations =  18

     total cpu time spent up to now is       20.1 secs

     total energy              =     -80.23660198 Ry
     Harris-Foulkes estimate   =     -83.01879009 Ry
     estimated scf accuracy    <       3.73442311 Ry
     electrostatic embedding   =       0.00242983 Ry
     correction to one-el term =       0.00000000 Ry

     iteration #  2     ecut=    30.00 Ry     beta=0.70
     Davidson diagonalization with overlap
     ethr =  1.00E-02,  avg # of iterations =  4.0

     negative rho (up, down):  7.190E-04 0.000E+00

     add environment contribution to local potential
     polarization accuracy = 7.3E-06, # of iterations =  17

     total cpu time spent up to now is       24.4 secs

     total energy              =     -81.01537603 Ry
     Harris-Foulkes estimate   =     -75.67872783 Ry
     estimated scf accuracy    <       1.58000107 Ry
     electrostatic embedding   =      -0.20341554 Ry
     correction to one-el term =      -5.97249673 Ry

     iteration #  3     ecut=    30.00 Ry     beta=0.70
     Davidson diagonalization with overlap
     ethr =  6.58E-03,  avg # of iterations =  3.0

     negative rho (up, down):  2.647E-04 0.000E+00

     add environment contribution to local potential
     polarization accuracy = 3.5E-06, # of iterations =  18

     total cpu time spent up to now is       28.6 secs

     total energy              =     -81.37032695 Ry
     Harris-Foulkes estimate   =     -75.92847536 Ry
     estimated scf accuracy    <       0.18943069 Ry
     electrostatic embedding   =      -0.17080354 Ry
     correction to one-el term =      -5.37481737 Ry

     iteration #  4     ecut=    30.00 Ry     beta=0.70
     Davidson diagonalization with overlap
     ethr =  7.89E-04,  avg # of iterations =  4.0

     negative rho (up, down):  1.171E-04 0.000E+00

     add environment contribution to local potential
     polarization accuracy = 5.7E-06, # of iterations =  17

     total cpu time spent up to now is       32.7 secs

     total energy              =     -81.40917094 Ry
     Harris-Foulkes estimate   =     -76.35871251 Ry
     estimated scf accuracy    <       0.02186605 Ry
     electrostatic embedding   =      -0.14544740 Ry
     correction to one-el term =      -4.91626852 Ry

     iteration #  5     ecut=    30.00 Ry     beta=0.70
     Davidson diagonalization with overlap
     ethr =  9.11E-05,  avg # of iterations =  4.0

     negative rho (up, down):  2.672E-04 0.000E+00

     total cpu time spent up to now is       34.6 secs

     End of self-consistent calculation

          k = 0.0000 0.0000 0.0000 ( 11060 PWs)   bands (ev):

   -28.8750 -23.0511 -18.5007 -15.9405 -14.6083 -13.3270 -11.5581 -10.8624
    -9.3972  -9.3897  -9.2493  -7.3013

     highest occupied level (ev):    -7.3013

!    total energy              =     -81.40673787 Ry
     Harris-Foulkes estimate   =     -76.78348050 Ry
     estimated scf accuracy    <       0.00174026 Ry

     The total energy is the sum of the following terms:

     one-electron contribution =    -240.91174876 Ry
     hartree contribution      =     122.71286128 Ry
     xc contribution           =     -22.89112715 Ry
     ewald contribution        =      64.30784006 Ry
     electrostatic embedding   =      -0.13812671 Ry
     correction to one-el term =      -4.48643659 Ry

     convergence has been achieved in   5 iterations

     Forces acting on atoms (cartesian axes, Ry/au):

     atom    1 type  1   force =     0.22556254   -0.00001113    0.10483499
     atom    2 type  1   force =    -0.03368602   -0.00002868   -0.08419031
     atom    3 type  3   force =    -0.14405398   -0.00003401    0.04737345
     atom    4 type  2   force =     0.01986182   -0.03113078    0.00847425
     atom    5 type  2   force =    -0.03527699    0.00001242    0.01204705
     atom    6 type  2   force =     0.01986659    0.03117276    0.00848075
     atom    7 type  4   force =    -0.09471930   -0.00005832   -0.00696334
     atom    8 type  2   force =     0.00655217    0.00002594   -0.05489022
     atom    9 type  2   force =     0.04255851    0.00002705    0.04053073
     atom   10 type  2   force =    -0.00666534    0.00002474   -0.07569735

     Total force =     0.344464     Total SCF correction =     0.099051
     SCF correction compared to forces is large: reduce conv_thr to get better values

     Writing output data file pwscf.save
 
     init_run     :     15.23s CPU     15.71s WALL (       1 calls)
     electrons    :     17.88s CPU     22.53s WALL (       1 calls)
     forces       :     17.12s CPU     17.24s WALL (       1 calls)

     Called by init_run:
     wfcinit      :      0.13s CPU      0.13s WALL (       1 calls)
     potinit      :      1.00s CPU      1.06s WALL (       1 calls)

     Called by electrons:
     c_bands      :      1.16s CPU      1.16s WALL (       5 calls)
     sum_band     :      3.29s CPU      3.52s WALL (       5 calls)
     v_of_rho     :      3.74s CPU      3.83s WALL (       6 calls)
     newd         :      1.70s CPU      1.92s WALL (       6 calls)
     mix_rho      :      0.36s CPU      0.36s WALL (       5 calls)

     Called by c_bands:
     init_us_2    :      0.04s CPU      0.04s WALL (      11 calls)
     regterg      :      1.08s CPU      1.08s WALL (       5 calls)

     Called by sum_band:
     sum_band:bec :      0.00s CPU      0.00s WALL (       5 calls)
     addusdens    :      2.50s CPU      2.74s WALL (       5 calls)

     Called by *egterg:
     h_psi        :      1.06s CPU      1.06s WALL (      23 calls)
     s_psi        :      0.02s CPU      0.03s WALL (      23 calls)
     g_psi        :      0.01s CPU      0.01s WALL (      17 calls)
     rdiaghg      :      0.00s CPU      0.01s WALL (      22 calls)

     Called by h_psi:
     h_psi:pot    :      1.05s CPU      1.05s WALL (      23 calls)
     h_psi:calbec :      0.04s CPU      0.04s WALL (      23 calls)
     vloc_psi     :      0.99s CPU      0.99s WALL (      23 calls)
     add_vuspsi   :      0.02s CPU      0.03s WALL (      23 calls)

     General routines
     calbec       :      0.07s CPU      0.06s WALL (      32 calls)
     fft          :      7.28s CPU      7.41s WALL (     257 calls)
     ffts         :      0.06s CPU      0.06s WALL (      11 calls)
     fftw         :      0.87s CPU      0.86s WALL (     244 calls)
     interpolate  :      0.44s CPU      0.44s WALL (      11 calls)
     davcio       :      0.00s CPU      0.00s WALL (       1 calls)
 
     Parallel routines
     fft_scatter  :      1.57s CPU      1.67s WALL (     512 calls)
 
     Environ routines
     calc_eelect  :      0.01s CPU      0.01s WALL (      10 calls)
     calc_velect  :      7.92s CPU      8.38s WALL (       8 calls)
     dielectric   :      0.13s CPU      0.13s WALL (       2 calls)
     calc_felect  :      0.33s CPU      0.34s WALL (       1 calls)
 
     PWSCF        :  0m50.48s CPU     1m 0.44s WALL

 
   This run was terminated on:  14:42:17  14Nov2017            

=------------------------------------------------------------------------------=
   JOB DONE.
=------------------------------------------------------------------------------=

%%%% IONS %%%%%%%%%%%%%%%%%%%%%%%%%%%%%%%%%%%%%%%%%%%%%%%%%%%%%%%%%%%%%%%%%%%%%%
 number of ions             =         10
 ionic center of charge     =      0.0095530    -0.0000002     0.0063981
 total ionic charge         =    -25.0000000
 ionic dipole               =      0.0000000     0.0000000     0.0000000
 ionic quadrupole (pc)      =    -79.0828058    -5.4513517  -105.8059629
 ionic quadrupole (gauss)   =    -82.2078058    -8.5763517  -108.9309629
 ion   1 type =  1 coordinates =      0.0000000     0.0000000     0.0000000
 ion   2 type =  1 coordinates =      0.0000000     0.0000000     2.9101782
 ion   3 type =  3 coordinates =      2.3419379     0.0000000    -1.0900479
 ion   4 type =  2 coordinates =      0.9532347    -1.6509323     3.5841800
 ion   5 type =  2 coordinates =     -1.9063663    -0.0000596     3.5841809
 ion   6 type =  2 coordinates =      0.9531315     1.6509919     3.5841800
 ion   7 type =  4 coordinates =     -1.9680045    -0.0000375    -1.2826193
 ion   8 type =  2 coordinates =      2.5262613    -0.0000303    -2.9510950
 ion   9 type =  2 coordinates =      3.8892907     0.0002681    -0.0514326
 ion  10 type =  2 coordinates =     -1.5407317    -0.0000890    -3.0457220

%%%% SYSTEM %%%%%%%%%%%%%%%%%%%%%%%%%%%%%%%%%%%%%%%%%%%%%%%%%%%%%%%%%%%%%%%%%%%%
 system is built from all present ionic types
 system defined dimension   =  0 
 system defined axis        =  3 
 system center              =      0.0095530    -0.0000002     0.0063981 
 system width               =      0.5223840 

%%%% BOUNDARY %%%%%%%%%%%%%%%%%%%%%%%%%%%%%%%%%%%%%%%%%%%%%%%%%%%%%%%%%%%%%%%%%%
 boundary mode              = ionic                
 boundary is built from soft-spheres centered on ionic positions
 solvent-dependent scaling  =      1.0000000 
 softness parameter         =      0.5000000 
 volume of the QM region    =    609.3920716 
 surface of the QM region   =    383.1651442 

%%%% DIELECTRIC %%%%%%%%%%%%%%%%%%%%%%%%%%%%%%%%%%%%%%%%%%%%%%%%%%%%%%%%%%%%%%%%%
 dielectric build on homogeneous background
 environment bulk permitt.  =    100.0000000 
 dielectric flags
 need gradient              =  F 
 need factor depend. sqrt   =  T 
 need gradient of logarithm =  T 

%%%% ELECTRONS %%%%%%%%%%%%%%%%%%%%%%%%%%%%%%%%%%%%%%%%%%%%%%%%%%%%%%%%%%%%%%%%%
 number of electrons        =         24
 total electronic charge    =     24.0000000
 number of spin components  =  1

%%%% COMPUTE ELECTROSTATIC POTENTIAL %%%%%%%%%%%%%%%%%%%%%%%%%%%%%%%%%%%%%%%%%%%
 Iteration #          1
  pAp =    95.4218310326133       rzold =    89.2010667691854       alpha = 
  0.934807745815507     
 delta_qm =   0.319336E-01 delta_en =   0.176214E+04 tol =   0.100000E-04
 Iteration #          2
  pAp =    606.163865133467       rzold =    55.8115100040072       alpha = 
  9.207330428995200E-002
 delta_qm =   0.435098E-02 delta_en =   0.327128E+02 tol =   0.100000E-04
 Iteration #          3
  pAp =    2.10451119990339       rzold =   0.393840853767023       alpha = 
  0.187141248659120     
 delta_qm =   0.195693E-02 delta_en =   0.661751E+01 tol =   0.100000E-04
 Iteration #          4
  pAp =   0.310128524079056       rzold =   4.673168510648372E-002  alpha = 
  0.150684898286141     
 delta_qm =   0.142397E-02 delta_en =   0.350386E+01 tol =   0.100000E-04
 Iteration #          5
  pAp =   3.266099344877440E-002  rzold =   8.215188820629188E-003  alpha = 
  0.251529055094846     
 delta_qm =   0.946608E-03 delta_en =   0.154840E+01 tol =   0.100000E-04
 Iteration #          6
  pAp =   8.332488450619265E-003  rzold =   2.907062995993989E-003  alpha = 
  0.348882931338229     
 delta_qm =   0.492900E-03 delta_en =   0.419818E+00 tol =   0.100000E-04
 Iteration #          7
  pAp =   5.112679920184195E-003  rzold =   1.147936985838281E-003  alpha = 
  0.224527450135569     
 delta_qm =   0.327525E-03 delta_en =   0.185368E+00 tol =   0.100000E-04
 Iteration #          8
  pAp =   1.869737665598687E-003  rzold =   4.737700441276673E-004  alpha = 
  0.253388511578156     
 delta_qm =   0.238001E-03 delta_en =   0.978818E-01 tol =   0.100000E-04
 Iteration #          9
  pAp =   2.757031802815141E-004  rzold =   1.621893931494107E-004  alpha = 
  0.588275380007597     
 delta_qm =   0.145822E-03 delta_en =   0.367444E-01 tol =   0.100000E-04
 Iteration #         10
  pAp =   3.387257199687369E-004  rzold =   1.331107422755492E-004  alpha = 
  0.392975007294500     
 delta_qm =   0.709418E-04 delta_en =   0.869657E-02 tol =   0.100000E-04
 Iteration #         11
  pAp =   9.087031329579667E-005  rzold =   3.259188751900324E-005  alpha = 
  0.358663752076123     
 delta_qm =   0.450482E-04 delta_en =   0.350670E-02 tol =   0.100000E-04
 Iteration #         12
  pAp =   1.690205664952893E-005  rzold =   5.748601775163903E-006  alpha = 
  0.340112561113923     
 delta_qm =   0.290665E-04 delta_en =   0.145993E-02 tol =   0.100000E-04
 Iteration #         13
  pAp =   4.503206117841439E-006  rzold =   1.822357210105067E-006  alpha = 
  0.404679946335344     
 delta_qm =   0.187945E-04 delta_en =   0.610387E-03 tol =   0.100000E-04
 Iteration #         14
  pAp =   3.060369546271930E-006  rzold =   1.056989310373544E-006  alpha = 
  0.345379632881638     
 delta_qm =   0.119453E-04 delta_en =   0.246570E-03 tol =   0.100000E-04
 Iteration #         15
  pAp =   1.231210469078457E-006  rzold =   4.225721503612063E-007  alpha = 
  0.343216826833430     
 delta_qm =   0.761691E-05 delta_en =   0.100254E-03 tol =   0.100000E-04
 Iteration #         16
  pAp =   5.964582987487851E-007  rzold =   1.744688181309823E-007  alpha = 
  0.292507990075706     
 delta_qm =   0.523295E-05 delta_en =   0.473191E-04 tol =   0.100000E-04
 Iteration #         17
  pAp =   2.234450472592852E-007  rzold =   8.007126988431428E-008  alpha = 
  0.358348823867193     
 delta_qm =   0.277311E-05 delta_en =   0.132885E-04 tol =   0.100000E-04
 Iteration #         18
  pAp =   5.840174353568908E-008  rzold =   2.497105216471301E-008  alpha = 
  0.427573744428594     
 delta_qm =   0.142055E-05 delta_en =   0.348702E-05 tol =   0.100000E-04
 Charges are converged, EXIT

%%%% ELECTRONS %%%%%%%%%%%%%%%%%%%%%%%%%%%%%%%%%%%%%%%%%%%%%%%%%%%%%%%%%%%%%%%%%
 number of electrons        =         24
 total electronic charge    =     24.0000000
 number of spin components  =  1

%%%% COMPUTE ELECTROSTATIC POTENTIAL %%%%%%%%%%%%%%%%%%%%%%%%%%%%%%%%%%%%%%%%%%%
 Warning: bad guess with residual norm =   0.127057E+04, reset to no guess
 Iteration #          1
  pAp =    98.8691684543414       rzold =    93.2687984168111       alpha = 
  0.943355748560618     
 delta_qm =   0.306214E-01 delta_en =   0.162029E+04 tol =   0.100000E-04
 Iteration #          2
  pAp =    561.359115234817       rzold =    51.3736282312999       alpha = 
  9.151651204560973E-002
 delta_qm =   0.382283E-02 delta_en =   0.252530E+02 tol =   0.100000E-04
 Iteration #          3
  pAp =    1.96426708416194       rzold =   0.311175088029426       alpha = 
  0.158417910954401     
 delta_qm =   0.190904E-02 delta_en =   0.629760E+01 tol =   0.100000E-04
 Iteration #          4
  pAp =   0.262284266942627       rzold =   3.969732893714965E-002  alpha = 
  0.151352307173778     
 delta_qm =   0.145126E-02 delta_en =   0.363944E+01 tol =   0.100000E-04
 Iteration #          5
  pAp =   1.879185329111898E-002  rzold =   6.053195425162757E-003  alpha = 
  0.322118065280102     
 delta_qm =   0.895454E-03 delta_en =   0.138558E+01 tol =   0.100000E-04
 Iteration #          6
  pAp =   9.204207117879464E-003  rzold =   2.878142991641803E-003  alpha = 
  0.312698633872647     
 delta_qm =   0.471660E-03 delta_en =   0.384416E+00 tol =   0.100000E-04
 Iteration #          7
  pAp =   5.427212751950685E-003  rzold =   1.116178871536162E-003  alpha = 
  0.205663371338258     
 delta_qm =   0.341375E-03 delta_en =   0.201376E+00 tol =   0.100000E-04
 Iteration #          8
  pAp =   1.214261013477828E-003  rzold =   4.167992722335579E-004  alpha = 
  0.343253441893668     
 delta_qm =   0.238342E-03 delta_en =   0.981621E-01 tol =   0.100000E-04
 Iteration #          9
  pAp =   3.589742264483191E-004  rzold =   2.030831493412744E-004  alpha = 
  0.565731839164537     
 delta_qm =   0.136496E-03 delta_en =   0.321945E-01 tol =   0.100000E-04
 Iteration #         10
  pAp =   3.709230871251418E-004  rzold =   1.330110096597730E-004  alpha = 
  0.358594582749436     
 delta_qm =   0.645599E-04 delta_en =   0.720226E-02 tol =   0.100000E-04
 Iteration #         11
  pAp =   6.353242602993018E-005  rzold =   2.294575032875488E-005  alpha = 
  0.361165970868878     
 delta_qm =   0.442960E-04 delta_en =   0.339058E-02 tol =   0.100000E-04
 Iteration #         12
  pAp =   1.261842777293452E-005  rzold =   4.730247530046242E-006  alpha = 
  0.374868217749935     
 delta_qm =   0.279558E-04 delta_en =   0.135048E-02 tol =   0.100000E-04
 Iteration #         13
  pAp =   2.717039587913377E-006  rzold =   1.479706537665640E-006  alpha = 
  0.544602494659277     
 delta_qm =   0.153654E-04 delta_en =   0.407975E-03 tol =   0.100000E-04
 Iteration #         14
  pAp =   2.176192211781854E-006  rzold =   7.230727295927608E-007  alpha = 
  0.332265103090647     
 delta_qm =   0.105197E-04 delta_en =   0.191229E-03 tol =   0.100000E-04
 Iteration #         15
  pAp =   1.619734660889353E-006  rzold =   4.349421195979006E-007  alpha = 
  0.268526771760929     
 delta_qm =   0.694153E-05 delta_en =   0.832635E-04 tol =   0.100000E-04
 Iteration #         16
  pAp =   2.300115340527095E-007  rzold =   1.053573407179903E-007  alpha = 
  0.458052423987775     
 delta_qm =   0.362540E-05 delta_en =   0.227120E-04 tol =   0.100000E-04
 Iteration #         17
  pAp =   1.073047322553430E-007  rzold =   4.072438926110311E-008  alpha = 
  0.379520906535558     
 delta_qm =   0.205428E-05 delta_en =   0.729230E-05 tol =   0.100000E-04
 Charges are converged, EXIT

%%%% ELECTRONS %%%%%%%%%%%%%%%%%%%%%%%%%%%%%%%%%%%%%%%%%%%%%%%%%%%%%%%%%%%%%%%%%
 number of electrons        =         24
 total electronic charge    =     24.0000000
 number of spin components  =  1

%%%% COMPUTE ELECTROSTATIC POTENTIAL %%%%%%%%%%%%%%%%%%%%%%%%%%%%%%%%%%%%%%%%%%%
 Warning: bad guess with residual norm =   0.128582E+04, reset to no guess
 Iteration #          1
  pAp =    98.2613195523505       rzold =    93.7828020322743       alpha = 
  0.954422375554502     
 delta_qm =   0.275058E-01 delta_en =   0.130735E+04 tol =   0.100000E-04
 Iteration #          2
  pAp =    465.580301567961       rzold =    42.0747430490402       alpha = 
  9.037053953387345E-002
 delta_qm =   0.358355E-02 delta_en =   0.221907E+02 tol =   0.100000E-04
 Iteration #          3
  pAp =    1.47715354296241       rzold =   0.250941870359163       alpha = 
  0.169882048859933     
 delta_qm =   0.180129E-02 delta_en =   0.560673E+01 tol =   0.100000E-04
 Iteration #          4
  pAp =   0.247742497576625       rzold =   3.678123927598151E-002  alpha = 
  0.148465602937604     
 delta_qm =   0.135733E-02 delta_en =   0.318358E+01 tol =   0.100000E-04
 Iteration #          5
  pAp =   1.798933724607820E-002  rzold =   5.525290333367038E-003  alpha = 
  0.307142517691784     
 delta_qm =   0.863695E-03 delta_en =   0.128903E+01 tol =   0.100000E-04
 Iteration #          6
  pAp =   6.346442271893345E-003  rzold =   2.330308880599092E-003  alpha = 
  0.367183499158165     
 delta_qm =   0.434726E-03 delta_en =   0.326569E+00 tol =   0.100000E-04
 Iteration #          7
  pAp =   1.728433913519504E-003  rzold =   6.378483459408776E-004  alpha = 
  0.369032533411744     
 delta_qm =   0.279618E-03 delta_en =   0.135105E+00 tol =   0.100000E-04
 Iteration #          8
  pAp =   7.241587894915973E-004  rzold =   2.618780679141053E-004  alpha = 
  0.361630724799956     
 delta_qm =   0.202432E-03 delta_en =   0.708115E-01 tol =   0.100000E-04
 Iteration #          9
  pAp =   9.301926434845894E-004  rzold =   2.732805402627869E-004  alpha = 
  0.293789186763564     
 delta_qm =   0.129145E-03 delta_en =   0.288202E-01 tol =   0.100000E-04
 Iteration #         10
  pAp =   4.008800087512403E-004  rzold =   1.306565596183868E-004  alpha = 
  0.325924358327041     
 delta_qm =   0.630333E-04 delta_en =   0.686568E-02 tol =   0.100000E-04
 Iteration #         11
  pAp =   7.393592768907607E-005  rzold =   2.449910913120885E-005  alpha = 
  0.331355944220181     
 delta_qm =   0.447442E-04 delta_en =   0.345953E-02 tol =   0.100000E-04
 Iteration #         12
  pAp =   1.580220967418113E-005  rzold =   5.309374328570243E-006  alpha = 
  0.335989360857875     
 delta_qm =   0.292638E-04 delta_en =   0.147981E-02 tol =   0.100000E-04
 Iteration #         13
  pAp =   4.125282636692018E-006  rzold =   1.741606781568836E-006  alpha = 
  0.422178777783186     
 delta_qm =   0.181291E-04 delta_en =   0.567935E-03 tol =   0.100000E-04
 Iteration #         14
  pAp =   2.782891471584987E-006  rzold =   1.036892877571774E-006  alpha = 
  0.372595513752182     
 delta_qm =   0.112023E-04 delta_en =   0.216850E-03 tol =   0.100000E-04
 Iteration #         15
  pAp =   8.703108510080873E-007  rzold =   3.554729309088376E-007  alpha = 
  0.408443638841330     
 delta_qm =   0.658108E-05 delta_en =   0.748407E-04 tol =   0.100000E-04
 Iteration #         16
  pAp =   2.886185972290882E-007  rzold =   1.091706502899547E-007  alpha = 
  0.378252307155736     
 delta_qm =   0.405465E-05 delta_en =   0.284087E-04 tol =   0.100000E-04
 Iteration #         17
  pAp =   2.256517969504090E-007  rzold =   5.913611366708243E-008  alpha = 
  0.262067993547061     
 delta_qm =   0.246902E-05 delta_en =   0.105340E-04 tol =   0.100000E-04
 Iteration #         18
  pAp =   6.289665051034600E-008  rzold =   2.236642027170263E-008  alpha = 
  0.355605904133536     
 delta_qm =   0.141665E-05 delta_en =   0.346792E-05 tol =   0.100000E-04
 Charges are converged, EXIT

%%%% ELECTRONS %%%%%%%%%%%%%%%%%%%%%%%%%%%%%%%%%%%%%%%%%%%%%%%%%%%%%%%%%%%%%%%%%
 number of electrons        =         24
 total electronic charge    =     24.0000000
 number of spin components  =  1

%%%% COMPUTE ELECTROSTATIC POTENTIAL %%%%%%%%%%%%%%%%%%%%%%%%%%%%%%%%%%%%%%%%%%%
 Warning: bad guess with residual norm =   0.133561E+04, reset to no guess
 Iteration #          1
  pAp =    97.4582675893173       rzold =    93.5665538900089       alpha = 
  0.960067895771472     
 delta_qm =   0.257287E-01 delta_en =   0.114388E+04 tol =   0.100000E-04
 Iteration #          2
  pAp =    406.202630775562       rzold =    36.6587191561263       alpha = 
  9.024737010229070E-002
 delta_qm =   0.369378E-02 delta_en =   0.235768E+02 tol =   0.100000E-04
 Iteration #          3
  pAp =    1.65346919713766       rzold =   0.278150961118561       alpha = 
  0.168222644606910     
 delta_qm =   0.177211E-02 delta_en =   0.542655E+01 tol =   0.100000E-04
 Iteration #          4
  pAp =   0.274243559792052       rzold =   4.029861387762506E-002  alpha = 
  0.146944613423856     
 delta_qm =   0.131778E-02 delta_en =   0.300073E+01 tol =   0.100000E-04
 Iteration #          5
  pAp =   1.883342923607038E-002  rzold =   5.555832614481220E-003  alpha = 
  0.294998459645390     
 delta_qm =   0.860769E-03 delta_en =   0.128032E+01 tol =   0.100000E-04
 Iteration #          6
  pAp =   5.938238194208217E-003  rzold =   2.202584415295352E-003  alpha = 
  0.370915470760943     
 delta_qm =   0.448351E-03 delta_en =   0.347359E+00 tol =   0.100000E-04
 Iteration #          7
  pAp =   2.225595832616999E-003  rzold =   7.165607026872752E-004  alpha = 
  0.321963535420848     
 delta_qm =   0.297109E-03 delta_en =   0.152537E+00 tol =   0.100000E-04
 Iteration #          8
  pAp =   1.607090113492588E-003  rzold =   3.836679548866918E-004  alpha = 
  0.238734562340683     
 delta_qm =   0.224486E-03 delta_en =   0.870806E-01 tol =   0.100000E-04
 Iteration #          9
  pAp =   4.649350908093841E-004  rzold =   2.167041776853507E-004  alpha = 
  0.466095551764227     
 delta_qm =   0.131990E-03 delta_en =   0.301040E-01 tol =   0.100000E-04
 Iteration #         10
  pAp =   3.209684632587433E-004  rzold =   1.204201895215248E-004  alpha = 
  0.375177636765049     
 delta_qm =   0.620670E-04 delta_en =   0.665680E-02 tol =   0.100000E-04
 Iteration #         11
  pAp =   7.433434161378251E-005  rzold =   2.450301297187491E-005  alpha = 
  0.329632474572584     
 delta_qm =   0.442056E-04 delta_en =   0.337674E-02 tol =   0.100000E-04
 Iteration #         12
  pAp =   1.657578395564140E-005  rzold =   5.436333912594309E-006  alpha = 
  0.327968434382502     
 delta_qm =   0.289832E-04 delta_en =   0.145157E-02 tol =   0.100000E-04
 Iteration #         13
  pAp =   3.928221415089733E-006  rzold =   1.679727924722860E-006  alpha = 
  0.427605205315162     
 delta_qm =   0.179633E-04 delta_en =   0.557590E-03 tol =   0.100000E-04
 Iteration #         14
  pAp =   2.670823165006164E-006  rzold =   1.001108651228110E-006  alpha = 
  0.374831499271424     
 delta_qm =   0.111352E-04 delta_en =   0.214260E-03 tol =   0.100000E-04
 Iteration #         15
  pAp =   8.669723612934900E-007  rzold =   3.579489347663780E-007  alpha = 
  0.412872371424081     
 delta_qm =   0.639692E-05 delta_en =   0.707108E-04 tol =   0.100000E-04
 Iteration #         16
  pAp =   2.157572992427593E-007  rzold =   9.766298466012687E-008  alpha = 
  0.452652053964772     
 delta_qm =   0.357095E-05 delta_en =   0.220349E-04 tol =   0.100000E-04
 Iteration #         17
  pAp =   7.196046796158238E-008  rzold =   3.233880099226483E-008  alpha = 
  0.449396757807767     
 delta_qm =   0.181086E-05 delta_en =   0.566646E-05 tol =   0.100000E-04
 Charges are converged, EXIT

%%%% ELECTRONS %%%%%%%%%%%%%%%%%%%%%%%%%%%%%%%%%%%%%%%%%%%%%%%%%%%%%%%%%%%%%%%%%
 number of electrons        =         24
 total electronic charge    =     24.0000000
 number of spin components  =  1
