
     Program PWSCF v.6.1 (svn rev. 13369) starts on 14Nov2017 at 14:44:32 

     This program is part of the open-source Quantum ESPRESSO suite
     for quantum simulation of materials; please cite
         "P. Giannozzi et al., J. Phys.:Condens. Matter 21 395502 (2009);
          URL http://www.quantum-espresso.org", 
     in publications or presentations arising from this work. More details at
     http://www.quantum-espresso.org/quote

     Parallel version (MPI), running on     1 processors
     Reading input from charged.in

     Current dimensions of program PWSCF are:
     Max number of different atomic species (ntypx) = 10
     Max number of k-points (npk) =  40000
     Max angular momentum in pseudopotentials (lmaxx) =  3
               file C.pbe-rrkjus.UPF: wavefunction(s)  2S 2P renormalized
               file H.pbe-rrkjus.UPF: wavefunction(s)  1S renormalized
               file N.pbe-rrkjus.UPF: wavefunction(s)  2S renormalized
               file O.pbe-rrkjus.UPF: wavefunction(s)  2S renormalized

     gamma-point specific algorithms are used

     Subspace diagonalization in iterative solution of the eigenvalue problem:
     a serial algorithm will be used

 
     G-vector sticks info
     --------------------
     sticks:   dense  smooth     PW     G-vecs:    dense   smooth      PW
     Sum        9549    3809    949               701475   177509   22119
 


     bravais-lattice index     =            1
     lattice parameter (alat)  =      20.0000  a.u.
     unit-cell volume          =    8000.0000 (a.u.)^3
     number of atoms/cell      =           10
     number of atomic types    =            4
     number of electrons       =        24.00
     number of Kohn-Sham states=           12
     kinetic-energy cutoff     =      30.0000  Ry
     charge density cutoff     =     300.0000  Ry
     convergence threshold     =      5.0E-03
     mixing beta               =       0.7000
     number of iterations used =            8  plain     mixing
     Exchange-correlation      =  SLA  PW   PBE  PBE ( 1  4  3  4 0 0)
 

     Environ Module
     ==============

     Plese cite
         O. Andreussi, I. Dabo and N. Marzari, J. Chem. Phys. 136, 064102 (2012)         
     in publications or presentations arising from this work.

     compensation onset threshold      =               0.1000E+03 
     static permittivity               =                   100.00 
     epsilon calculation mode          =                   system 

     Electrostatic Setup
     -------------------
     electrostatic problem to solve    = generalized              
     numerical solver adopted          = iterative                
     type of auxiliary density adopted = full                     
     type of core tool for poisson     = fft                      
     type of core tool for s(r) deriv  = analytic                 



     celldm(1)=  20.000000  celldm(2)=   0.000000  celldm(3)=   0.000000
     celldm(4)=   0.000000  celldm(5)=   0.000000  celldm(6)=   0.000000

     crystal axes: (cart. coord. in units of alat)
               a(1) = (   1.000000   0.000000   0.000000 )  
               a(2) = (   0.000000   1.000000   0.000000 )  
               a(3) = (   0.000000   0.000000   1.000000 )  

     reciprocal axes: (cart. coord. in units 2 pi/alat)
               b(1) = (  1.000000  0.000000  0.000000 )  
               b(2) = (  0.000000  1.000000  0.000000 )  
               b(3) = (  0.000000  0.000000  1.000000 )  


     PseudoPot. # 1 for C  read from file:
     /home/andreo/PWSCF/espresso-6.1-Environ-1.0/Environ/tests/../..//pseudo/C.pbe-rrkjus.UPF
     MD5 check sum: 00fb224312de0c5b6853bd333518df6f
     Pseudo is Ultrasoft, Zval =  4.0
     Generated by new atomic code, or converted to UPF format
     Using radial grid of  627 points,  4 beta functions with: 
                l(1) =   0
                l(2) =   0
                l(3) =   1
                l(4) =   1
     Q(r) pseudized with 0 coefficients 


     PseudoPot. # 2 for H  read from file:
     /home/andreo/PWSCF/espresso-6.1-Environ-1.0/Environ/tests/../..//pseudo/H.pbe-rrkjus.UPF
     MD5 check sum: 7cc9d459525c9a0585f487a71c3c9563
     Pseudo is Ultrasoft, Zval =  1.0
     Generated by new atomic code, or converted to UPF format
     Using radial grid of 1061 points,  2 beta functions with: 
                l(1) =   0
                l(2) =   0
     Q(r) pseudized with 0 coefficients 


     PseudoPot. # 3 for N  read from file:
     /home/andreo/PWSCF/espresso-6.1-Environ-1.0/Environ/tests/../..//pseudo/N.pbe-rrkjus.UPF
     MD5 check sum: 0c3fbe5807a93f9ba59d5a7019aa238b
     Pseudo is Ultrasoft, Zval =  5.0
     Generated by new atomic code, or converted to UPF format
     Using radial grid of 1257 points,  4 beta functions with: 
                l(1) =   0
                l(2) =   0
                l(3) =   1
                l(4) =   1
     Q(r) pseudized with 0 coefficients 


     PseudoPot. # 4 for O  read from file:
     /home/andreo/PWSCF/espresso-6.1-Environ-1.0/Environ/tests/../..//pseudo/O.pbe-rrkjus.UPF
     MD5 check sum: 390ba29e75625707450f3bd3f0eb6be9
     Pseudo is Ultrasoft, Zval =  6.0
     Generated by new atomic code, or converted to UPF format
     Using radial grid of 1269 points,  4 beta functions with: 
                l(1) =   0
                l(2) =   0
                l(3) =   1
                l(4) =   1
     Q(r) pseudized with 0 coefficients 


     atomic species   valence    mass     pseudopotential
        C              4.00    12.00000     C ( 1.00)
        H              1.00     1.00000     H ( 1.00)
        N              5.00    14.00000     N ( 1.00)
        O              6.00    16.00000     O ( 1.00)

     No symmetry found



   Cartesian axes

     site n.     atom                  positions (alat units)
         1           C   tau(   1) = (   0.0000000   0.0000000   0.0000000  )
         2           C   tau(   2) = (   0.0000000   0.0000000   0.1455089  )
         3           N   tau(   3) = (   0.1170969   0.0000000  -0.0545024  )
         4           H   tau(   4) = (   0.0476617  -0.0825466   0.1792090  )
         5           H   tau(   5) = (  -0.0953183  -0.0000030   0.1792090  )
         6           H   tau(   6) = (   0.0476566   0.0825496   0.1792090  )
         7           O   tau(   7) = (  -0.0984002  -0.0000019  -0.0641310  )
         8           H   tau(   8) = (   0.1263131  -0.0000015  -0.1475548  )
         9           H   tau(   9) = (   0.1944645   0.0000134  -0.0025716  )
        10           H   tau(  10) = (  -0.0770366  -0.0000045  -0.1522861  )

     number of k points=     1
                       cart. coord. in units 2pi/alat
        k(    1) = (   0.0000000   0.0000000   0.0000000), wk =   2.0000000

     Dense  grid:   350738 G-vectors     FFT dimensions: ( 120, 120, 120)

     Smooth grid:    88755 G-vectors     FFT dimensions: (  72,  72,  72)

     Estimated max dynamical RAM per process >     298.98MB

     Initial potential from superposition of free atoms
     Check: negative starting charge=   -0.000452

     starting charge   24.42266, renormalised to   24.00000

     negative rho (up, down):  4.438E-04 0.000E+00
     Starting wfc are   22 randomized atomic wfcs

     total cpu time spent up to now is        3.9 secs

     per-process dynamical memory:   584.0 Mb

     Self-consistent Calculation

     iteration #  1     ecut=    30.00 Ry     beta=0.70
     Davidson diagonalization with overlap
     ethr =  1.00E-02,  avg # of iterations =  2.0

     negative rho (up, down):  1.277E-04 0.000E+00

     add environment contribution to local potential
     polarization accuracy = 6.4E-06, # of iterations =  17

     total cpu time spent up to now is        9.8 secs

     total energy              =     -80.23903180 Ry
     Harris-Foulkes estimate   =     -83.01879009 Ry
     estimated scf accuracy    <       3.73442311 Ry
     electrostatic embedding   =       0.00000000 Ry
     correction to one-el term =       0.00000000 Ry

     iteration #  2     ecut=    30.00 Ry     beta=0.70
     Davidson diagonalization with overlap
     ethr =  1.00E-02,  avg # of iterations = 10.0

     negative rho (up, down):  1.263E-04 0.000E+00

     add environment contribution to local potential
     polarization accuracy = 5.3E-06, # of iterations =  14

     total cpu time spent up to now is       15.4 secs

     total energy              =    -123.44986176 Ry
     Harris-Foulkes estimate   =     -56.02362166 Ry
     estimated scf accuracy    <      41.94596275 Ry
     electrostatic embedding   =     -34.94958251 Ry
     correction to one-el term =     -42.60996871 Ry

     iteration #  3     ecut=    30.00 Ry     beta=0.70
     Davidson diagonalization with overlap
     ethr =  1.00E-02,  avg # of iterations =  1.0

     add environment contribution to local potential
     polarization accuracy = 5.6E-06, # of iterations =  16

     total cpu time spent up to now is       21.1 secs

     total energy              =    -105.35708545 Ry
     Harris-Foulkes estimate   =     -38.80334168 Ry
     estimated scf accuracy    <      31.87779655 Ry
     electrostatic embedding   =     -48.90623128 Ry
     correction to one-el term =     -39.10578311 Ry

     iteration #  4     ecut=    30.00 Ry     beta=0.70
     Davidson diagonalization with overlap
     ethr =  1.00E-02,  avg # of iterations =  2.0

     add environment contribution to local potential
     polarization accuracy = 4.6E-06, # of iterations =  16

     total cpu time spent up to now is       26.7 secs

     total energy              =    -114.10917490 Ry
     Harris-Foulkes estimate   =       4.25005468 Ry
     estimated scf accuracy    <       9.38664707 Ry
     electrostatic embedding   =     -84.36027952 Ry
     correction to one-el term =     -41.84691927 Ry

     iteration #  5     ecut=    30.00 Ry     beta=0.70
     Davidson diagonalization with overlap
     ethr =  1.00E-02,  avg # of iterations =  2.0

     add environment contribution to local potential
     polarization accuracy = 1.0E-05, # of iterations =   9

     total cpu time spent up to now is       31.0 secs

     total energy              =    -139.01138655 Ry
     Harris-Foulkes estimate   =      30.29894292 Ry
     estimated scf accuracy    <       0.35881559 Ry
     electrostatic embedding   =    -109.55753483 Ry
     correction to one-el term =     -59.84646519 Ry

     iteration #  6     ecut=    30.00 Ry     beta=0.70
     Davidson diagonalization with overlap
     ethr =  1.50E-03,  avg # of iterations =  5.0

     add environment contribution to local potential
     polarization accuracy = 7.3E-06, # of iterations =   9

     total cpu time spent up to now is       35.3 secs

     total energy              =    -138.88475590 Ry
     Harris-Foulkes estimate   =      30.88859712 Ry
     estimated scf accuracy    <       0.51257645 Ry
     electrostatic embedding   =    -112.03287457 Ry
     correction to one-el term =     -57.88727254 Ry

     iteration #  7     ecut=    30.00 Ry     beta=0.70
     Davidson diagonalization with overlap
     ethr =  1.50E-03,  avg # of iterations =  1.0

     negative rho (up, down):  4.865E-06 0.000E+00

     add environment contribution to local potential
     polarization accuracy = 3.9E-06, # of iterations =  10

     total cpu time spent up to now is       39.7 secs

     total energy              =    -138.34737959 Ry
     Harris-Foulkes estimate   =      32.01241777 Ry
     estimated scf accuracy    <       0.33350720 Ry
     electrostatic embedding   =    -115.29264080 Ry
     correction to one-el term =     -55.23248310 Ry

     iteration #  8     ecut=    30.00 Ry     beta=0.70
     Davidson diagonalization with overlap
     ethr =  1.39E-03,  avg # of iterations =  1.0

     negative rho (up, down):  3.344E-05 0.000E+00

     add environment contribution to local potential
     polarization accuracy = 6.5E-06, # of iterations =  10

     total cpu time spent up to now is       44.2 secs

     total energy              =    -137.80614206 Ry
     Harris-Foulkes estimate   =      33.75456820 Ry
     estimated scf accuracy    <       0.14736985 Ry
     electrostatic embedding   =    -119.81951637 Ry
     correction to one-el term =     -51.84196552 Ry

     iteration #  9     ecut=    30.00 Ry     beta=0.70
     Davidson diagonalization with overlap
     ethr =  6.14E-04,  avg # of iterations =  3.0

     negative rho (up, down):  4.591E-05 0.000E+00

     add environment contribution to local potential
     polarization accuracy = 4.5E-06, # of iterations =   6

     total cpu time spent up to now is       47.8 secs

     total energy              =    -140.14335407 Ry
     Harris-Foulkes estimate   =      35.95405533 Ry
     estimated scf accuracy    <       0.02782353 Ry
     electrostatic embedding   =    -122.85694722 Ry
     correction to one-el term =     -53.25090401 Ry

     iteration # 10     ecut=    30.00 Ry     beta=0.70
     Davidson diagonalization with overlap
     ethr =  1.16E-04,  avg # of iterations =  5.0

     negative rho (up, down):  1.890E-04 0.000E+00

     add environment contribution to local potential
     polarization accuracy = 7.9E-06, # of iterations =   7

     total cpu time spent up to now is       52.0 secs

     total energy              =    -140.21009308 Ry
     Harris-Foulkes estimate   =      36.28988681 Ry
     estimated scf accuracy    <       0.06808314 Ry
     electrostatic embedding   =    -123.56730352 Ry
     correction to one-el term =     -52.93113692 Ry

     iteration # 11     ecut=    30.00 Ry     beta=0.70
     Davidson diagonalization with overlap
     ethr =  1.16E-04,  avg # of iterations =  1.0

     negative rho (up, down):  1.399E-04 0.000E+00

     add environment contribution to local potential
     polarization accuracy = 6.2E-06, # of iterations =   7

     total cpu time spent up to now is       56.3 secs

     total energy              =    -139.80248718 Ry
     Harris-Foulkes estimate   =      36.35817448 Ry
     estimated scf accuracy    <       0.06812877 Ry
     electrostatic embedding   =    -124.60342268 Ry
     correction to one-el term =     -51.60245478 Ry

     iteration # 12     ecut=    30.00 Ry     beta=0.70
     Davidson diagonalization with overlap
     ethr =  1.16E-04,  avg # of iterations =  2.0

     negative rho (up, down):  1.323E-04 0.000E+00

     add environment contribution to local potential
     polarization accuracy = 8.7E-06, # of iterations =   5

     total cpu time spent up to now is       61.3 secs

     total energy              =    -140.15416171 Ry
     Harris-Foulkes estimate   =      37.36456574 Ry
     estimated scf accuracy    <       0.02274860 Ry
     electrostatic embedding   =    -125.72310669 Ry
     correction to one-el term =     -51.80954921 Ry

     iteration # 13     ecut=    30.00 Ry     beta=0.70
     Davidson diagonalization with overlap
     ethr =  9.48E-05,  avg # of iterations =  3.0

     negative rho (up, down):  1.212E-04 0.000E+00

     add environment contribution to local potential
     polarization accuracy = 9.3E-06, # of iterations =   4

     total cpu time spent up to now is       65.3 secs

     total energy              =    -140.36218375 Ry
     Harris-Foulkes estimate   =      37.85595123 Ry
     estimated scf accuracy    <       0.01105012 Ry
     electrostatic embedding   =    -126.32225910 Ry
     correction to one-el term =     -51.90181935 Ry

     iteration # 14     ecut=    30.00 Ry     beta=0.70
     Davidson diagonalization with overlap
     ethr =  4.60E-05,  avg # of iterations =  5.0

     negative rho (up, down):  1.202E-04 0.000E+00

     add environment contribution to local potential
     polarization accuracy = 9.1E-06, # of iterations =   3

     total cpu time spent up to now is       68.6 secs

     total energy              =    -140.48735218 Ry
     Harris-Foulkes estimate   =      38.13108125 Ry
     estimated scf accuracy    <       0.02144506 Ry
     electrostatic embedding   =    -126.60397630 Ry
     correction to one-el term =     -52.01743322 Ry

     iteration # 15     ecut=    30.00 Ry     beta=0.70
     Davidson diagonalization with overlap
     ethr =  4.60E-05,  avg # of iterations =  1.0

     negative rho (up, down):  1.202E-04 0.000E+00

     add environment contribution to local potential
     polarization accuracy = 4.8E-06, # of iterations =   6

     total cpu time spent up to now is       72.1 secs

     total energy              =    -140.02920183 Ry
     Harris-Foulkes estimate   =      38.21612714 Ry
     estimated scf accuracy    <       0.01854077 Ry
     electrostatic embedding   =    -127.21926616 Ry
     correction to one-el term =     -51.03941280 Ry

     iteration # 16     ecut=    30.00 Ry     beta=0.70
     Davidson diagonalization with overlap
     ethr =  4.60E-05,  avg # of iterations =  3.0

     negative rho (up, down):  1.201E-04 0.000E+00

     add environment contribution to local potential
     polarization accuracy = 5.2E-06, # of iterations =   2

     total cpu time spent up to now is       74.9 secs

     total energy              =    -140.62572786 Ry
     Harris-Foulkes estimate   =      38.83351203 Ry
     estimated scf accuracy    <       0.00939936 Ry
     electrostatic embedding   =    -127.71503974 Ry
     correction to one-el term =     -51.74289114 Ry

     iteration # 17     ecut=    30.00 Ry     beta=0.70
     Davidson diagonalization with overlap
     ethr =  3.92E-05,  avg # of iterations =  1.0

     negative rho (up, down):  1.150E-04 0.000E+00

     add environment contribution to local potential
     polarization accuracy = 6.9E-06, # of iterations =   6

     total cpu time spent up to now is       78.4 secs

     total energy              =    -140.90237688 Ry
     Harris-Foulkes estimate   =      38.77902962 Ry
     estimated scf accuracy    <       0.01099344 Ry
     electrostatic embedding   =    -127.35804175 Ry
     correction to one-el term =     -52.30904814 Ry

     iteration # 18     ecut=    30.00 Ry     beta=0.70
     Davidson diagonalization with overlap
     ethr =  3.92E-05,  avg # of iterations =  2.0

     negative rho (up, down):  9.396E-05 0.000E+00

     add environment contribution to local potential
     polarization accuracy = 5.7E-06, # of iterations =   4

     total cpu time spent up to now is       81.6 secs

     total energy              =    -140.31427458 Ry
     Harris-Foulkes estimate   =      38.38190791 Ry
     estimated scf accuracy    <       0.02367784 Ry
     electrostatic embedding   =    -127.30068184 Ry
     correction to one-el term =     -51.40653789 Ry

     iteration # 19     ecut=    30.00 Ry     beta=0.70
     Davidson diagonalization with overlap
     ethr =  3.92E-05,  avg # of iterations =  1.0

     negative rho (up, down):  1.042E-04 0.000E+00

     add environment contribution to local potential
     polarization accuracy = 5.6E-06, # of iterations =   4

     total cpu time spent up to now is       84.7 secs

     total energy              =    -140.75574776 Ry
     Harris-Foulkes estimate   =      38.69604726 Ry
     estimated scf accuracy    <       0.01045975 Ry
     electrostatic embedding   =    -127.38227702 Ry
     correction to one-el term =     -52.06265342 Ry

     iteration # 20     ecut=    30.00 Ry     beta=0.70
     Davidson diagonalization with overlap
     ethr =  3.92E-05,  avg # of iterations =  1.0

     negative rho (up, down):  1.075E-04 0.000E+00

     add environment contribution to local potential
     polarization accuracy = 4.1E-06, # of iterations =   3

     total cpu time spent up to now is       87.7 secs

     total energy              =    -140.60191317 Ry
     Harris-Foulkes estimate   =      38.48719783 Ry
     estimated scf accuracy    <       0.01870082 Ry
     electrostatic embedding   =    -127.18937508 Ry
     correction to one-el term =     -51.89781580 Ry

     iteration # 21     ecut=    30.00 Ry     beta=0.70
     Davidson diagonalization with overlap
     ethr =  3.92E-05,  avg # of iterations =  1.0

     negative rho (up, down):  1.059E-04 0.000E+00

     add environment contribution to local potential
     polarization accuracy = 4.6E-06, # of iterations =   4

     total cpu time spent up to now is       90.8 secs

     total energy              =    -140.50762766 Ry
     Harris-Foulkes estimate   =      38.43998816 Ry
     estimated scf accuracy    <       0.02041853 Ry
     electrostatic embedding   =    -127.23224529 Ry
     correction to one-el term =     -51.71875118 Ry

     iteration # 22     ecut=    30.00 Ry     beta=0.70
     Davidson diagonalization with overlap
     ethr =  3.92E-05,  avg # of iterations =  1.0

     negative rho (up, down):  1.109E-04 0.000E+00

     add environment contribution to local potential
     polarization accuracy = 4.4E-06, # of iterations =   8

     total cpu time spent up to now is       94.7 secs

     total energy              =    -139.77458485 Ry
     Harris-Foulkes estimate   =      38.53068336 Ry
     estimated scf accuracy    <       0.01623849 Ry
     electrostatic embedding   =    -128.08733316 Ry
     correction to one-el term =     -50.22861318 Ry

     iteration # 23     ecut=    30.00 Ry     beta=0.70
     Davidson diagonalization with overlap
     ethr =  3.92E-05,  avg # of iterations =  5.0

     negative rho (up, down):  1.176E-04 0.000E+00

     add environment contribution to local potential
     polarization accuracy = 6.7E-06, # of iterations =   5

     total cpu time spent up to now is       98.2 secs

     total energy              =    -140.57587006 Ry
     Harris-Foulkes estimate   =      39.53031193 Ry
     estimated scf accuracy    <       0.00613743 Ry
     electrostatic embedding   =    -128.91790962 Ry
     correction to one-el term =     -51.18805517 Ry

     iteration # 24     ecut=    30.00 Ry     beta=0.70
     Davidson diagonalization with overlap
     ethr =  2.56E-05,  avg # of iterations =  1.0

     negative rho (up, down):  1.197E-04 0.000E+00

     add environment contribution to local potential
     polarization accuracy = 5.0E-06, # of iterations =   5

     total cpu time spent up to now is      101.5 secs

     total energy              =    -140.74694375 Ry
     Harris-Foulkes estimate   =      39.54072659 Ry
     estimated scf accuracy    <       0.00623168 Ry
     electrostatic embedding   =    -128.76516524 Ry
     correction to one-el term =     -51.51978031 Ry

     iteration # 25     ecut=    30.00 Ry     beta=0.70
     Davidson diagonalization with overlap
     ethr =  2.56E-05,  avg # of iterations =  1.0

     negative rho (up, down):  1.227E-04 0.000E+00

     add environment contribution to local potential
     polarization accuracy = 7.9E-06, # of iterations =   5

     total cpu time spent up to now is      104.9 secs

     total energy              =    -140.62906971 Ry
     Harris-Foulkes estimate   =      39.38036434 Ry
     estimated scf accuracy    <       0.00874233 Ry
     electrostatic embedding   =    -128.56019556 Ry
     correction to one-el term =     -51.44934844 Ry

     iteration # 26     ecut=    30.00 Ry     beta=0.70
     Davidson diagonalization with overlap
     ethr =  2.56E-05,  avg # of iterations =  4.0

     negative rho (up, down):  1.203E-04 0.000E+00

     add environment contribution to local potential
     polarization accuracy = 5.2E-06, # of iterations =   3

     total cpu time spent up to now is      107.8 secs

     total energy              =    -140.58793509 Ry
     Harris-Foulkes estimate   =      39.39179381 Ry
     estimated scf accuracy    <       0.00641041 Ry
     electrostatic embedding   =    -128.50972551 Ry
     correction to one-el term =     -51.47002303 Ry

     iteration # 27     ecut=    30.00 Ry     beta=0.70
     Davidson diagonalization with overlap
     ethr =  2.56E-05,  avg # of iterations =  1.0

     negative rho (up, down):  1.218E-04 0.000E+00

     add environment contribution to local potential
     polarization accuracy = 6.2E-06, # of iterations =   4

     total cpu time spent up to now is      111.0 secs

     total energy              =    -140.54560760 Ry
     Harris-Foulkes estimate   =      39.39628370 Ry
     estimated scf accuracy    <       0.00622286 Ry
     electrostatic embedding   =    -128.54555515 Ry
     correction to one-el term =     -51.39647516 Ry

     iteration # 28     ecut=    30.00 Ry     beta=0.70
     Davidson diagonalization with overlap
     ethr =  2.56E-05,  avg # of iterations =  1.0

     negative rho (up, down):  1.195E-04 0.000E+00

     add environment contribution to local potential
     polarization accuracy = 3.2E-06, # of iterations =   5

     total cpu time spent up to now is      114.3 secs

     total energy              =    -140.65301963 Ry
     Harris-Foulkes estimate   =      39.44161281 Ry
     estimated scf accuracy    <       0.00578994 Ry
     electrostatic embedding   =    -128.51431412 Ry
     correction to one-el term =     -51.57926392 Ry

     iteration # 29     ecut=    30.00 Ry     beta=0.70
     Davidson diagonalization with overlap
     ethr =  2.41E-05,  avg # of iterations =  1.0

     negative rho (up, down):  1.100E-04 0.000E+00

     add environment contribution to local potential
     polarization accuracy = 8.2E-06, # of iterations =   5

     total cpu time spent up to now is      117.6 secs

     total energy              =    -140.50258906 Ry
     Harris-Foulkes estimate   =      39.36861974 Ry
     estimated scf accuracy    <       0.00675746 Ry
     electrostatic embedding   =    -128.52427862 Ry
     correction to one-el term =     -51.34953998 Ry

     iteration # 30     ecut=    30.00 Ry     beta=0.70
     Davidson diagonalization with overlap
     ethr =  2.41E-05,  avg # of iterations =  1.0

     negative rho (up, down):  1.228E-04 0.000E+00

     total cpu time spent up to now is      119.6 secs

     End of self-consistent calculation

          k = 0.0000 0.0000 0.0000 ( 11060 PWs)   bands (ev):

   -11.7097  -5.0432  -4.8052  -4.3470  -4.1410  -3.1119  -2.7951  -2.6549
    -2.5225  -2.4511  -2.3853  -2.1368

     highest occupied level (ev):    -2.1368

!    total energy              =    -140.58149713 Ry
     Harris-Foulkes estimate   =      39.47297518 Ry
     estimated scf accuracy    <       0.00335388 Ry

     The total energy is the sum of the following terms:

     one-electron contribution =     -35.57683039 Ry
     hartree contribution      =      20.56827904 Ry
     xc contribution           =      -9.82391296 Ry
     ewald contribution        =      64.30784006 Ry
     electrostatic embedding   =    -128.60280761 Ry
     correction to one-el term =     -51.45406526 Ry

     convergence has been achieved in  30 iterations

     Forces acting on atoms (cartesian axes, Ry/au):

     atom    1 type  1   force =    -0.21922610    0.00001459    0.94054755
     atom    2 type  1   force =    -0.34458988    0.00042618    0.99231794
     atom    3 type  3   force =     7.86509530   -0.00000572   -3.87391862
     atom    4 type  2   force =    -0.31348218   -0.02957773    0.74897617
     atom    5 type  2   force =    -0.36500451   -0.00025261    0.75057502
     atom    6 type  2   force =    -0.31347099    0.02924545    0.74859342
     atom    7 type  4   force =    -5.38511948    0.00073362   -2.45049306
     atom    8 type  2   force =    -0.32857084   -0.00031036    0.68657196
     atom    9 type  2   force =    -0.28774331   -0.00024149    0.77513484
     atom   10 type  2   force =    -0.30788801   -0.00003194    0.68169478

     Total force =    10.851093     Total SCF correction =     0.031121

     Writing output data file pwscf.save
 
     init_run     :      3.66s CPU      3.78s WALL (       1 calls)
     electrons    :    111.75s CPU    120.53s WALL (       1 calls)
     forces       :      1.38s CPU      1.45s WALL (       1 calls)

     Called by init_run:
     wfcinit      :      0.13s CPU      0.13s WALL (       1 calls)
     potinit      :      0.95s CPU      0.96s WALL (       1 calls)

     Called by electrons:
     c_bands      :      5.88s CPU      5.88s WALL (      30 calls)
     sum_band     :     20.35s CPU     21.51s WALL (      30 calls)
     v_of_rho     :     22.85s CPU     23.24s WALL (      31 calls)
     newd         :      9.14s CPU     10.23s WALL (      31 calls)
     mix_rho      :      3.17s CPU      3.16s WALL (      30 calls)

     Called by c_bands:
     init_us_2    :      0.25s CPU      0.25s WALL (      61 calls)
     regterg      :      5.42s CPU      5.41s WALL (      30 calls)

     Called by sum_band:
     sum_band:bec :      0.00s CPU      0.00s WALL (      30 calls)
     addusdens    :     15.57s CPU     16.72s WALL (      30 calls)

     Called by *egterg:
     h_psi        :      4.84s CPU      4.86s WALL (     100 calls)
     s_psi        :      0.16s CPU      0.14s WALL (     100 calls)
     g_psi        :      0.07s CPU      0.06s WALL (      69 calls)
     rdiaghg      :      0.01s CPU      0.02s WALL (      99 calls)

     Called by h_psi:
     h_psi:pot    :      4.81s CPU      4.83s WALL (     100 calls)
     h_psi:calbec :      0.19s CPU      0.17s WALL (     100 calls)
     vloc_psi     :      4.50s CPU      4.52s WALL (     100 calls)
     add_vuspsi   :      0.12s CPU      0.14s WALL (     100 calls)

     General routines
     calbec       :      0.25s CPU      0.24s WALL (     134 calls)
     fft          :     41.93s CPU     42.69s WALL (    1423 calls)
     ffts         :      0.36s CPU      0.32s WALL (      61 calls)
     fftw         :      4.12s CPU      4.13s WALL (    1118 calls)
     interpolate  :      2.41s CPU      2.50s WALL (      61 calls)
     davcio       :      0.00s CPU      0.00s WALL (       1 calls)
 
     Parallel routines
     fft_scatter  :      9.58s CPU      9.79s WALL (    2602 calls)
 
     Environ routines
     calc_eelect  :      0.08s CPU      0.09s WALL (      60 calls)
     calc_velect  :     46.80s CPU     48.04s WALL (      58 calls)
     dielectric   :      0.09s CPU      0.09s WALL (       2 calls)
     calc_felect  :      0.15s CPU      0.15s WALL (       1 calls)
 
     PWSCF        :  1m57.04s CPU     2m 9.00s WALL

 
   This run was terminated on:  14:46:41  14Nov2017            

=------------------------------------------------------------------------------=
   JOB DONE.
=------------------------------------------------------------------------------=

%%%% IONS %%%%%%%%%%%%%%%%%%%%%%%%%%%%%%%%%%%%%%%%%%%%%%%%%%%%%%%%%%%%%%%%%%%%%%
 number of ions             =         10
 ionic center of charge     =      0.0095530    -0.0000002     0.0063981
 total ionic charge         =    -25.0000000
 ionic dipole               =      0.0000000     0.0000000     0.0000000
 ionic quadrupole (pc)      =    -79.0828058    -5.4513517  -105.8059629
 ionic quadrupole (gauss)   =    -82.2078058    -8.5763517  -108.9309629
 ion   1 type =  1 coordinates =      0.0000000     0.0000000     0.0000000
 ion   2 type =  1 coordinates =      0.0000000     0.0000000     2.9101782
 ion   3 type =  3 coordinates =      2.3419379     0.0000000    -1.0900479
 ion   4 type =  2 coordinates =      0.9532347    -1.6509323     3.5841800
 ion   5 type =  2 coordinates =     -1.9063663    -0.0000596     3.5841809
 ion   6 type =  2 coordinates =      0.9531315     1.6509919     3.5841800
 ion   7 type =  4 coordinates =     -1.9680045    -0.0000375    -1.2826193
 ion   8 type =  2 coordinates =      2.5262613    -0.0000303    -2.9510950
 ion   9 type =  2 coordinates =      3.8892907     0.0002681    -0.0514326
 ion  10 type =  2 coordinates =     -1.5407317    -0.0000890    -3.0457220

%%%% SYSTEM %%%%%%%%%%%%%%%%%%%%%%%%%%%%%%%%%%%%%%%%%%%%%%%%%%%%%%%%%%%%%%%%%%%%
 system is built from all present ionic types
 system defined dimension   =  0 
 system defined axis        =  3 
 system center              =      0.0095530    -0.0000002     0.0063981 
 system width               =      0.5223840 

%%%% BOUNDARY %%%%%%%%%%%%%%%%%%%%%%%%%%%%%%%%%%%%%%%%%%%%%%%%%%%%%%%%%%%%%%%%%%
 boundary mode              = system               
 boundary is built as an analytic function centered on system position
 center of the boundary     =      0.0095530    -0.0000002     0.0063981 
 distance from the center   =      3.0000000 
 spread of the interface    =      0.5000000 
 dimensionality             =  0 
 axis                       =  3 
 volume of the QM region    =    117.8097245 
 surface of the QM region   =    114.6681319 

%%%% DIELECTRIC %%%%%%%%%%%%%%%%%%%%%%%%%%%%%%%%%%%%%%%%%%%%%%%%%%%%%%%%%%%%%%%%%
 dielectric build on homogeneous background
 environment bulk permitt.  =    100.0000000 
 dielectric flags
 need gradient              =  F 
 need factor depend. sqrt   =  F 
 need gradient of logarithm =  T 

%%%% ELECTRONS %%%%%%%%%%%%%%%%%%%%%%%%%%%%%%%%%%%%%%%%%%%%%%%%%%%%%%%%%%%%%%%%%
 number of electrons        =         24
 total electronic charge    =     24.0000000
 number of spin components  =  1

%%%% COMPUTE ELECTROSTATIC POTENTIAL %%%%%%%%%%%%%%%%%%%%%%%%%%%%%%%%%%%%%%%%%%%
 Starting from polarization: rhoiter =      0.000000 jellium =      0.000000
 Iteration #          1
 delta_qm =   0.500070E-02 delta_en =   0.432121E+02 tol =   0.100000E-04
 Iteration #          2
 delta_qm =   0.307043E-02 delta_en =   0.162908E+02 tol =   0.100000E-04
 Iteration #          3
 delta_qm =   0.179617E-02 delta_en =   0.557492E+01 tol =   0.100000E-04
 Iteration #          4
 delta_qm =   0.104530E-02 delta_en =   0.188809E+01 tol =   0.100000E-04
 Iteration #          5
 delta_qm =   0.613506E-03 delta_en =   0.650400E+00 tol =   0.100000E-04
 Iteration #          6
 delta_qm =   0.376985E-03 delta_en =   0.245580E+00 tol =   0.100000E-04
 Iteration #          7
 delta_qm =   0.235166E-03 delta_en =   0.955637E-01 tol =   0.100000E-04
 Iteration #          8
 delta_qm =   0.138854E-03 delta_en =   0.333167E-01 tol =   0.100000E-04
 Iteration #          9
 delta_qm =   0.815628E-04 delta_en =   0.114955E-01 tol =   0.100000E-04
 Iteration #         10
 delta_qm =   0.524162E-04 delta_en =   0.474760E-02 tol =   0.100000E-04
 Iteration #         11
 delta_qm =   0.332110E-04 delta_en =   0.190593E-02 tol =   0.100000E-04
 Iteration #         12
 delta_qm =   0.194336E-04 delta_en =   0.652606E-03 tol =   0.100000E-04
 Iteration #         13
 delta_qm =   0.119731E-04 delta_en =   0.247720E-03 tol =   0.100000E-04
 Iteration #         14
 delta_qm =   0.788930E-05 delta_en =   0.107553E-03 tol =   0.100000E-04
 Iteration #         15
 delta_qm =   0.488030E-05 delta_en =   0.411563E-04 tol =   0.100000E-04
 Iteration #         16
 delta_qm =   0.297870E-05 delta_en =   0.153320E-04 tol =   0.100000E-04
 Iteration #         17
 delta_qm =   0.192735E-05 delta_en =   0.641896E-05 tol =   0.100000E-04
 Charges are converged, EXIT

%%%% ELECTRONS %%%%%%%%%%%%%%%%%%%%%%%%%%%%%%%%%%%%%%%%%%%%%%%%%%%%%%%%%%%%%%%%%
 number of electrons        =         24
 total electronic charge    =     24.0000000
 number of spin components  =  1

%%%% COMPUTE ELECTROSTATIC POTENTIAL %%%%%%%%%%%%%%%%%%%%%%%%%%%%%%%%%%%%%%%%%%%
 Starting from polarization: rhoiter =      0.078482 jellium =      0.000000
 Iteration #          1
 delta_qm =   0.181193E-02 delta_en =   0.567318E+01 tol =   0.100000E-04
 Iteration #          2
 delta_qm =   0.104002E-02 delta_en =   0.186906E+01 tol =   0.100000E-04
 Iteration #          3
 delta_qm =   0.375518E-03 delta_en =   0.243672E+00 tol =   0.100000E-04
 Iteration #          4
 delta_qm =   0.233353E-03 delta_en =   0.940956E-01 tol =   0.100000E-04
 Iteration #          5
 delta_qm =   0.138064E-03 delta_en =   0.329386E-01 tol =   0.100000E-04
 Iteration #          6
 delta_qm =   0.763232E-04 delta_en =   0.100660E-01 tol =   0.100000E-04
 Iteration #          7
 delta_qm =   0.467568E-04 delta_en =   0.377775E-02 tol =   0.100000E-04
 Iteration #          8
 delta_qm =   0.299109E-04 delta_en =   0.154598E-02 tol =   0.100000E-04
 Iteration #          9
 delta_qm =   0.184158E-04 delta_en =   0.586038E-03 tol =   0.100000E-04
 Iteration #         10
 delta_qm =   0.111778E-04 delta_en =   0.215903E-03 tol =   0.100000E-04
 Iteration #         11
 delta_qm =   0.695004E-05 delta_en =   0.834676E-04 tol =   0.100000E-04
 Iteration #         12
 delta_qm =   0.446998E-05 delta_en =   0.345267E-04 tol =   0.100000E-04
 Iteration #         13
 delta_qm =   0.287103E-05 delta_en =   0.142436E-04 tol =   0.100000E-04
 Iteration #         14
 delta_qm =   0.174912E-05 delta_en =   0.528669E-05 tol =   0.100000E-04
 Charges are converged, EXIT

%%%% ELECTRONS %%%%%%%%%%%%%%%%%%%%%%%%%%%%%%%%%%%%%%%%%%%%%%%%%%%%%%%%%%%%%%%%%
 number of electrons        =         24
 total electronic charge    =     24.0000000
 number of spin components  =  1

%%%% COMPUTE ELECTROSTATIC POTENTIAL %%%%%%%%%%%%%%%%%%%%%%%%%%%%%%%%%%%%%%%%%%%
 Starting from polarization: rhoiter =      0.430357 jellium =      0.000000
 Iteration #          1
 delta_qm =   0.419918E-02 delta_en =   0.304700E+02 tol =   0.100000E-04
 Iteration #          2
 delta_qm =   0.232929E-02 delta_en =   0.937539E+01 tol =   0.100000E-04
 Iteration #          3
 delta_qm =   0.884023E-03 delta_en =   0.135042E+01 tol =   0.100000E-04
 Iteration #          4
 delta_qm =   0.545739E-03 delta_en =   0.514652E+00 tol =   0.100000E-04
 Iteration #          5
 delta_qm =   0.334009E-03 delta_en =   0.192779E+00 tol =   0.100000E-04
 Iteration #          6
 delta_qm =   0.187856E-03 delta_en =   0.609808E-01 tol =   0.100000E-04
 Iteration #          7
 delta_qm =   0.114113E-03 delta_en =   0.225018E-01 tol =   0.100000E-04
 Iteration #          8
 delta_qm =   0.736802E-04 delta_en =   0.938092E-02 tol =   0.100000E-04
 Iteration #          9
 delta_qm =   0.458416E-04 delta_en =   0.363131E-02 tol =   0.100000E-04
 Iteration #         10
 delta_qm =   0.275697E-04 delta_en =   0.131343E-02 tol =   0.100000E-04
 Iteration #         11
 delta_qm =   0.170770E-04 delta_en =   0.503926E-03 tol =   0.100000E-04
 Iteration #         12
 delta_qm =   0.110816E-04 delta_en =   0.212201E-03 tol =   0.100000E-04
 Iteration #         13
 delta_qm =   0.708586E-05 delta_en =   0.867618E-04 tol =   0.100000E-04
 Iteration #         14
 delta_qm =   0.428570E-05 delta_en =   0.317386E-04 tol =   0.100000E-04
 Iteration #         15
 delta_qm =   0.267029E-05 delta_en =   0.123214E-04 tol =   0.100000E-04
 Iteration #         16
 delta_qm =   0.179838E-05 delta_en =   0.558867E-05 tol =   0.100000E-04
 Charges are converged, EXIT

%%%% ELECTRONS %%%%%%%%%%%%%%%%%%%%%%%%%%%%%%%%%%%%%%%%%%%%%%%%%%%%%%%%%%%%%%%%%
 number of electrons        =         24
 total electronic charge    =     24.0000000
 number of spin components  =  1

%%%% COMPUTE ELECTROSTATIC POTENTIAL %%%%%%%%%%%%%%%%%%%%%%%%%%%%%%%%%%%%%%%%%%%
 Starting from polarization: rhoiter =      1.250066 jellium =      0.000000
 Iteration #          1
 delta_qm =   0.383016E-02 delta_en =   0.253500E+02 tol =   0.100000E-04
 Iteration #          2
 delta_qm =   0.212919E-02 delta_en =   0.783382E+01 tol =   0.100000E-04
 Iteration #          3
 delta_qm =   0.805971E-03 delta_en =   0.112249E+01 tol =   0.100000E-04
 Iteration #          4
 delta_qm =   0.497164E-03 delta_en =   0.427113E+00 tol =   0.100000E-04
 Iteration #          5
 delta_qm =   0.304812E-03 delta_en =   0.160549E+00 tol =   0.100000E-04
 Iteration #          6
 delta_qm =   0.171109E-03 delta_en =   0.505932E-01 tol =   0.100000E-04
 Iteration #          7
 delta_qm =   0.103521E-03 delta_en =   0.185184E-01 tol =   0.100000E-04
 Iteration #          8
 delta_qm =   0.670404E-04 delta_en =   0.776636E-02 tol =   0.100000E-04
 Iteration #          9
 delta_qm =   0.417432E-04 delta_en =   0.301102E-02 tol =   0.100000E-04
 Iteration #         10
 delta_qm =   0.249796E-04 delta_en =   0.107824E-02 tol =   0.100000E-04
 Iteration #         11
 delta_qm =   0.154758E-04 delta_en =   0.413854E-03 tol =   0.100000E-04
 Iteration #         12
 delta_qm =   0.100658E-04 delta_en =   0.175082E-03 tol =   0.100000E-04
 Iteration #         13
 delta_qm =   0.641525E-05 delta_en =   0.711167E-04 tol =   0.100000E-04
 Iteration #         14
 delta_qm =   0.387561E-05 delta_en =   0.259552E-04 tol =   0.100000E-04
 Iteration #         15
 delta_qm =   0.241886E-05 delta_en =   0.101103E-04 tol =   0.100000E-04
 Iteration #         16
 delta_qm =   0.162419E-05 delta_en =   0.455847E-05 tol =   0.100000E-04
 Charges are converged, EXIT

%%%% ELECTRONS %%%%%%%%%%%%%%%%%%%%%%%%%%%%%%%%%%%%%%%%%%%%%%%%%%%%%%%%%%%%%%%%%
 number of electrons        =         24
 total electronic charge    =     24.0000000
 number of spin components  =  1

%%%% COMPUTE ELECTROSTATIC POTENTIAL %%%%%%%%%%%%%%%%%%%%%%%%%%%%%%%%%%%%%%%%%%%
 Starting from polarization: rhoiter =      1.997442 jellium =      0.000000
 Iteration #          1
 delta_qm =   0.278054E-03 delta_en =   0.133598E+00 tol =   0.100000E-04
 Iteration #          2
 delta_qm =   0.198801E-03 delta_en =   0.682938E-01 tol =   0.100000E-04
 Iteration #          3
 delta_qm =   0.660511E-04 delta_en =   0.753882E-02 tol =   0.100000E-04
 Iteration #          4
 delta_qm =   0.416136E-04 delta_en =   0.299237E-02 tol =   0.100000E-04
 Iteration #          5
 delta_qm =   0.214330E-04 delta_en =   0.793796E-03 tol =   0.100000E-04
 Iteration #          6
 delta_qm =   0.113067E-04 delta_en =   0.220911E-03 tol =   0.100000E-04
 Iteration #          7
 delta_qm =   0.655088E-05 delta_en =   0.741555E-04 tol =   0.100000E-04
 Iteration #          8
 delta_qm =   0.388921E-05 delta_en =   0.261377E-04 tol =   0.100000E-04
 Iteration #          9
 delta_qm =   0.240329E-05 delta_en =   0.998059E-05 tol =   0.100000E-04
 Charges are converged, EXIT

%%%% ELECTRONS %%%%%%%%%%%%%%%%%%%%%%%%%%%%%%%%%%%%%%%%%%%%%%%%%%%%%%%%%%%%%%%%%
 number of electrons        =         24
 total electronic charge    =     24.0000000
 number of spin components  =  1

%%%% COMPUTE ELECTROSTATIC POTENTIAL %%%%%%%%%%%%%%%%%%%%%%%%%%%%%%%%%%%%%%%%%%%
 Starting from polarization: rhoiter =      1.952827 jellium =      0.000000
 Iteration #          1
 delta_qm =   0.135748E-03 delta_en =   0.318427E-01 tol =   0.100000E-04
 Iteration #          2
 delta_qm =   0.709843E-04 delta_en =   0.870699E-02 tol =   0.100000E-04
 Iteration #          3
 delta_qm =   0.334067E-04 delta_en =   0.192846E-02 tol =   0.100000E-04
 Iteration #          4
 delta_qm =   0.212997E-04 delta_en =   0.783957E-03 tol =   0.100000E-04
 Iteration #          5
 delta_qm =   0.140015E-04 delta_en =   0.338762E-03 tol =   0.100000E-04
 Iteration #          6
 delta_qm =   0.820539E-05 delta_en =   0.116343E-03 tol =   0.100000E-04
 Iteration #          7
 delta_qm =   0.496733E-05 delta_en =   0.426373E-04 tol =   0.100000E-04
 Iteration #          8
 delta_qm =   0.326780E-05 delta_en =   0.184525E-04 tol =   0.100000E-04
 Iteration #          9
 delta_qm =   0.205642E-05 delta_en =   0.730751E-05 tol =   0.100000E-04
 Charges are converged, EXIT

%%%% ELECTRONS %%%%%%%%%%%%%%%%%%%%%%%%%%%%%%%%%%%%%%%%%%%%%%%%%%%%%%%%%%%%%%%%%
 number of electrons        =         24
 total electronic charge    =     24.0000000
 number of spin components  =  1

%%%% COMPUTE ELECTROSTATIC POTENTIAL %%%%%%%%%%%%%%%%%%%%%%%%%%%%%%%%%%%%%%%%%%%
 Starting from polarization: rhoiter =      1.976068 jellium =      0.000000
 Iteration #          1
 delta_qm =   0.126192E-03 delta_en =   0.275175E-01 tol =   0.100000E-04
 Iteration #          2
 delta_qm =   0.790626E-04 delta_en =   0.108016E-01 tol =   0.100000E-04
 Iteration #          3
 delta_qm =   0.401127E-04 delta_en =   0.278040E-02 tol =   0.100000E-04
 Iteration #          4
 delta_qm =   0.262309E-04 delta_en =   0.118897E-02 tol =   0.100000E-04
 Iteration #          5
 delta_qm =   0.168538E-04 delta_en =   0.490839E-03 tol =   0.100000E-04
 Iteration #          6
 delta_qm =   0.101078E-04 delta_en =   0.176545E-03 tol =   0.100000E-04
 Iteration #          7
 delta_qm =   0.609694E-05 delta_en =   0.642343E-04 tol =   0.100000E-04
 Iteration #          8
 delta_qm =   0.388493E-05 delta_en =   0.260801E-04 tol =   0.100000E-04
 Iteration #          9
 delta_qm =   0.246767E-05 delta_en =   0.105225E-04 tol =   0.100000E-04
 Iteration #         10
 delta_qm =   0.150593E-05 delta_en =   0.391880E-05 tol =   0.100000E-04
 Charges are converged, EXIT

%%%% ELECTRONS %%%%%%%%%%%%%%%%%%%%%%%%%%%%%%%%%%%%%%%%%%%%%%%%%%%%%%%%%%%%%%%%%
 number of electrons        =         24
 total electronic charge    =     24.0000000
 number of spin components  =  1

%%%% COMPUTE ELECTROSTATIC POTENTIAL %%%%%%%%%%%%%%%%%%%%%%%%%%%%%%%%%%%%%%%%%%%
 Starting from polarization: rhoiter =      1.974164 jellium =      0.000000
 Iteration #          1
 delta_qm =   0.169175E-03 delta_en =   0.494558E-01 tol =   0.100000E-04
 Iteration #          2
 delta_qm =   0.909878E-04 delta_en =   0.143057E-01 tol =   0.100000E-04
 Iteration #          3
 delta_qm =   0.497544E-04 delta_en =   0.427766E-02 tol =   0.100000E-04
 Iteration #          4
 delta_qm =   0.326389E-04 delta_en =   0.184083E-02 tol =   0.100000E-04
 Iteration #          5
 delta_qm =   0.218807E-04 delta_en =   0.827306E-03 tol =   0.100000E-04
 Iteration #          6
 delta_qm =   0.130336E-04 delta_en =   0.293542E-03 tol =   0.100000E-04
 Iteration #          7
 delta_qm =   0.784835E-05 delta_en =   0.106439E-03 tol =   0.100000E-04
 Iteration #          8
 delta_qm =   0.517534E-05 delta_en =   0.462830E-04 tol =   0.100000E-04
 Iteration #          9
 delta_qm =   0.327700E-05 delta_en =   0.185566E-04 tol =   0.100000E-04
 Iteration #         10
 delta_qm =   0.193421E-05 delta_en =   0.646473E-05 tol =   0.100000E-04
 Charges are converged, EXIT

%%%% ELECTRONS %%%%%%%%%%%%%%%%%%%%%%%%%%%%%%%%%%%%%%%%%%%%%%%%%%%%%%%%%%%%%%%%%
 number of electrons        =         24
 total electronic charge    =     24.0000000
 number of spin components  =  1

%%%% COMPUTE ELECTROSTATIC POTENTIAL %%%%%%%%%%%%%%%%%%%%%%%%%%%%%%%%%%%%%%%%%%%
 Starting from polarization: rhoiter =      1.992606 jellium =      0.000000
 Iteration #          1
 delta_qm =   0.278522E-04 delta_en =   0.134048E-02 tol =   0.100000E-04
 Iteration #          2
 delta_qm =   0.147692E-04 delta_en =   0.376930E-03 tol =   0.100000E-04
 Iteration #          3
 delta_qm =   0.671808E-05 delta_en =   0.779892E-04 tol =   0.100000E-04
 Iteration #          4
 delta_qm =   0.430502E-05 delta_en =   0.320254E-04 tol =   0.100000E-04
 Iteration #          5
 delta_qm =   0.274959E-05 delta_en =   0.130641E-04 tol =   0.100000E-04
 Iteration #          6
 delta_qm =   0.161883E-05 delta_en =   0.452843E-05 tol =   0.100000E-04
 Charges are converged, EXIT

%%%% ELECTRONS %%%%%%%%%%%%%%%%%%%%%%%%%%%%%%%%%%%%%%%%%%%%%%%%%%%%%%%%%%%%%%%%%
 number of electrons        =         24
 total electronic charge    =     24.0000000
 number of spin components  =  1

%%%% COMPUTE ELECTROSTATIC POTENTIAL %%%%%%%%%%%%%%%%%%%%%%%%%%%%%%%%%%%%%%%%%%%
 Starting from polarization: rhoiter =      1.997547 jellium =      0.000000
 Iteration #          1
 delta_qm =   0.420941E-04 delta_en =   0.306186E-02 tol =   0.100000E-04
 Iteration #          2
 delta_qm =   0.224833E-04 delta_en =   0.873505E-03 tol =   0.100000E-04
 Iteration #          3
 delta_qm =   0.128107E-04 delta_en =   0.283589E-03 tol =   0.100000E-04
 Iteration #          4
 delta_qm =   0.858337E-05 delta_en =   0.127309E-03 tol =   0.100000E-04
 Iteration #          5
 delta_qm =   0.558902E-05 delta_en =   0.539777E-04 tol =   0.100000E-04
 Iteration #          6
 delta_qm =   0.340882E-05 delta_en =   0.200794E-04 tol =   0.100000E-04
 Iteration #          7
 delta_qm =   0.213897E-05 delta_en =   0.790592E-05 tol =   0.100000E-04
 Charges are converged, EXIT

%%%% ELECTRONS %%%%%%%%%%%%%%%%%%%%%%%%%%%%%%%%%%%%%%%%%%%%%%%%%%%%%%%%%%%%%%%%%
 number of electrons        =         24
 total electronic charge    =     24.0000000
 number of spin components  =  1

%%%% COMPUTE ELECTROSTATIC POTENTIAL %%%%%%%%%%%%%%%%%%%%%%%%%%%%%%%%%%%%%%%%%%%
 Starting from polarization: rhoiter =      2.001539 jellium =      0.000000
 Iteration #          1
 delta_qm =   0.308113E-04 delta_en =   0.164045E-02 tol =   0.100000E-04
 Iteration #          2
 delta_qm =   0.155240E-04 delta_en =   0.416437E-03 tol =   0.100000E-04
 Iteration #          3
 delta_qm =   0.102199E-04 delta_en =   0.180485E-03 tol =   0.100000E-04
 Iteration #          4
 delta_qm =   0.728926E-05 delta_en =   0.918143E-04 tol =   0.100000E-04
 Iteration #          5
 delta_qm =   0.444670E-05 delta_en =   0.341680E-04 tol =   0.100000E-04
 Iteration #          6
 delta_qm =   0.283647E-05 delta_en =   0.139028E-04 tol =   0.100000E-04
 Iteration #          7
 delta_qm =   0.189688E-05 delta_en =   0.621763E-05 tol =   0.100000E-04
 Charges are converged, EXIT

%%%% ELECTRONS %%%%%%%%%%%%%%%%%%%%%%%%%%%%%%%%%%%%%%%%%%%%%%%%%%%%%%%%%%%%%%%%%
 number of electrons        =         24
 total electronic charge    =     24.0000000
 number of spin components  =  1

%%%% COMPUTE ELECTROSTATIC POTENTIAL %%%%%%%%%%%%%%%%%%%%%%%%%%%%%%%%%%%%%%%%%%%
 Starting from polarization: rhoiter =      2.003615 jellium =      0.000000
 Iteration #          1
 delta_qm =   0.241441E-04 delta_en =   0.100731E-02 tol =   0.100000E-04
 Iteration #          2
 delta_qm =   0.159843E-04 delta_en =   0.441500E-03 tol =   0.100000E-04
 Iteration #          3
 delta_qm =   0.615667E-05 delta_en =   0.654991E-04 tol =   0.100000E-04
 Iteration #          4
 delta_qm =   0.407705E-05 delta_en =   0.287234E-04 tol =   0.100000E-04
 Iteration #          5
 delta_qm =   0.223871E-05 delta_en =   0.866041E-05 tol =   0.100000E-04
 Charges are converged, EXIT

%%%% ELECTRONS %%%%%%%%%%%%%%%%%%%%%%%%%%%%%%%%%%%%%%%%%%%%%%%%%%%%%%%%%%%%%%%%%
 number of electrons        =         24
 total electronic charge    =     24.0000000
 number of spin components  =  1

%%%% COMPUTE ELECTROSTATIC POTENTIAL %%%%%%%%%%%%%%%%%%%%%%%%%%%%%%%%%%%%%%%%%%%
 Starting from polarization: rhoiter =      1.999780 jellium =      0.000000
 Iteration #          1
 delta_qm =   0.155190E-04 delta_en =   0.416172E-03 tol =   0.100000E-04
 Iteration #          2
 delta_qm =   0.859306E-05 delta_en =   0.127597E-03 tol =   0.100000E-04
 Iteration #          3
 delta_qm =   0.349271E-05 delta_en =   0.210799E-04 tol =   0.100000E-04
 Iteration #          4
 delta_qm =   0.231661E-05 delta_en =   0.927367E-05 tol =   0.100000E-04
 Charges are converged, EXIT

%%%% ELECTRONS %%%%%%%%%%%%%%%%%%%%%%%%%%%%%%%%%%%%%%%%%%%%%%%%%%%%%%%%%%%%%%%%%
 number of electrons        =         24
 total electronic charge    =     24.0000000
 number of spin components  =  1

%%%% COMPUTE ELECTROSTATIC POTENTIAL %%%%%%%%%%%%%%%%%%%%%%%%%%%%%%%%%%%%%%%%%%%
 Starting from polarization: rhoiter =      2.002647 jellium =      0.000000
 Iteration #          1
 delta_qm =   0.105919E-04 delta_en =   0.193863E-03 tol =   0.100000E-04
 Iteration #          2
 delta_qm =   0.721450E-05 delta_en =   0.899407E-04 tol =   0.100000E-04
 Iteration #          3
 delta_qm =   0.229491E-05 delta_en =   0.910068E-05 tol =   0.100000E-04
 Charges are converged, EXIT

%%%% ELECTRONS %%%%%%%%%%%%%%%%%%%%%%%%%%%%%%%%%%%%%%%%%%%%%%%%%%%%%%%%%%%%%%%%%
 number of electrons        =         24
 total electronic charge    =     24.0000000
 number of spin components  =  1

%%%% COMPUTE ELECTROSTATIC POTENTIAL %%%%%%%%%%%%%%%%%%%%%%%%%%%%%%%%%%%%%%%%%%%
 Starting from polarization: rhoiter =      2.001333 jellium =      0.000000
 Iteration #          1
 delta_qm =   0.489292E-04 delta_en =   0.413694E-02 tol =   0.100000E-04
 Iteration #          2
 delta_qm =   0.308877E-04 delta_en =   0.164860E-02 tol =   0.100000E-04
 Iteration #          3
 delta_qm =   0.997977E-05 delta_en =   0.172101E-03 tol =   0.100000E-04
 Iteration #          4
 delta_qm =   0.615379E-05 delta_en =   0.654378E-04 tol =   0.100000E-04
 Iteration #          5
 delta_qm =   0.315792E-05 delta_en =   0.172324E-04 tol =   0.100000E-04
 Iteration #          6
 delta_qm =   0.167290E-05 delta_en =   0.483598E-05 tol =   0.100000E-04
 Charges are converged, EXIT

%%%% ELECTRONS %%%%%%%%%%%%%%%%%%%%%%%%%%%%%%%%%%%%%%%%%%%%%%%%%%%%%%%%%%%%%%%%%
 number of electrons        =         24
 total electronic charge    =     24.0000000
 number of spin components  =  1

%%%% COMPUTE ELECTROSTATIC POTENTIAL %%%%%%%%%%%%%%%%%%%%%%%%%%%%%%%%%%%%%%%%%%%
 Starting from polarization: rhoiter =      2.010807 jellium =      0.000000
 Iteration #          1
 delta_qm =   0.328110E-05 delta_en =   0.186030E-04 tol =   0.100000E-04
 Iteration #          2
 delta_qm =   0.173547E-05 delta_en =   0.520450E-05 tol =   0.100000E-04
 Charges are converged, EXIT

%%%% ELECTRONS %%%%%%%%%%%%%%%%%%%%%%%%%%%%%%%%%%%%%%%%%%%%%%%%%%%%%%%%%%%%%%%%%
 number of electrons        =         24
 total electronic charge    =     24.0000000
 number of spin components  =  1

%%%% COMPUTE ELECTROSTATIC POTENTIAL %%%%%%%%%%%%%%%%%%%%%%%%%%%%%%%%%%%%%%%%%%%
 Starting from polarization: rhoiter =      2.010003 jellium =      0.000000
 Iteration #          1
 delta_qm =   0.442271E-04 delta_en =   0.338003E-02 tol =   0.100000E-04
 Iteration #          2
 delta_qm =   0.280070E-04 delta_en =   0.135543E-02 tol =   0.100000E-04
 Iteration #          3
 delta_qm =   0.999360E-05 delta_en =   0.172579E-03 tol =   0.100000E-04
 Iteration #          4
 delta_qm =   0.652296E-05 delta_en =   0.735247E-04 tol =   0.100000E-04
 Iteration #          5
 delta_qm =   0.343343E-05 delta_en =   0.203704E-04 tol =   0.100000E-04
 Iteration #          6
 delta_qm =   0.200186E-05 delta_en =   0.692489E-05 tol =   0.100000E-04
 Charges are converged, EXIT

%%%% ELECTRONS %%%%%%%%%%%%%%%%%%%%%%%%%%%%%%%%%%%%%%%%%%%%%%%%%%%%%%%%%%%%%%%%%
 number of electrons        =         24
 total electronic charge    =     24.0000000
 number of spin components  =  1

%%%% COMPUTE ELECTROSTATIC POTENTIAL %%%%%%%%%%%%%%%%%%%%%%%%%%%%%%%%%%%%%%%%%%%
 Starting from polarization: rhoiter =      2.001582 jellium =      0.000000
 Iteration #          1
 delta_qm =   0.773773E-05 delta_en =   0.103460E-03 tol =   0.100000E-04
 Iteration #          2
 delta_qm =   0.401697E-05 delta_en =   0.278831E-04 tol =   0.100000E-04
 Iteration #          3
 delta_qm =   0.259542E-05 delta_en =   0.116402E-04 tol =   0.100000E-04
 Iteration #          4
 delta_qm =   0.182356E-05 delta_en =   0.574627E-05 tol =   0.100000E-04
 Charges are converged, EXIT

%%%% ELECTRONS %%%%%%%%%%%%%%%%%%%%%%%%%%%%%%%%%%%%%%%%%%%%%%%%%%%%%%%%%%%%%%%%%
 number of electrons        =         24
 total electronic charge    =     24.0000000
 number of spin components  =  1

%%%% COMPUTE ELECTROSTATIC POTENTIAL %%%%%%%%%%%%%%%%%%%%%%%%%%%%%%%%%%%%%%%%%%%
 Starting from polarization: rhoiter =      2.001580 jellium =      0.000000
 Iteration #          1
 delta_qm =   0.120178E-04 delta_en =   0.249573E-03 tol =   0.100000E-04
 Iteration #          2
 delta_qm =   0.751998E-05 delta_en =   0.977184E-04 tol =   0.100000E-04
 Iteration #          3
 delta_qm =   0.277378E-05 delta_en =   0.132950E-04 tol =   0.100000E-04
 Iteration #          4
 delta_qm =   0.179266E-05 delta_en =   0.555314E-05 tol =   0.100000E-04
 Charges are converged, EXIT

%%%% ELECTRONS %%%%%%%%%%%%%%%%%%%%%%%%%%%%%%%%%%%%%%%%%%%%%%%%%%%%%%%%%%%%%%%%%
 number of electrons        =         24
 total electronic charge    =     24.0000000
 number of spin components  =  1

%%%% COMPUTE ELECTROSTATIC POTENTIAL %%%%%%%%%%%%%%%%%%%%%%%%%%%%%%%%%%%%%%%%%%%
 Starting from polarization: rhoiter =      1.999457 jellium =      0.000000
 Iteration #          1
 delta_qm =   0.817635E-05 delta_en =   0.115521E-03 tol =   0.100000E-04
 Iteration #          2
 delta_qm =   0.473720E-05 delta_en =   0.387781E-04 tol =   0.100000E-04
 Iteration #          3
 delta_qm =   0.153470E-05 delta_en =   0.406995E-05 tol =   0.100000E-04
 Charges are converged, EXIT

%%%% ELECTRONS %%%%%%%%%%%%%%%%%%%%%%%%%%%%%%%%%%%%%%%%%%%%%%%%%%%%%%%%%%%%%%%%%
 number of electrons        =         24
 total electronic charge    =     24.0000000
 number of spin components  =  1

%%%% COMPUTE ELECTROSTATIC POTENTIAL %%%%%%%%%%%%%%%%%%%%%%%%%%%%%%%%%%%%%%%%%%%
 Starting from polarization: rhoiter =      1.998107 jellium =      0.000000
 Iteration #          1
 delta_qm =   0.131007E-04 delta_en =   0.296572E-03 tol =   0.100000E-04
 Iteration #          2
 delta_qm =   0.862958E-05 delta_en =   0.128683E-03 tol =   0.100000E-04
 Iteration #          3
 delta_qm =   0.266023E-05 delta_en =   0.122287E-04 tol =   0.100000E-04
 Iteration #          4
 delta_qm =   0.163040E-05 delta_en =   0.459339E-05 tol =   0.100000E-04
 Charges are converged, EXIT

%%%% ELECTRONS %%%%%%%%%%%%%%%%%%%%%%%%%%%%%%%%%%%%%%%%%%%%%%%%%%%%%%%%%%%%%%%%%
 number of electrons        =         24
 total electronic charge    =     24.0000000
 number of spin components  =  1

%%%% COMPUTE ELECTROSTATIC POTENTIAL %%%%%%%%%%%%%%%%%%%%%%%%%%%%%%%%%%%%%%%%%%%
 Starting from polarization: rhoiter =      2.000250 jellium =      0.000000
 Iteration #          1
 delta_qm =   0.154739E-03 delta_en =   0.413757E-01 tol =   0.100000E-04
 Iteration #          2
 delta_qm =   0.992642E-04 delta_en =   0.170266E-01 tol =   0.100000E-04
 Iteration #          3
 delta_qm =   0.303427E-04 delta_en =   0.159093E-02 tol =   0.100000E-04
 Iteration #          4
 delta_qm =   0.187629E-04 delta_en =   0.608338E-03 tol =   0.100000E-04
 Iteration #          5
 delta_qm =   0.911914E-05 delta_en =   0.143698E-03 tol =   0.100000E-04
 Iteration #          6
 delta_qm =   0.444529E-05 delta_en =   0.341463E-04 tol =   0.100000E-04
 Iteration #          7
 delta_qm =   0.281405E-05 delta_en =   0.136838E-04 tol =   0.100000E-04
 Iteration #          8
 delta_qm =   0.159329E-05 delta_en =   0.438665E-05 tol =   0.100000E-04
 Charges are converged, EXIT

%%%% ELECTRONS %%%%%%%%%%%%%%%%%%%%%%%%%%%%%%%%%%%%%%%%%%%%%%%%%%%%%%%%%%%%%%%%%
 number of electrons        =         24
 total electronic charge    =     24.0000000
 number of spin components  =  1

%%%% COMPUTE ELECTROSTATIC POTENTIAL %%%%%%%%%%%%%%%%%%%%%%%%%%%%%%%%%%%%%%%%%%%
 Starting from polarization: rhoiter =      2.030862 jellium =      0.000000
 Iteration #          1
 delta_qm =   0.132193E-04 delta_en =   0.301967E-03 tol =   0.100000E-04
 Iteration #          2
 delta_qm =   0.684611E-05 delta_en =   0.809901E-04 tol =   0.100000E-04
 Iteration #          3
 delta_qm =   0.421946E-05 delta_en =   0.307651E-04 tol =   0.100000E-04
 Iteration #          4
 delta_qm =   0.308590E-05 delta_en =   0.164553E-04 tol =   0.100000E-04
 Iteration #          5
 delta_qm =   0.196772E-05 delta_en =   0.669067E-05 tol =   0.100000E-04
 Charges are converged, EXIT

%%%% ELECTRONS %%%%%%%%%%%%%%%%%%%%%%%%%%%%%%%%%%%%%%%%%%%%%%%%%%%%%%%%%%%%%%%%%
 number of electrons        =         24
 total electronic charge    =     24.0000000
 number of spin components  =  1

%%%% COMPUTE ELECTROSTATIC POTENTIAL %%%%%%%%%%%%%%%%%%%%%%%%%%%%%%%%%%%%%%%%%%%
 Starting from polarization: rhoiter =      2.031105 jellium =      0.000000
 Iteration #          1
 delta_qm =   0.178978E-04 delta_en =   0.553531E-03 tol =   0.100000E-04
 Iteration #          2
 delta_qm =   0.112005E-04 delta_en =   0.216780E-03 tol =   0.100000E-04
 Iteration #          3
 delta_qm =   0.456222E-05 delta_en =   0.359663E-04 tol =   0.100000E-04
 Iteration #          4
 delta_qm =   0.309506E-05 delta_en =   0.165532E-04 tol =   0.100000E-04
 Iteration #          5
 delta_qm =   0.169879E-05 delta_en =   0.498681E-05 tol =   0.100000E-04
 Charges are converged, EXIT

%%%% ELECTRONS %%%%%%%%%%%%%%%%%%%%%%%%%%%%%%%%%%%%%%%%%%%%%%%%%%%%%%%%%%%%%%%%%
 number of electrons        =         24
 total electronic charge    =     24.0000000
 number of spin components  =  1

%%%% COMPUTE ELECTROSTATIC POTENTIAL %%%%%%%%%%%%%%%%%%%%%%%%%%%%%%%%%%%%%%%%%%%
 Starting from polarization: rhoiter =      2.028114 jellium =      0.000000
 Iteration #          1
 delta_qm =   0.208526E-04 delta_en =   0.751388E-03 tol =   0.100000E-04
 Iteration #          2
 delta_qm =   0.126145E-04 delta_en =   0.274971E-03 tol =   0.100000E-04
 Iteration #          3
 delta_qm =   0.522202E-05 delta_en =   0.471218E-04 tol =   0.100000E-04
 Iteration #          4
 delta_qm =   0.363294E-05 delta_en =   0.228066E-04 tol =   0.100000E-04
 Iteration #          5
 delta_qm =   0.213245E-05 delta_en =   0.785780E-05 tol =   0.100000E-04
 Charges are converged, EXIT

%%%% ELECTRONS %%%%%%%%%%%%%%%%%%%%%%%%%%%%%%%%%%%%%%%%%%%%%%%%%%%%%%%%%%%%%%%%%
 number of electrons        =         24
 total electronic charge    =     24.0000000
 number of spin components  =  1

%%%% COMPUTE ELECTROSTATIC POTENTIAL %%%%%%%%%%%%%%%%%%%%%%%%%%%%%%%%%%%%%%%%%%%
 Starting from polarization: rhoiter =      2.025008 jellium =      0.000000
 Iteration #          1
 delta_qm =   0.886380E-05 delta_en =   0.135764E-03 tol =   0.100000E-04
 Iteration #          2
 delta_qm =   0.581018E-05 delta_en =   0.583342E-04 tol =   0.100000E-04
 Iteration #          3
 delta_qm =   0.173137E-05 delta_en =   0.517991E-05 tol =   0.100000E-04
 Charges are converged, EXIT

%%%% ELECTRONS %%%%%%%%%%%%%%%%%%%%%%%%%%%%%%%%%%%%%%%%%%%%%%%%%%%%%%%%%%%%%%%%%
 number of electrons        =         24
 total electronic charge    =     24.0000000
 number of spin components  =  1

%%%% COMPUTE ELECTROSTATIC POTENTIAL %%%%%%%%%%%%%%%%%%%%%%%%%%%%%%%%%%%%%%%%%%%
 Starting from polarization: rhoiter =      2.023797 jellium =      0.000000
 Iteration #          1
 delta_qm =   0.974877E-05 delta_en =   0.164226E-03 tol =   0.100000E-04
 Iteration #          2
 delta_qm =   0.595910E-05 delta_en =   0.613628E-04 tol =   0.100000E-04
 Iteration #          3
 delta_qm =   0.272062E-05 delta_en =   0.127903E-04 tol =   0.100000E-04
 Iteration #          4
 delta_qm =   0.190150E-05 delta_en =   0.624791E-05 tol =   0.100000E-04
 Charges are converged, EXIT

%%%% ELECTRONS %%%%%%%%%%%%%%%%%%%%%%%%%%%%%%%%%%%%%%%%%%%%%%%%%%%%%%%%%%%%%%%%%
 number of electrons        =         24
 total electronic charge    =     24.0000000
 number of spin components  =  1

%%%% COMPUTE ELECTROSTATIC POTENTIAL %%%%%%%%%%%%%%%%%%%%%%%%%%%%%%%%%%%%%%%%%%%
 Starting from polarization: rhoiter =      2.024744 jellium =      0.000000
 Iteration #          1
 delta_qm =   0.162237E-04 delta_en =   0.454824E-03 tol =   0.100000E-04
 Iteration #          2
 delta_qm =   0.104214E-04 delta_en =   0.187669E-03 tol =   0.100000E-04
 Iteration #          3
 delta_qm =   0.378759E-05 delta_en =   0.247896E-04 tol =   0.100000E-04
 Iteration #          4
 delta_qm =   0.248892E-05 delta_en =   0.107045E-04 tol =   0.100000E-04
 Iteration #          5
 delta_qm =   0.135123E-05 delta_en =   0.315502E-05 tol =   0.100000E-04
 Charges are converged, EXIT

%%%% ELECTRONS %%%%%%%%%%%%%%%%%%%%%%%%%%%%%%%%%%%%%%%%%%%%%%%%%%%%%%%%%%%%%%%%%
 number of electrons        =         24
 total electronic charge    =     24.0000000
 number of spin components  =  1

%%%% COMPUTE ELECTROSTATIC POTENTIAL %%%%%%%%%%%%%%%%%%%%%%%%%%%%%%%%%%%%%%%%%%%
 Starting from polarization: rhoiter =      2.021881 jellium =      0.000000
 Iteration #          1
 delta_qm =   0.406171E-04 delta_en =   0.285076E-02 tol =   0.100000E-04
 Iteration #          2
 delta_qm =   0.266291E-04 delta_en =   0.122534E-02 tol =   0.100000E-04
 Iteration #          3
 delta_qm =   0.777417E-05 delta_en =   0.104436E-03 tol =   0.100000E-04
 Iteration #          4
 delta_qm =   0.468121E-05 delta_en =   0.378670E-04 tol =   0.100000E-04
 Iteration #          5
 delta_qm =   0.217253E-05 delta_en =   0.815593E-05 tol =   0.100000E-04
 Charges are converged, EXIT

%%%% ELECTRONS %%%%%%%%%%%%%%%%%%%%%%%%%%%%%%%%%%%%%%%%%%%%%%%%%%%%%%%%%%%%%%%%%
 number of electrons        =         24
 total electronic charge    =     24.0000000
 number of spin components  =  1
