
     Program PWSCF v.6.4.1 starts on 24Apr2019 at 15:14:15 

     This program is part of the open-source Quantum ESPRESSO suite
     for quantum simulation of materials; please cite
         "P. Giannozzi et al., J. Phys.:Condens. Matter 21 395502 (2009);
         "P. Giannozzi et al., J. Phys.:Condens. Matter 29 465901 (2017);
          URL http://www.quantum-espresso.org", 
     in publications or presentations arising from this work. More details at
     http://www.quantum-espresso.org/quote

     Parallel version (MPI), running on     1 processors

     MPI processes distributed on     1 nodes
     Reading input from neutral.in

     Current dimensions of program PWSCF are:
     Max number of different atomic species (ntypx) = 10
     Max number of k-points (npk) =  40000
     Max angular momentum in pseudopotentials (lmaxx) =  3
               file H.pbe-rrkjus.UPF: wavefunction(s)  1S renormalized
               file O.pbe-rrkjus.UPF: wavefunction(s)  2S renormalized

     gamma-point specific algorithms are used

     Subspace diagonalization in iterative solution of the eigenvalue problem:
     a serial algorithm will be used

 
     G-vector sticks info
     --------------------
     sticks:   dense  smooth     PW     G-vecs:    dense   smooth      PW
     Sum        9549    3809    949               701475   177509   22119
 


     bravais-lattice index     =            1
     lattice parameter (alat)  =      20.0000  a.u.
     unit-cell volume          =    8000.0000 (a.u.)^3
     number of atoms/cell      =            3
     number of atomic types    =            2
     number of electrons       =         8.00
     number of Kohn-Sham states=            4
     kinetic-energy cutoff     =      30.0000  Ry
     charge density cutoff     =     300.0000  Ry
     convergence threshold     =      5.0E-03
     mixing beta               =       0.7000
     number of iterations used =            8  plain     mixing
     Exchange-correlation      = SLA PW PBE PBE ( 1  4  3  4 0 0)
 

     Environ Module
     ==============

     Plese cite
         O. Andreussi, I. Dabo and N. Marzari, J. Chem. Phys. 136, 064102 (2012)         
     in publications or presentations arising from this work.

     compensation onset threshold      =               0.1000E+03 
     static permittivity               =                   100.00 
     epsilon calculation mode          =                   system 

     Electrostatic Setup
     -------------------
     electrostatic problem to solve    = generalized              
     numerical solver adopted          = cg                       
     type of auxiliary density adopted = none                     
     type of core tool for poisson     = fft                      
     type of core tool for s(r) deriv  = analytic                 



     celldm(1)=  20.000000  celldm(2)=   0.000000  celldm(3)=   0.000000
     celldm(4)=   0.000000  celldm(5)=   0.000000  celldm(6)=   0.000000

     crystal axes: (cart. coord. in units of alat)
               a(1) = (   1.000000   0.000000   0.000000 )  
               a(2) = (   0.000000   1.000000   0.000000 )  
               a(3) = (   0.000000   0.000000   1.000000 )  

     reciprocal axes: (cart. coord. in units 2 pi/alat)
               b(1) = (  1.000000  0.000000  0.000000 )  
               b(2) = (  0.000000  1.000000  0.000000 )  
               b(3) = (  0.000000  0.000000  1.000000 )  


     PseudoPot. # 1 for H  read from file:
     /home/fnattino/Programs/quantumespresso/q-e-qe-6.4.1-develop/Environ/tests/../..//pseudo/H.pbe-rrkjus.UPF
     MD5 check sum: 2d52a7f45632fd764c17cc6affed14c8
     Pseudo is Ultrasoft, Zval =  1.0
     Generated by new atomic code, or converted to UPF format
     Using radial grid of 1061 points,  2 beta functions with: 
                l(1) =   0
                l(2) =   0
     Q(r) pseudized with 0 coefficients 


     PseudoPot. # 2 for O  read from file:
     /home/fnattino/Programs/quantumespresso/q-e-qe-6.4.1-develop/Environ/tests/../..//pseudo/O.pbe-rrkjus.UPF
     MD5 check sum: fadcf19ee70a498d3030e2e79cf929a4
     Pseudo is Ultrasoft, Zval =  6.0
     Generated by new atomic code, or converted to UPF format
     Using radial grid of 1269 points,  4 beta functions with: 
                l(1) =   0
                l(2) =   0
                l(3) =   1
                l(4) =   1
     Q(r) pseudized with 0 coefficients 


     atomic species   valence    mass     pseudopotential
        H              1.00     1.00000     H ( 1.00)
        O              6.00    16.00000     O ( 1.00)

     No symmetry found



   Cartesian axes

     site n.     atom                  positions (alat units)
         1           O   tau(   1) = (   0.5895000   0.6025000   0.5750000  )
         2           H   tau(   2) = (   0.6725000   0.5610000   0.5750000  )
         3           H   tau(   3) = (   0.5280000   0.5330000   0.5750000  )

     number of k points=     1
                       cart. coord. in units 2pi/alat
        k(    1) = (   0.0000000   0.0000000   0.0000000), wk =   2.0000000

     Dense  grid:   350738 G-vectors     FFT dimensions: ( 120, 120, 120)

     Smooth grid:    88755 G-vectors     FFT dimensions: (  72,  72,  72)

     Estimated max dynamical RAM per process >     548.70 MB

     Initial potential from superposition of free atoms

     starting charge    7.80759, renormalised to    8.00000

     negative rho (up, down):  7.936E-04 0.000E+00
     Starting wfcs are    6 randomized atomic wfcs

     total cpu time spent up to now is        3.3 secs

     Self-consistent Calculation

     iteration #  1     ecut=    30.00 Ry     beta= 0.70
     Davidson diagonalization with overlap
     ethr =  1.00E-02,  avg # of iterations =  2.0

     negative rho (up, down):  2.595E-04 0.000E+00

     add environment contribution to local potential
     polarization accuracy = 9.4E-06, # of iterations =  10

     total cpu time spent up to now is        5.9 secs

     total energy              =     -34.06237118 Ry
     Harris-Foulkes estimate   =     -34.58698941 Ry
     estimated scf accuracy    <       0.68459185 Ry
     electrostatic embedding   =       0.00000000 Ry
     correction to one-el term =       0.00000000 Ry

     iteration #  2     ecut=    30.00 Ry     beta= 0.70
     Davidson diagonalization with overlap
     ethr =  8.56E-03,  avg # of iterations =  2.0

     negative rho (up, down):  3.133E-03 0.000E+00

     add environment contribution to local potential
     polarization accuracy = 7.6E-06, # of iterations =  10

     total cpu time spent up to now is        8.7 secs

     total energy              =     -34.16929579 Ry
     Harris-Foulkes estimate   =     -34.27207457 Ry
     estimated scf accuracy    <       0.45097339 Ry
     electrostatic embedding   =      -0.00755198 Ry
     correction to one-el term =      -0.11558358 Ry

     iteration #  3     ecut=    30.00 Ry     beta= 0.70
     Davidson diagonalization with overlap
     ethr =  5.64E-03,  avg # of iterations =  2.0

     negative rho (up, down):  3.007E-04 0.000E+00

     add environment contribution to local potential
     polarization accuracy = 7.4E-06, # of iterations =  10

     total cpu time spent up to now is       11.3 secs

     total energy              =     -34.26964755 Ry
     Harris-Foulkes estimate   =     -34.20090665 Ry
     estimated scf accuracy    <       0.01691591 Ry
     electrostatic embedding   =      -0.00473828 Ry
     correction to one-el term =      -0.07321362 Ry

     iteration #  4     ecut=    30.00 Ry     beta= 0.70
     Davidson diagonalization with overlap
     ethr =  2.11E-04,  avg # of iterations =  2.0

     negative rho (up, down):  2.167E-04 0.000E+00

     the potential shift due to the Gaussian-smeared nuclei is    -0.0214 ev

     total cpu time spent up to now is       12.3 secs

     End of self-consistent calculation

          k = 0.0000 0.0000 0.0000 ( 11060 PWs)   bands (ev):

   -24.9538 -12.8258  -9.0490  -7.0325

     highest occupied level (ev):    -7.0325

!    total energy              =     -34.27351135 Ry
     Harris-Foulkes estimate   =     -34.26575684 Ry
     estimated scf accuracy    <       0.00019339 Ry

     The total energy is the sum of the following terms:

     one-electron contribution =     -63.76050827 Ry
     hartree contribution      =      33.31594285 Ry
     xc contribution           =      -8.37848511 Ry
     ewald contribution        =       4.55735774 Ry
     electrostatic embedding   =      -0.00533021 Ry
     correction to one-el term =      -0.00248835 Ry

     convergence has been achieved in   4 iterations

     Forces acting on atoms (cartesian axes, Ry/au):

     atom    1 type  2   force =     0.00241897   -0.01260406   -0.00000213
     atom    2 type  1   force =    -0.01107199    0.00436015    0.00000110
     atom    3 type  1   force =     0.00865302    0.00824391    0.00000103

     Total force =     0.021193     Total SCF correction =     0.023799
     SCF correction compared to forces is large: reduce conv_thr to get better values

     Writing output data file pwscf.save/
 
     init_run     :      2.55s CPU      2.92s WALL (       1 calls)
     electrons    :      7.62s CPU      9.05s WALL (       1 calls)
     forces       :      0.60s CPU      0.73s WALL (       1 calls)

     Called by init_run:
     wfcinit      :      0.05s CPU      0.05s WALL (       1 calls)
     potinit      :      0.74s CPU      0.82s WALL (       1 calls)
     hinit0       :      1.51s CPU      1.60s WALL (       1 calls)

     Called by electrons:
     c_bands      :      0.33s CPU      0.34s WALL (       4 calls)
     sum_band     :      0.84s CPU      1.09s WALL (       4 calls)
     v_of_rho     :      2.34s CPU      2.60s WALL (       5 calls)
     newd         :      0.72s CPU      1.05s WALL (       5 calls)
     mix_rho      :      0.19s CPU      0.20s WALL (       4 calls)

     Called by c_bands:
     init_us_2    :      0.02s CPU      0.02s WALL (       9 calls)
     regterg      :      0.32s CPU      0.32s WALL (       4 calls)

     Called by sum_band:
     sum_band:bec :      0.00s CPU      0.00s WALL (       4 calls)
     addusdens    :      0.63s CPU      0.88s WALL (       4 calls)

     Called by *egterg:
     h_psi        :      0.35s CPU      0.34s WALL (      13 calls)
     s_psi        :      0.00s CPU      0.00s WALL (      13 calls)
     g_psi        :      0.00s CPU      0.00s WALL (       8 calls)
     rdiaghg      :      0.00s CPU      0.00s WALL (      12 calls)

     Called by h_psi:
     h_psi:pot    :      0.35s CPU      0.34s WALL (      13 calls)
     h_psi:calbec :      0.01s CPU      0.00s WALL (      13 calls)
     vloc_psi     :      0.34s CPU      0.34s WALL (      13 calls)
     add_vuspsi   :      0.00s CPU      0.00s WALL (      13 calls)

     General routines
     calbec       :      0.01s CPU      0.01s WALL (      21 calls)
     fft          :      2.87s CPU      2.98s WALL (     142 calls)
     ffts         :      0.03s CPU      0.04s WALL (       9 calls)
     fftw         :      0.32s CPU      0.30s WALL (      62 calls)
     interpolate  :      0.16s CPU      0.17s WALL (       5 calls)
 
     Parallel routines
 
     Environ routines
     calc_eelect  :      0.01s CPU      0.01s WALL (       8 calls)
     calc_velect  :      3.11s CPU      3.71s WALL (       6 calls)
     dielectric   :      0.12s CPU      0.14s WALL (       2 calls)
     calc_felect  :      0.05s CPU      0.05s WALL (       1 calls)
 
     PWSCF        :     11.12s CPU     13.08s WALL

 
   This run was terminated on:  15:14:28  24Apr2019            

=------------------------------------------------------------------------------=
   JOB DONE.
=------------------------------------------------------------------------------=

%%%% IONS %%%%%%%%%%%%%%%%%%%%%%%%%%%%%%%%%%%%%%%%%%%%%%%%%%%%%%%%%%%%%%%%%%%%%%
 number of ions             =          3
 ionic center of charge     =      0.5921875     0.5886250     0.5750000
 total ionic charge         =     -8.0000000
 ionic dipole               =      0.0000000     0.0000000     0.0000000
 ionic quadrupole (pc)      =     -4.2453875    -2.0049500     0.0000000
 ionic quadrupole (gauss)   =     -5.2453875    -3.0049500    -1.0000000
 ion   1 type =  2 coordinates =     11.7900000    12.0500000    11.5000000
 ion   2 type =  1 coordinates =     13.4500000    11.2200000    11.5000000
 ion   3 type =  1 coordinates =     10.5600000    10.6600000    11.5000000

%%%% SYSTEM %%%%%%%%%%%%%%%%%%%%%%%%%%%%%%%%%%%%%%%%%%%%%%%%%%%%%%%%%%%%%%%%%%%%
 system is built from all present ionic types
 system defined dimension   =  0 
 system defined axis        =  3 
 system center              =      0.5921875     0.5886250     0.5750000 
 system width               =      0.0849363 

%%%% BOUNDARY %%%%%%%%%%%%%%%%%%%%%%%%%%%%%%%%%%%%%%%%%%%%%%%%%%%%%%%%%%%%%%%%%%
 boundary label             = solvent              
 boundary mode              = system               
 boundary is built as an analytic function centered on system position
 center of the boundary     =      0.5921875     0.5886250     0.5750000 
 distance from the center   =      6.0000000 
 spread of the interface    =      0.5000000 
 dimensionality             =  0 
 axis                       =  3 
 volume of the QM region    =    914.2034622 
 surface of the QM region   =    453.9601384 

%%%% DIELECTRIC %%%%%%%%%%%%%%%%%%%%%%%%%%%%%%%%%%%%%%%%%%%%%%%%%%%%%%%%%%%%%%%%%
 dielectric build on homogeneous background
 environment bulk permitt.  =    100.0000000 
 dielectric flags
 need gradient              =  F 
 need factor depend. sqrt   =  T 
 total dielectric charge    =      0.0000000

%%%% ELECTRONS %%%%%%%%%%%%%%%%%%%%%%%%%%%%%%%%%%%%%%%%%%%%%%%%%%%%%%%%%%%%%%%%%
 number of electrons        =          8
 total electronic charge    =      8.0000000

%%%% DENSITY %%%%%%%%%%%%%%%%%%%%%%%%%%%%%%%%%%%%%%%%%%%%%%%%%%%%%%%%%%%%%%%%%%%
 density label              = vreference                                                                      
 integral of density        =      0.000000000    

%%%% DENSITY %%%%%%%%%%%%%%%%%%%%%%%%%%%%%%%%%%%%%%%%%%%%%%%%%%%%%%%%%%%%%%%%%%%
 density label              = velectrostatic                                                                  
 integral of density        =      0.000000000    

%%%% CHARGES %%%%%%%%%%%%%%%%%%%%%%%%%%%%%%%%%%%%%%%%%%%%%%%%%%%%%%%%%%%%%%%%%%%
 total number of charges    =         11
 total charge               =     -0.0000000

%%%% ELECTRONS %%%%%%%%%%%%%%%%%%%%%%%%%%%%%%%%%%%%%%%%%%%%%%%%%%%%%%%%%%%%%%%%%
 number of electrons        =          8
 total electronic charge    =      8.0000000

%%%% DENSITY %%%%%%%%%%%%%%%%%%%%%%%%%%%%%%%%%%%%%%%%%%%%%%%%%%%%%%%%%%%%%%%%%%%
 density label              = vreference                                                                      
 integral of density        =     0.7973868479E-13

%%%% COMPUTE ELECTROSTATIC POTENTIAL %%%%%%%%%%%%%%%%%%%%%%%%%%%%%%%%%%%%%%%%%%%
 Iteration #          1
  pAp =    26.2675708516460       rzold =    26.1491596621908       alpha = 
  0.995492114968534     
 delta_qm =   0.409125E-02 delta_en =   0.289238E+02 tol =   0.100000E-04
 Iteration #          2
  pAp =    6.99048983659209       rzold =   0.839429348499081       alpha = 
  0.120081620619065     
 delta_qm =   0.682790E-03 delta_en =   0.805598E+00 tol =   0.100000E-04
 Iteration #          3
  pAp =   6.150883893270948E-002  rzold =   1.008585981985409E-002  alpha = 
  0.163974153875478     
 delta_qm =   0.305062E-03 delta_en =   0.160813E+00 tol =   0.100000E-04
 Iteration #          4
  pAp =   3.706892258454336E-003  rzold =   6.465580295986640E-004  alpha = 
  0.174420507670288     
 delta_qm =   0.297579E-03 delta_en =   0.153020E+00 tol =   0.100000E-04
 Iteration #          5
  pAp =   4.790453339500428E-004  rzold =   2.130142167770740E-004  alpha = 
  0.444664005013121     
 delta_qm =   0.162142E-03 delta_en =   0.454294E-01 tol =   0.100000E-04
 Iteration #          6
  pAp =   3.030410632462352E-004  rzold =   1.190476231433477E-004  alpha = 
  0.392843207016522     
 delta_qm =   0.914286E-04 delta_en =   0.144447E-01 tol =   0.100000E-04
 Iteration #          7
  pAp =   2.023615255242623E-005  rzold =   1.783286147640440E-005  alpha = 
  0.881237746661794     
 delta_qm =   0.339398E-04 delta_en =   0.199050E-02 tol =   0.100000E-04
 Iteration #          8
  pAp =   3.312338678815078E-005  rzold =   1.135677656183205E-005  alpha = 
  0.342862782555035     
 delta_qm =   0.991943E-05 delta_en =   0.170027E-03 tol =   0.100000E-04
 Iteration #          9
  pAp =   6.331256446743967E-006  rzold =   1.415092577830388E-006  alpha = 
  0.223508965358391     
 delta_qm =   0.530878E-05 delta_en =   0.487006E-04 tol =   0.100000E-04
 Iteration #         10
  pAp =   1.197848406702853E-007  rzold =   6.808342792539183E-008  alpha = 
  0.568381003342446     
 delta_qm =   0.232733E-05 delta_en =   0.935968E-05 tol =   0.100000E-04
 Charges are converged, EXIT

%%%% DENSITY %%%%%%%%%%%%%%%%%%%%%%%%%%%%%%%%%%%%%%%%%%%%%%%%%%%%%%%%%%%%%%%%%%%
 density label              = velectrostatic                                                                  
 integral of density        =     0.1668459609E-12

%%%% CHARGES %%%%%%%%%%%%%%%%%%%%%%%%%%%%%%%%%%%%%%%%%%%%%%%%%%%%%%%%%%%%%%%%%%%
 total number of charges    =         11
 total charge               =      0.0000000

%%%% ELECTRONS %%%%%%%%%%%%%%%%%%%%%%%%%%%%%%%%%%%%%%%%%%%%%%%%%%%%%%%%%%%%%%%%%
 number of electrons        =          8
 total electronic charge    =      8.0000000

%%%% DENSITY %%%%%%%%%%%%%%%%%%%%%%%%%%%%%%%%%%%%%%%%%%%%%%%%%%%%%%%%%%%%%%%%%%%
 density label              = vreference                                                                      
 integral of density        =     0.5388282413E-13

%%%% COMPUTE ELECTROSTATIC POTENTIAL %%%%%%%%%%%%%%%%%%%%%%%%%%%%%%%%%%%%%%%%%%%
 Warning: bad guess with residual norm =   0.173620E+02, reset to no guess
 Iteration #          1
  pAp =    28.6261192395449       rzold =    28.5568175540449       alpha = 
  0.997579075077552     
 delta_qm =   0.316354E-02 delta_en =   0.172938E+02 tol =   0.100000E-04
 Iteration #          2
  pAp =    3.86348218432937       rzold =   0.475801322617263       alpha = 
  0.123153492087308     
 delta_qm =   0.593160E-03 delta_en =   0.607978E+00 tol =   0.100000E-04
 Iteration #          3
  pAp =   4.454732967685253E-002  rzold =   7.486965564830659E-003  alpha = 
  0.168067662397304     
 delta_qm =   0.287246E-03 delta_en =   0.142577E+00 tol =   0.100000E-04
 Iteration #          4
  pAp =   1.345890037525368E-003  rzold =   3.077034908588209E-004  alpha = 
  0.228624540103278     
 delta_qm =   0.278814E-03 delta_en =   0.134330E+00 tol =   0.100000E-04
 Iteration #          5
  pAp =   5.539982091546631E-004  rzold =   2.055482429082921E-004  alpha = 
  0.371026908592240     
 delta_qm =   0.148330E-03 delta_en =   0.380190E-01 tol =   0.100000E-04
 Iteration #          6
  pAp =   2.837440660624396E-004  rzold =   1.096425481551866E-004  alpha = 
  0.386413536947973     
 delta_qm =   0.845240E-04 delta_en =   0.123454E-01 tol =   0.100000E-04
 Iteration #          7
  pAp =   2.186368341337356E-005  rzold =   1.737832807585322E-005  alpha = 
  0.794849053898359     
 delta_qm =   0.300512E-04 delta_en =   0.156052E-02 tol =   0.100000E-04
 Iteration #          8
  pAp =   2.819175941238303E-005  rzold =   9.325319827549462E-006  alpha = 
  0.330781761121776     
 delta_qm =   0.873565E-05 delta_en =   0.131866E-03 tol =   0.100000E-04
 Iteration #          9
  pAp =   5.118115876372368E-006  rzold =   1.152988847488394E-006  alpha = 
  0.225276034255327     
 delta_qm =   0.451851E-05 delta_en =   0.352805E-04 tol =   0.100000E-04
 Iteration #         10
  pAp =   8.700912814650595E-008  rzold =   4.740679020169689E-008  alpha = 
  0.544848468333959     
 delta_qm =   0.209528E-05 delta_en =   0.758627E-05 tol =   0.100000E-04
 Charges are converged, EXIT

%%%% DENSITY %%%%%%%%%%%%%%%%%%%%%%%%%%%%%%%%%%%%%%%%%%%%%%%%%%%%%%%%%%%%%%%%%%%
 density label              = velectrostatic                                                                  
 integral of density        =    -0.9789699915E-13

%%%% CHARGES %%%%%%%%%%%%%%%%%%%%%%%%%%%%%%%%%%%%%%%%%%%%%%%%%%%%%%%%%%%%%%%%%%%
 total number of charges    =         11
 total charge               =     -0.0000000

%%%% ELECTRONS %%%%%%%%%%%%%%%%%%%%%%%%%%%%%%%%%%%%%%%%%%%%%%%%%%%%%%%%%%%%%%%%%
 number of electrons        =          8
 total electronic charge    =      8.0000000

%%%% DENSITY %%%%%%%%%%%%%%%%%%%%%%%%%%%%%%%%%%%%%%%%%%%%%%%%%%%%%%%%%%%%%%%%%%%
 density label              = vreference                                                                      
 integral of density        =    -0.1257923806E-12

%%%% COMPUTE ELECTROSTATIC POTENTIAL %%%%%%%%%%%%%%%%%%%%%%%%%%%%%%%%%%%%%%%%%%%
 Warning: bad guess with residual norm =   0.208364E+02, reset to no guess
 Iteration #          1
  pAp =    28.5156748434612       rzold =    28.4355433451238       alpha = 
  0.997189914011250     
 delta_qm =   0.346449E-02 delta_en =   0.207407E+02 tol =   0.100000E-04
 Iteration #          2
  pAp =    4.46863285164665       rzold =   0.550851915874951       alpha = 
  0.123270793140226     
 delta_qm =   0.506128E-03 delta_en =   0.442654E+00 tol =   0.100000E-04
 Iteration #          3
  pAp =   4.488577746528623E-002  rzold =   7.642531585324062E-003  alpha = 
  0.170266218319035     
 delta_qm =   0.254219E-03 delta_en =   0.111676E+00 tol =   0.100000E-04
 Iteration #          4
  pAp =   7.278293900624764E-004  rzold =   2.096748145489042E-004  alpha = 
  0.288082368494223     
 delta_qm =   0.165526E-03 delta_en =   0.473455E-01 tol =   0.100000E-04
 Iteration #          5
  pAp =   5.964275278655356E-004  rzold =   1.668804968009978E-004  alpha = 
  0.279800124917475     
 delta_qm =   0.137087E-03 delta_en =   0.324741E-01 tol =   0.100000E-04
 Iteration #          6
  pAp =   2.213122747666941E-004  rzold =   8.078631035139868E-005  alpha = 
  0.365033120899250     
 delta_qm =   0.813098E-04 delta_en =   0.114243E-01 tol =   0.100000E-04
 Iteration #          7
  pAp =   1.502633284787825E-005  rzold =   1.208825994353085E-005  alpha = 
  0.804471727460618     
 delta_qm =   0.323188E-04 delta_en =   0.180491E-02 tol =   0.100000E-04
 Iteration #          8
  pAp =   2.306027397256338E-005  rzold =   8.190807054332334E-006  alpha = 
  0.355191229040799     
 delta_qm =   0.864513E-05 delta_en =   0.129148E-03 tol =   0.100000E-04
 Iteration #          9
  pAp =   5.303023801686362E-006  rzold =   1.211855504369713E-006  alpha = 
  0.228521603841254     
 delta_qm =   0.417282E-05 delta_en =   0.300886E-04 tol =   0.100000E-04
 Iteration #         10
  pAp =   9.054478673934075E-008  rzold =   4.982568129053894E-008  alpha = 
  0.550287687285371     
 delta_qm =   0.206317E-05 delta_en =   0.735555E-05 tol =   0.100000E-04
 Charges are converged, EXIT

%%%% DENSITY %%%%%%%%%%%%%%%%%%%%%%%%%%%%%%%%%%%%%%%%%%%%%%%%%%%%%%%%%%%%%%%%%%%
 density label              = velectrostatic                                                                  
 integral of density        =     0.9737067120E-13

%%%% CHARGES %%%%%%%%%%%%%%%%%%%%%%%%%%%%%%%%%%%%%%%%%%%%%%%%%%%%%%%%%%%%%%%%%%%
 total number of charges    =         11
 total charge               =      0.0000000

%%%% ELECTRONS %%%%%%%%%%%%%%%%%%%%%%%%%%%%%%%%%%%%%%%%%%%%%%%%%%%%%%%%%%%%%%%%%
 number of electrons        =          8
 total electronic charge    =      8.0000000

%%%% DENSITY %%%%%%%%%%%%%%%%%%%%%%%%%%%%%%%%%%%%%%%%%%%%%%%%%%%%%%%%%%%%%%%%%%%
 density label              = vreference                                                                      
 integral of density        =    -0.1257923806E-12

%%%% DENSITY %%%%%%%%%%%%%%%%%%%%%%%%%%%%%%%%%%%%%%%%%%%%%%%%%%%%%%%%%%%%%%%%%%%
 density label              = velectrostatic                                                                  
 integral of density        =     0.9737067120E-13

%%%% CHARGES %%%%%%%%%%%%%%%%%%%%%%%%%%%%%%%%%%%%%%%%%%%%%%%%%%%%%%%%%%%%%%%%%%%
 total number of charges    =         11
 total charge               =      0.0000000
