
     Program PWSCF v.7.0 starts on 22Apr2022 at 20:18:51 

     This program is part of the open-source Quantum ESPRESSO suite
     for quantum simulation of materials; please cite
         "P. Giannozzi et al., J. Phys.:Condens. Matter 21 395502 (2009);
         "P. Giannozzi et al., J. Phys.:Condens. Matter 29 465901 (2017);
         "P. Giannozzi et al., J. Chem. Phys. 152 154105 (2020);
          URL http://www.quantum-espresso.org", 
     in publications or presentations arising from this work. More details at
     http://www.quantum-espresso.org/quote

     Parallel version (MPI), running on     1 processors

     MPI processes distributed on     1 nodes
     22879 MiB available memory on the printing compute node when the environment starts
 
     Reading input from neutral.in

     Current dimensions of program PWSCF are:
     Max number of different atomic species (ntypx) = 10
     Max number of k-points (npk) =  40000
     Max angular momentum in pseudopotentials (lmaxx) =  4
 
     Reading input from environ.in:
     * using system solvent mode
     * setting boundary derivatives method to SCCS default
     
     file H.pbe-rrkjus.UPF: wavefunction(s)  1S renormalized
     file O.pbe-rrkjus.UPF: wavefunction(s)  2S renormalized

     gamma-point specific algorithms are used

     Subspace diagonalization in iterative solution of the eigenvalue problem:
     a serial algorithm will be used

 
     G-vector sticks info
     --------------------
     sticks:   dense  smooth     PW     G-vecs:    dense   smooth      PW
     Sum        9549    3809    949               701475   177509   22119
 
     Using Slab Decomposition
 


     bravais-lattice index     =            1
     lattice parameter (alat)  =      20.0000  a.u.
     unit-cell volume          =    8000.0000 (a.u.)^3
     number of atoms/cell      =            3
     number of atomic types    =            2
     number of electrons       =         8.00
     number of Kohn-Sham states=            4
     kinetic-energy cutoff     =      30.0000  Ry
     charge density cutoff     =     300.0000  Ry
     scf convergence threshold =      5.0E-03
     mixing beta               =       0.7000
     number of iterations used =            8  plain     mixing
     Exchange-correlation= SLA  PW   PBE  PBE
                           (   1   4   3   4   0   0   0)

     ================================================================================
 
                                  Environ Setup Summary

     ================================================================================
 
     Please cite

          O. Andreussi, I. Dabo and N. Marzari, J. Chem. Phys. 136, 064102 (2012)

     in publications or presentations arising from this work.

     ================================================================================
 
     Parameters
     ==========

     compensation onset threshold      =               0.1000E+03
     static permittivity               =                   100.00

     Solvent Boundary
     ================

     solvent mode                      =                   system
     derivatives method                =                    chain
     numerical core for derivatives    =                      fft
     switching function adopted        =                     SCCS
     density limit for vacuum region   =               0.5000E-02
     density limit for bulk solvent    =               0.1000E-03

     Electrostatic Setup
     ===================

     electrostatic problem to solve    =              generalized
     numerical solver adopted          =              fixed-point
     type of auxiliary density adopted =                     full
     numerical core for poisson        =                      fft

     ================================================================================
 

     celldm(1)=  20.000000  celldm(2)=   0.000000  celldm(3)=   0.000000
     celldm(4)=   0.000000  celldm(5)=   0.000000  celldm(6)=   0.000000

     crystal axes: (cart. coord. in units of alat)
               a(1) = (   1.000000   0.000000   0.000000 )  
               a(2) = (   0.000000   1.000000   0.000000 )  
               a(3) = (   0.000000   0.000000   1.000000 )  

     reciprocal axes: (cart. coord. in units 2 pi/alat)
               b(1) = (  1.000000  0.000000  0.000000 )  
               b(2) = (  0.000000  1.000000  0.000000 )  
               b(3) = (  0.000000  0.000000  1.000000 )  


     PseudoPot. # 1 for H  read from file:
     MD5 check sum: 2d52a7f45632fd764c17cc6affed14c8
     Pseudo is Ultrasoft, Zval =  1.0
     Generated by new atomic code, or converted to UPF format
     Using radial grid of 1061 points,  2 beta functions with: 
                l(1) =   0
                l(2) =   0
     Q(r) pseudized with 0 coefficients 


     PseudoPot. # 2 for O  read from file:
     MD5 check sum: fadcf19ee70a498d3030e2e79cf929a4
     Pseudo is Ultrasoft, Zval =  6.0
     Generated by new atomic code, or converted to UPF format
     Using radial grid of 1269 points,  4 beta functions with: 
                l(1) =   0
                l(2) =   0
                l(3) =   1
                l(4) =   1
     Q(r) pseudized with 0 coefficients 


     atomic species   valence    mass     pseudopotential
        H              1.00     1.00000     H ( 1.00)
        O              6.00    16.00000     O ( 1.00)

     No symmetry found



   Cartesian axes

     site n.     atom                  positions (alat units)
         1           O   tau(   1) = (   0.5895000   0.6025000   0.5750000  )
         2           H   tau(   2) = (   0.6725000   0.5610000   0.5750000  )
         3           H   tau(   3) = (   0.5280000   0.5330000   0.5750000  )

     number of k points=     1
                       cart. coord. in units 2pi/alat
        k(    1) = (   0.0000000   0.0000000   0.0000000), wk =   2.0000000

     Dense  grid:   350738 G-vectors     FFT dimensions: ( 120, 120, 120)

     Smooth grid:    88755 G-vectors     FFT dimensions: (  72,  72,  72)

     Estimated max dynamical RAM per process >     530.91 MB

     Initial potential from superposition of free atoms

     starting charge       7.8076, renormalised to       8.0000

     negative rho (up, down):  7.936E-04 0.000E+00
     Starting wfcs are    6 randomized atomic wfcs

     total cpu time spent up to now is        2.7 secs

     Self-consistent Calculation

     iteration #  1     ecut=    30.00 Ry     beta= 0.70
     Davidson diagonalization with overlap
     ethr =  1.00E-02,  avg # of iterations =  2.0

     negative rho (up, down):  2.568E-04 0.000E+00

     add environment contribution to local potential
     Polarization accuracy = 7.8E-06, # of iterations =  16

     total cpu time spent up to now is        7.8 secs

     total energy              =     -34.06919233 Ry
     estimated scf accuracy    <       0.67469661 Ry
     electrostatic embedding   =       0.00000000 Ry
     correction to one-el term =       0.00000000 Ry

     iteration #  2     ecut=    30.00 Ry     beta= 0.70
     Davidson diagonalization with overlap
     ethr =  8.43E-03,  avg # of iterations =  2.0

     negative rho (up, down):  2.548E-03 0.000E+00

     add environment contribution to local potential
     Polarization accuracy = 8.2E-06, # of iterations =  11

     total cpu time spent up to now is       11.4 secs

     total energy              =     -34.20990842 Ry
     estimated scf accuracy    <       0.34726500 Ry
     electrostatic embedding   =      -0.00806910 Ry
     correction to one-el term =      -0.13035611 Ry

     iteration #  3     ecut=    30.00 Ry     beta= 0.70
     Davidson diagonalization with overlap
     ethr =  4.34E-03,  avg # of iterations =  2.0

     negative rho (up, down):  4.102E-04 0.000E+00

     add environment contribution to local potential
     Polarization accuracy = 9.0E-06, # of iterations =   8

     total cpu time spent up to now is       14.1 secs

     total energy              =     -34.27157502 Ry
     estimated scf accuracy    <       0.00816402 Ry
     electrostatic embedding   =      -0.00515817 Ry
     correction to one-el term =      -0.08135651 Ry

     iteration #  4     ecut=    30.00 Ry     beta= 0.70
     Davidson diagonalization with overlap
     ethr =  1.02E-04,  avg # of iterations =  2.0

     negative rho (up, down):  2.117E-04 0.000E+00

     the potential shift due to the Gaussian-smeared nuclei is    -0.0214 ev

     total cpu time spent up to now is       14.9 secs

     End of self-consistent calculation

          k = 0.0000 0.0000 0.0000 ( 11060 PWs)   bands (ev):

   -25.0438 -12.8725  -9.1308  -7.1276

     highest occupied level (ev):    -7.1276

!    total energy              =     -34.27325542 Ry
     estimated scf accuracy    <       0.00083609 Ry

     The total energy is the sum of the following terms:
     one-electron contribution =     -63.88855103 Ry
     hartree contribution      =      33.48796786 Ry
     xc contribution           =      -8.41126553 Ry
     ewald contribution        =       4.55735774 Ry
     electrostatic embedding   =      -0.00525441 Ry
     correction to one-el term =      -0.01351006 Ry

     convergence has been achieved in   4 iterations

     Forces acting on atoms (cartesian axes, Ry/au):

     atom    1 type  2   force =     0.00225672   -0.01177554   -0.00002144
     atom    2 type  1   force =    -0.01719609    0.00273720    0.00001106
     atom    3 type  1   force =     0.01493936    0.00903834    0.00001038

     Total force =     0.027420     Total SCF correction =     0.036293
     SCF correction compared to forces is large: reduce conv_thr to get better values

 
     init_run     :      2.46s CPU      2.61s WALL (       1 calls)
     electrons    :     11.51s CPU     12.24s WALL (       1 calls)
     forces       :      0.67s CPU      0.77s WALL (       1 calls)

     Called by init_run:
     wfcinit      :      0.03s CPU      0.04s WALL (       1 calls)
     potinit      :      0.60s CPU      0.64s WALL (       1 calls)
     hinit0       :      1.34s CPU      1.35s WALL (       1 calls)

     Called by electrons:
     c_bands      :      0.23s CPU      0.24s WALL (       4 calls)
     sum_band     :      0.72s CPU      0.90s WALL (       4 calls)
     v_of_rho     :      1.99s CPU      2.19s WALL (       5 calls)
     newd         :      0.57s CPU      0.70s WALL (       5 calls)
     mix_rho      :      0.17s CPU      0.17s WALL (       4 calls)

     Called by c_bands:
     init_us_2    :      0.01s CPU      0.01s WALL (       9 calls)
     init_us_2:cp :      0.01s CPU      0.01s WALL (       9 calls)
     regterg      :      0.22s CPU      0.22s WALL (       4 calls)

     Called by *egterg:
     rdiaghg      :      0.00s CPU      0.00s WALL (      12 calls)
     h_psi        :      0.23s CPU      0.24s WALL (      13 calls)
     s_psi        :      0.00s CPU      0.00s WALL (      13 calls)
     g_psi        :      0.00s CPU      0.00s WALL (       8 calls)

     Called by h_psi:
     h_psi:calbec :      0.00s CPU      0.00s WALL (      13 calls)
     vloc_psi     :      0.23s CPU      0.23s WALL (      13 calls)
     add_vuspsi   :      0.00s CPU      0.00s WALL (      13 calls)

     General routines
     calbec       :      0.00s CPU      0.00s WALL (      21 calls)
     fft          :      0.93s CPU      0.95s WALL (      55 calls)
     ffts         :      0.03s CPU      0.03s WALL (       9 calls)
     fftw         :      0.19s CPU      0.19s WALL (      62 calls)
     interpolate  :      0.12s CPU      0.12s WALL (       5 calls)
 
     Parallel routines
 
     Environ routines
 
     PWSCF        :     14.69s CPU     15.70s WALL

 
   This run was terminated on:  20:19: 7  22Apr2022            

=------------------------------------------------------------------------------=
   JOB DONE.
=------------------------------------------------------------------------------=

%%%% CELL %%%%%%%%%%%%%%%%%%%%%%%%%%%%%%%%%%%%%%%%%%%%%%%%%%%%%%%%%%%%%%%%%%%%%%

 cell label                 = system         

 cell volume                =    8000.000000

%%%% IONS %%%%%%%%%%%%%%%%%%%%%%%%%%%%%%%%%%%%%%%%%%%%%%%%%%%%%%%%%%%%%%%%%%%%%%

 total charge               =     -8.0000000
 center of charge           =     11.8140581    11.9257928    11.5000000
 dipole                     =      0.0000000     0.0000000     0.0000000
 quadrupole (pc)            =     -4.2524404    -2.1929396    -0.0000000
 quadrupole (gauss)         =     -5.2524404    -3.1929396    -1.0000000

   i | type | coordinates
 -----------------------------------------------------------------------
   1 |    2 |                     11.7900000    12.0500000    11.5000000
   2 |    1 |                     13.4500000    11.2200000    11.5000000
   3 |    1 |                     10.5600000    10.6600000    11.5000000

%%%% SYSTEM %%%%%%%%%%%%%%%%%%%%%%%%%%%%%%%%%%%%%%%%%%%%%%%%%%%%%%%%%%%%%%%%%%%%

 system is built from all present ionic types

 system defined dimension   =              0
 system defined axis        =              3

 system center              =     11.8140581    11.9257928    11.5000000
 system width               =      1.7818230

%%%% IONS %%%%%%%%%%%%%%%%%%%%%%%%%%%%%%%%%%%%%%%%%%%%%%%%%%%%%%%%%%%%%%%%%%%%%%

 total charge               =     -8.0000000
 center of charge           =     11.8140581    11.9257928    11.5000000
 dipole                     =      0.0000000     0.0000000     0.0000000
 quadrupole (pc)            =     -4.2524404    -2.1929396    -0.0000000
 quadrupole (gauss)         =     -5.2524404    -3.1929396    -1.0000000

   i | type | coordinates
 -----------------------------------------------------------------------
   1 |    2 |                     11.7900000    12.0500000    11.5000000
   2 |    1 |                     13.4500000    11.2200000    11.5000000
   3 |    1 |                     10.5600000    10.6600000    11.5000000

%%%% SYSTEM %%%%%%%%%%%%%%%%%%%%%%%%%%%%%%%%%%%%%%%%%%%%%%%%%%%%%%%%%%%%%%%%%%%%

 system is built from all present ionic types

 system defined dimension   =              0
 system defined axis        =              3

 system center              =     11.8140581    11.9257928    11.5000000
 system width               =      1.7818230

%%%% BOUNDARY %%%%%%%%%%%%%%%%%%%%%%%%%%%%%%%%%%%%%%%%%%%%%%%%%%%%%%%%%%%%%%%%%%

 boundary label             = solvent             
 boundary mode              = system              

 boundary is built as an analytic function centered on system position:
 center of the boundary     =     11.8140581    11.9257928    11.5000000
 distance from the center   =      6.0000000
 spread of the interface    =      0.5000000
 dimensionality             =              0
 axis                       =              3

 volume of the QM region    =    914.2034622

 surface of the QM region   =    453.9601384

%%%% CHARGES %%%%%%%%%%%%%%%%%%%%%%%%%%%%%%%%%%%%%%%%%%%%%%%%%%%%%%%%%%%%%%%%%%%

 total number of charges    =              3

 total charge               =     -8.0000000

%%%% CHARGES %%%%%%%%%%%%%%%%%%%%%%%%%%%%%%%%%%%%%%%%%%%%%%%%%%%%%%%%%%%%%%%%%%%

 total number of charges    =              3

 total charge               =     -8.0000000

%%%% CELL %%%%%%%%%%%%%%%%%%%%%%%%%%%%%%%%%%%%%%%%%%%%%%%%%%%%%%%%%%%%%%%%%%%%%%

 cell label                 = system         

 cell volume                =    8000.000000

%%%% ELECTRONS %%%%%%%%%%%%%%%%%%%%%%%%%%%%%%%%%%%%%%%%%%%%%%%%%%%%%%%%%%%%%%%%%

 number of electrons        =              8

 total electronic charge    =      8.0000000

%%%% ELECTRONS %%%%%%%%%%%%%%%%%%%%%%%%%%%%%%%%%%%%%%%%%%%%%%%%%%%%%%%%%%%%%%%%%

 number of electrons        =              8

 total electronic charge    =      8.0000000

%%%% CHARGES %%%%%%%%%%%%%%%%%%%%%%%%%%%%%%%%%%%%%%%%%%%%%%%%%%%%%%%%%%%%%%%%%%%

 total number of charges    =             11

 total charge               =     -0.0000000

%%%% CHARGES %%%%%%%%%%%%%%%%%%%%%%%%%%%%%%%%%%%%%%%%%%%%%%%%%%%%%%%%%%%%%%%%%%%

 total number of charges    =             11

 total charge               =     -0.0000000

%%%% DENSITY %%%%%%%%%%%%%%%%%%%%%%%%%%%%%%%%%%%%%%%%%%%%%%%%%%%%%%%%%%%%%%%%%%%

 density label              = dvtot                                             

 integral of density        =    0.000000000    

%%%% DENSITY %%%%%%%%%%%%%%%%%%%%%%%%%%%%%%%%%%%%%%%%%%%%%%%%%%%%%%%%%%%%%%%%%%%

 density label              = vreference                                        

 integral of density        =    0.000000000    

%%%% DENSITY %%%%%%%%%%%%%%%%%%%%%%%%%%%%%%%%%%%%%%%%%%%%%%%%%%%%%%%%%%%%%%%%%%%

 density label              = velectrostatic                                    

 integral of density        =    0.000000000    

%%%% CHARGES %%%%%%%%%%%%%%%%%%%%%%%%%%%%%%%%%%%%%%%%%%%%%%%%%%%%%%%%%%%%%%%%%%%

 total number of charges    =             11

 total charge               =     -0.0000000

%%%% ELECTRONS %%%%%%%%%%%%%%%%%%%%%%%%%%%%%%%%%%%%%%%%%%%%%%%%%%%%%%%%%%%%%%%%%

 number of electrons        =              8

 total electronic charge    =      8.0000000

%%%% ELECTRONS %%%%%%%%%%%%%%%%%%%%%%%%%%%%%%%%%%%%%%%%%%%%%%%%%%%%%%%%%%%%%%%%%

 number of electrons        =              8

 total electronic charge    =      8.0000000

%%%% CHARGES %%%%%%%%%%%%%%%%%%%%%%%%%%%%%%%%%%%%%%%%%%%%%%%%%%%%%%%%%%%%%%%%%%%

 total number of charges    =             11

 total charge               =      0.0000000

%%%% CHARGES %%%%%%%%%%%%%%%%%%%%%%%%%%%%%%%%%%%%%%%%%%%%%%%%%%%%%%%%%%%%%%%%%%%

 total number of charges    =             11

 total charge               =      0.0000000

%%%% DENSITY %%%%%%%%%%%%%%%%%%%%%%%%%%%%%%%%%%%%%%%%%%%%%%%%%%%%%%%%%%%%%%%%%%%

 density label              = vreference                                        

 integral of density        =  -0.1213843840E-12

%%%% COMPUTE ELECTROSTATIC POTENTIAL %%%%%%%%%%%%%%%%%%%%%%%%%%%%%%%%%%%%%%%%%%%

 Starting from polarization: rhoiter =      0.000000

   i |    delta_qm    |    delta_en    |       tol
 ------------------------------------------------------
   1 |   0.654799E-03 |   0.740900E+00 |   0.100000E-04
   2 |   0.361850E-03 |   0.226257E+00 |   0.100000E-04
   3 |   0.273097E-03 |   0.128878E+00 |   0.100000E-04
   4 |   0.189972E-03 |   0.623626E-01 |   0.100000E-04
   5 |   0.120147E-03 |   0.249443E-01 |   0.100000E-04
   6 |   0.881400E-04 |   0.134242E-01 |   0.100000E-04
   7 |   0.597196E-04 |   0.616279E-02 |   0.100000E-04
   8 |   0.380642E-04 |   0.250368E-02 |   0.100000E-04
   9 |   0.283168E-04 |   0.138558E-02 |   0.100000E-04
  10 |   0.191234E-04 |   0.631939E-03 |   0.100000E-04
  11 |   0.130333E-04 |   0.293530E-03 |   0.100000E-04
  12 |   0.958820E-05 |   0.158861E-03 |   0.100000E-04
  13 |   0.630297E-05 |   0.686490E-04 |   0.100000E-04
  14 |   0.456342E-05 |   0.359853E-04 |   0.100000E-04
  15 |   0.337350E-05 |   0.196655E-04 |   0.100000E-04
  16 |   0.211998E-05 |   0.776618E-05 |   0.100000E-04

 Charges are converged, EXIT

%%%% DENSITY %%%%%%%%%%%%%%%%%%%%%%%%%%%%%%%%%%%%%%%%%%%%%%%%%%%%%%%%%%%%%%%%%%%

 density label              = velectrostatic                                    

 integral of density        =   0.2197419201E-13

%%%% CHARGES %%%%%%%%%%%%%%%%%%%%%%%%%%%%%%%%%%%%%%%%%%%%%%%%%%%%%%%%%%%%%%%%%%%

 total number of charges    =             11

 total charge               =      0.0000000

%%%% DENSITY %%%%%%%%%%%%%%%%%%%%%%%%%%%%%%%%%%%%%%%%%%%%%%%%%%%%%%%%%%%%%%%%%%%

 density label              = dvtot                                             

 integral of density        =   0.3951982774E-13

%%%% ELECTRONS %%%%%%%%%%%%%%%%%%%%%%%%%%%%%%%%%%%%%%%%%%%%%%%%%%%%%%%%%%%%%%%%%

 number of electrons        =              8

 total electronic charge    =      8.0000000

%%%% ELECTRONS %%%%%%%%%%%%%%%%%%%%%%%%%%%%%%%%%%%%%%%%%%%%%%%%%%%%%%%%%%%%%%%%%

 number of electrons        =              8

 total electronic charge    =      8.0000000

%%%% CHARGES %%%%%%%%%%%%%%%%%%%%%%%%%%%%%%%%%%%%%%%%%%%%%%%%%%%%%%%%%%%%%%%%%%%

 total number of charges    =             11

 total charge               =     -0.0000000

%%%% CHARGES %%%%%%%%%%%%%%%%%%%%%%%%%%%%%%%%%%%%%%%%%%%%%%%%%%%%%%%%%%%%%%%%%%%

 total number of charges    =             11

 total charge               =     -0.0000000

%%%% DENSITY %%%%%%%%%%%%%%%%%%%%%%%%%%%%%%%%%%%%%%%%%%%%%%%%%%%%%%%%%%%%%%%%%%%

 density label              = vreference                                        

 integral of density        =  -0.1309898692E-12

%%%% COMPUTE ELECTROSTATIC POTENTIAL %%%%%%%%%%%%%%%%%%%%%%%%%%%%%%%%%%%%%%%%%%%

 Starting from polarization: rhoiter =      0.170921

   i |    delta_qm    |    delta_en    |       tol
 ------------------------------------------------------
   1 |   0.176475E-03 |   0.538161E-01 |   0.100000E-04
   2 |   0.101258E-03 |   0.177176E-01 |   0.100000E-04
   3 |   0.673200E-04 |   0.783126E-02 |   0.100000E-04
   4 |   0.420244E-04 |   0.305173E-02 |   0.100000E-04
   5 |   0.264077E-04 |   0.120505E-02 |   0.100000E-04
   6 |   0.181942E-04 |   0.572016E-03 |   0.100000E-04
   7 |   0.115591E-04 |   0.230883E-03 |   0.100000E-04
   8 |   0.700553E-05 |   0.848058E-04 |   0.100000E-04
   9 |   0.553188E-05 |   0.528798E-04 |   0.100000E-04
  10 |   0.346896E-05 |   0.207942E-04 |   0.100000E-04
  11 |   0.218488E-05 |   0.824895E-05 |   0.100000E-04

 Charges are converged, EXIT

%%%% DENSITY %%%%%%%%%%%%%%%%%%%%%%%%%%%%%%%%%%%%%%%%%%%%%%%%%%%%%%%%%%%%%%%%%%%

 density label              = velectrostatic                                    

 integral of density        =  -0.2217156500E-13

%%%% CHARGES %%%%%%%%%%%%%%%%%%%%%%%%%%%%%%%%%%%%%%%%%%%%%%%%%%%%%%%%%%%%%%%%%%%

 total number of charges    =             11

 total charge               =     -0.0000000

%%%% DENSITY %%%%%%%%%%%%%%%%%%%%%%%%%%%%%%%%%%%%%%%%%%%%%%%%%%%%%%%%%%%%%%%%%%%

 density label              = dvtot                                             

 integral of density        =  -0.2981886857E-13

%%%% ELECTRONS %%%%%%%%%%%%%%%%%%%%%%%%%%%%%%%%%%%%%%%%%%%%%%%%%%%%%%%%%%%%%%%%%

 number of electrons        =              8

 total electronic charge    =      8.0000000

%%%% ELECTRONS %%%%%%%%%%%%%%%%%%%%%%%%%%%%%%%%%%%%%%%%%%%%%%%%%%%%%%%%%%%%%%%%%

 number of electrons        =              8

 total electronic charge    =      8.0000000

%%%% CHARGES %%%%%%%%%%%%%%%%%%%%%%%%%%%%%%%%%%%%%%%%%%%%%%%%%%%%%%%%%%%%%%%%%%%

 total number of charges    =             11

 total charge               =     -0.0000000

%%%% CHARGES %%%%%%%%%%%%%%%%%%%%%%%%%%%%%%%%%%%%%%%%%%%%%%%%%%%%%%%%%%%%%%%%%%%

 total number of charges    =             11

 total charge               =     -0.0000000

%%%% DENSITY %%%%%%%%%%%%%%%%%%%%%%%%%%%%%%%%%%%%%%%%%%%%%%%%%%%%%%%%%%%%%%%%%%%

 density label              = vreference                                        

 integral of density        =  -0.2192813832E-12

%%%% COMPUTE ELECTROSTATIC POTENTIAL %%%%%%%%%%%%%%%%%%%%%%%%%%%%%%%%%%%%%%%%%%%

 Starting from polarization: rhoiter =      0.105174

   i |    delta_qm    |    delta_en    |       tol
 ------------------------------------------------------
   1 |   0.194809E-03 |   0.655788E-01 |   0.100000E-04
   2 |   0.118724E-03 |   0.243569E-01 |   0.100000E-04
   3 |   0.629699E-04 |   0.685187E-02 |   0.100000E-04
   4 |   0.328799E-04 |   0.186812E-02 |   0.100000E-04
   5 |   0.210062E-04 |   0.762497E-03 |   0.100000E-04
   6 |   0.761951E-05 |   0.100322E-03 |   0.100000E-04
   7 |   0.479156E-05 |   0.396732E-04 |   0.100000E-04
   8 |   0.228312E-05 |   0.900746E-05 |   0.100000E-04

 Charges are converged, EXIT

%%%% DENSITY %%%%%%%%%%%%%%%%%%%%%%%%%%%%%%%%%%%%%%%%%%%%%%%%%%%%%%%%%%%%%%%%%%%

 density label              = velectrostatic                                    

 integral of density        =  -0.9487061342E-13

%%%% CHARGES %%%%%%%%%%%%%%%%%%%%%%%%%%%%%%%%%%%%%%%%%%%%%%%%%%%%%%%%%%%%%%%%%%%

 total number of charges    =             11

 total charge               =     -0.0000000

%%%% DENSITY %%%%%%%%%%%%%%%%%%%%%%%%%%%%%%%%%%%%%%%%%%%%%%%%%%%%%%%%%%%%%%%%%%%

 density label              = dvtot                                             

 integral of density        =  -0.5566779034E-13

%%%% ELECTRONS %%%%%%%%%%%%%%%%%%%%%%%%%%%%%%%%%%%%%%%%%%%%%%%%%%%%%%%%%%%%%%%%%

 number of electrons        =              8

 total electronic charge    =      8.0000000

%%%% ELECTRONS %%%%%%%%%%%%%%%%%%%%%%%%%%%%%%%%%%%%%%%%%%%%%%%%%%%%%%%%%%%%%%%%%

 number of electrons        =              8

 total electronic charge    =      8.0000000

%%%% CHARGES %%%%%%%%%%%%%%%%%%%%%%%%%%%%%%%%%%%%%%%%%%%%%%%%%%%%%%%%%%%%%%%%%%%

 total number of charges    =             11

 total charge               =     -0.0000000

%%%% CHARGES %%%%%%%%%%%%%%%%%%%%%%%%%%%%%%%%%%%%%%%%%%%%%%%%%%%%%%%%%%%%%%%%%%%

 total number of charges    =             11

 total charge               =     -0.0000000

%%%% DENSITY %%%%%%%%%%%%%%%%%%%%%%%%%%%%%%%%%%%%%%%%%%%%%%%%%%%%%%%%%%%%%%%%%%%

 density label              = dvtot                                             

 integral of density        =  -0.5566779034E-13

%%%% DENSITY %%%%%%%%%%%%%%%%%%%%%%%%%%%%%%%%%%%%%%%%%%%%%%%%%%%%%%%%%%%%%%%%%%%

 density label              = vreference                                        

 integral of density        =  -0.2192813832E-12

%%%% DENSITY %%%%%%%%%%%%%%%%%%%%%%%%%%%%%%%%%%%%%%%%%%%%%%%%%%%%%%%%%%%%%%%%%%%

 density label              = velectrostatic                                    

 integral of density        =  -0.9487061342E-13

%%%% CHARGES %%%%%%%%%%%%%%%%%%%%%%%%%%%%%%%%%%%%%%%%%%%%%%%%%%%%%%%%%%%%%%%%%%%

 total number of charges    =             11

 total charge               =     -0.0000000
