
     Program PWSCF v.6.1 (svn rev. 13369) starts on 31Jan2018 at 21:58: 9 

     This program is part of the open-source Quantum ESPRESSO suite
     for quantum simulation of materials; please cite
         "P. Giannozzi et al., J. Phys.:Condens. Matter 21 395502 (2009);
          URL http://www.quantum-espresso.org", 
     in publications or presentations arising from this work. More details at
     http://www.quantum-espresso.org/quote

     Parallel version (MPI), running on     1 processors
     Reading input from neutral.in

     Current dimensions of program PWSCF are:
     Max number of different atomic species (ntypx) = 10
     Max number of k-points (npk) =  40000
     Max angular momentum in pseudopotentials (lmaxx) =  3
               file H.pbe-rrkjus.UPF: wavefunction(s)  1S renormalized
               file O.pbe-rrkjus.UPF: wavefunction(s)  2S renormalized

     gamma-point specific algorithms are used

     Subspace diagonalization in iterative solution of the eigenvalue problem:
     a serial algorithm will be used

 
     G-vector sticks info
     --------------------
     sticks:   dense  smooth     PW     G-vecs:    dense   smooth      PW
     Sum        9549    3809    949               701475   177509   22119
 


     bravais-lattice index     =            1
     lattice parameter (alat)  =      20.0000  a.u.
     unit-cell volume          =    8000.0000 (a.u.)^3
     number of atoms/cell      =            3
     number of atomic types    =            2
     number of electrons       =         8.00
     number of Kohn-Sham states=            4
     kinetic-energy cutoff     =      30.0000  Ry
     charge density cutoff     =     300.0000  Ry
     convergence threshold     =      5.0E-03
     mixing beta               =       0.7000
     number of iterations used =            8  plain     mixing
     Exchange-correlation      =  SLA  PW   PBE  PBE ( 1  4  3  4 0 0)
 

     Environ Module
     ==============

     Plese cite
         O. Andreussi, I. Dabo and N. Marzari, J. Chem. Phys. 136, 064102 (2012)         
     in publications or presentations arising from this work.

     compensation onset threshold      =               0.1000E+03 
     static permittivity               =                   100.00 
     epsilon calculation mode          =               electronic 

     Electrostatic Setup
     -------------------
     electrostatic problem to solve    = generalized              
     numerical solver adopted          = iterative                
     type of auxiliary density adopted = full                     
     type of core tool for poisson     = fft                      
     type of core tool for s(r) deriv  = analytic                 



     celldm(1)=  20.000000  celldm(2)=   0.000000  celldm(3)=   0.000000
     celldm(4)=   0.000000  celldm(5)=   0.000000  celldm(6)=   0.000000

     crystal axes: (cart. coord. in units of alat)
               a(1) = (   1.000000   0.000000   0.000000 )  
               a(2) = (   0.000000   1.000000   0.000000 )  
               a(3) = (   0.000000   0.000000   1.000000 )  

     reciprocal axes: (cart. coord. in units 2 pi/alat)
               b(1) = (  1.000000  0.000000  0.000000 )  
               b(2) = (  0.000000  1.000000  0.000000 )  
               b(3) = (  0.000000  0.000000  1.000000 )  


     PseudoPot. # 1 for H  read from file:
     /home/fnattino/Programs/qe-6.1/Environ/tests/../..//pseudo/H.pbe-rrkjus.UPF
     MD5 check sum: 7cc9d459525c9a0585f487a71c3c9563
     Pseudo is Ultrasoft, Zval =  1.0
     Generated by new atomic code, or converted to UPF format
     Using radial grid of 1061 points,  2 beta functions with: 
                l(1) =   0
                l(2) =   0
     Q(r) pseudized with 0 coefficients 


     PseudoPot. # 2 for O  read from file:
     /home/fnattino/Programs/qe-6.1/Environ/tests/../..//pseudo/O.pbe-rrkjus.UPF
     MD5 check sum: 390ba29e75625707450f3bd3f0eb6be9
     Pseudo is Ultrasoft, Zval =  6.0
     Generated by new atomic code, or converted to UPF format
     Using radial grid of 1269 points,  4 beta functions with: 
                l(1) =   0
                l(2) =   0
                l(3) =   1
                l(4) =   1
     Q(r) pseudized with 0 coefficients 


     atomic species   valence    mass     pseudopotential
        H              1.00     1.00000     H ( 1.00)
        O              6.00    16.00000     O ( 1.00)

     No symmetry found



   Cartesian axes

     site n.     atom                  positions (alat units)
         1           O   tau(   1) = (   0.5895000   0.6025000   0.5750000  )
         2           H   tau(   2) = (   0.6725000   0.5610000   0.5750000  )
         3           H   tau(   3) = (   0.5280000   0.5330000   0.5750000  )

     number of k points=     1
                       cart. coord. in units 2pi/alat
        k(    1) = (   0.0000000   0.0000000   0.0000000), wk =   2.0000000

     Dense  grid:   350738 G-vectors     FFT dimensions: ( 120, 120, 120)

     Smooth grid:    88755 G-vectors     FFT dimensions: (  72,  72,  72)

     Estimated max dynamical RAM per process >     270.62MB

     Initial potential from superposition of free atoms
     Check: negative starting charge=   -0.000775

     starting charge    7.80759, renormalised to    8.00000

     negative rho (up, down):  7.936E-04 0.000E+00
     Starting wfc are    6 randomized atomic wfcs

     total cpu time spent up to now is        2.6 secs

     per-process dynamical memory:   572.4 Mb

     Self-consistent Calculation

     iteration #  1     ecut=    30.00 Ry     beta=0.70
     Davidson diagonalization with overlap
     ethr =  1.00E-02,  avg # of iterations =  2.0

     negative rho (up, down):  2.595E-04 0.000E+00

     add environment contribution to local potential
     polarization accuracy = 3.6E-06, # of iterations =  17

     total cpu time spent up to now is        7.2 secs

     total energy              =     -34.06236055 Ry
     Harris-Foulkes estimate   =     -34.58697711 Ry
     estimated scf accuracy    <       0.68458994 Ry
     electrostatic embedding   =       0.00000000 Ry
     correction to one-el term =       0.00000000 Ry

     iteration #  2     ecut=    30.00 Ry     beta=0.70
     Davidson diagonalization with overlap
     ethr =  8.56E-03,  avg # of iterations =  2.0

     negative rho (up, down):  2.656E-03 0.000E+00

     add environment contribution to local potential
     polarization accuracy = 5.7E-06, # of iterations =  13

     total cpu time spent up to now is       11.3 secs

     total energy              =     -34.20819195 Ry
     Harris-Foulkes estimate   =     -33.94005958 Ry
     estimated scf accuracy    <       0.35521641 Ry
     electrostatic embedding   =      -0.03783339 Ry
     correction to one-el term =      -0.41338122 Ry

     iteration #  3     ecut=    30.00 Ry     beta=0.70
     Davidson diagonalization with overlap
     ethr =  4.44E-03,  avg # of iterations =  2.0

     negative rho (up, down):  2.206E-04 0.000E+00

     add environment contribution to local potential
     polarization accuracy = 5.2E-06, # of iterations =  14

     total cpu time spent up to now is       15.4 secs

     total energy              =     -34.29044599 Ry
     Harris-Foulkes estimate   =     -33.97786965 Ry
     estimated scf accuracy    <       0.01536817 Ry
     electrostatic embedding   =      -0.02886882 Ry
     correction to one-el term =      -0.29235240 Ry

     iteration #  4     ecut=    30.00 Ry     beta=0.70
     Davidson diagonalization with overlap
     ethr =  1.92E-04,  avg # of iterations =  2.0

     negative rho (up, down):  2.142E-04 0.000E+00

     total cpu time spent up to now is       16.6 secs

     End of self-consistent calculation

          k = 0.0000 0.0000 0.0000 ( 11060 PWs)   bands (ev):

   -24.5416 -12.3150  -8.7695  -6.7996

     highest occupied level (ev):    -6.7996

!    total energy              =     -34.29564618 Ry
     Harris-Foulkes estimate   =     -34.17199252 Ry
     estimated scf accuracy    <       0.00017699 Ry

     The total energy is the sum of the following terms:

     one-electron contribution =     -63.79211639 Ry
     hartree contribution      =      33.45939486 Ry
     xc contribution           =      -8.39658835 Ry
     ewald contribution        =       4.55735774 Ry
     electrostatic embedding   =      -0.03351171 Ry
     correction to one-el term =      -0.09018234 Ry

     convergence has been achieved in   4 iterations

     Forces acting on atoms (cartesian axes, Ry/au):

     atom    1 type  2   force =     0.00229540   -0.01216334   -0.00000280
     atom    2 type  1   force =    -0.00865613    0.00459453    0.00000112
     atom    3 type  1   force =     0.00636072    0.00756881    0.00000169

     Total force =     0.018628     Total SCF correction =     0.023367
     SCF correction compared to forces is large: reduce conv_thr to get better values

     Writing output data file pwscf.save
 
     init_run     :      2.38s CPU      2.52s WALL (       1 calls)
     electrons    :     13.54s CPU     14.12s WALL (       1 calls)
     forces       :      0.31s CPU      0.36s WALL (       1 calls)

     Called by init_run:
     wfcinit      :      0.02s CPU      0.03s WALL (       1 calls)
     potinit      :      1.28s CPU      1.34s WALL (       1 calls)

     Called by electrons:
     c_bands      :      0.20s CPU      0.20s WALL (       4 calls)
     sum_band     :      0.94s CPU      1.02s WALL (       4 calls)
     v_of_rho     :      2.48s CPU      2.58s WALL (       5 calls)
     newd         :      0.51s CPU      0.61s WALL (       5 calls)
     mix_rho      :      0.18s CPU      0.19s WALL (       4 calls)

     Called by c_bands:
     init_us_2    :      0.02s CPU      0.02s WALL (       9 calls)
     regterg      :      0.19s CPU      0.19s WALL (       4 calls)

     Called by sum_band:
     sum_band:bec :      0.00s CPU      0.00s WALL (       4 calls)
     addusdens    :      0.55s CPU      0.62s WALL (       4 calls)

     Called by *egterg:
     h_psi        :      0.20s CPU      0.19s WALL (      13 calls)
     s_psi        :      0.00s CPU      0.00s WALL (      13 calls)
     g_psi        :      0.00s CPU      0.00s WALL (       8 calls)
     rdiaghg      :      0.00s CPU      0.00s WALL (      12 calls)

     Called by h_psi:
     h_psi:pot    :      0.20s CPU      0.19s WALL (      13 calls)
     h_psi:calbec :      0.01s CPU      0.00s WALL (      13 calls)
     vloc_psi     :      0.19s CPU      0.18s WALL (      13 calls)
     add_vuspsi   :      0.00s CPU      0.00s WALL (      13 calls)

     General routines
     calbec       :      0.01s CPU      0.01s WALL (      21 calls)
     fft          :      6.44s CPU      6.76s WALL (     311 calls)
     ffts         :      0.03s CPU      0.03s WALL (       9 calls)
     fftw         :      0.14s CPU      0.14s WALL (      62 calls)
     interpolate  :      0.27s CPU      0.29s WALL (       9 calls)
     davcio       :      0.00s CPU      0.00s WALL (       1 calls)
 
     Parallel routines
     fft_scatter  :      1.82s CPU      1.92s WALL (     382 calls)
 
     Environ routines
     calc_eelect  :      0.02s CPU      0.01s WALL (       8 calls)
     calc_velect  :      7.34s CPU      7.57s WALL (       6 calls)
     dielectric   :      0.21s CPU      0.21s WALL (       6 calls)
     calc_felect  :      0.04s CPU      0.05s WALL (       1 calls)
 
     PWSCF        :    16.36s CPU        17.15s WALL

 
   This run was terminated on:  21:58:26  31Jan2018            

=------------------------------------------------------------------------------=
   JOB DONE.
=------------------------------------------------------------------------------=

%%%% IONS %%%%%%%%%%%%%%%%%%%%%%%%%%%%%%%%%%%%%%%%%%%%%%%%%%%%%%%%%%%%%%%%%%%%%%
 number of ions             =          3
 ionic center of charge     =      0.5921875     0.5886250     0.5750000
 total ionic charge         =     -8.0000000
 ionic dipole               =      0.0000000     0.0000000     0.0000000
 ionic quadrupole (pc)      =     -4.2453875    -2.0049500     0.0000000
 ionic quadrupole (gauss)   =     -5.2453875    -3.0049500    -1.0000000
 ion   1 type =  2 coordinates =     11.7900000    12.0500000    11.5000000
 ion   2 type =  1 coordinates =     13.4500000    11.2200000    11.5000000
 ion   3 type =  1 coordinates =     10.5600000    10.6600000    11.5000000

%%%% SYSTEM %%%%%%%%%%%%%%%%%%%%%%%%%%%%%%%%%%%%%%%%%%%%%%%%%%%%%%%%%%%%%%%%%%%%
 system is built from all present ionic types
 system defined dimension   =  0 
 system defined axis        =  3 
 system center              =      0.5921875     0.5886250     0.5750000 
 system width               =      0.0849363 

%%%% ELECTRONS %%%%%%%%%%%%%%%%%%%%%%%%%%%%%%%%%%%%%%%%%%%%%%%%%%%%%%%%%%%%%%%%%
 number of electrons        =          7
 total electronic charge    =      8.0000000
 number of spin components  =  1

%%%% BOUNDARY %%%%%%%%%%%%%%%%%%%%%%%%%%%%%%%%%%%%%%%%%%%%%%%%%%%%%%%%%%%%%%%%%%
 boundary mode              = electronic           
 boundary is built as a function of a smooth density
 function type              =  2 
 using the modified SCCS function with parameters 
 rhomax                     =      0.0050000 
 rhomin                     =      0.0001000 
 volume of the QM region    =    925.9497833 
 surface of the QM region   =    444.2662167 

%%%% DIELECTRIC %%%%%%%%%%%%%%%%%%%%%%%%%%%%%%%%%%%%%%%%%%%%%%%%%%%%%%%%%%%%%%%%%
 dielectric build on homogeneous background
 environment bulk permitt.  =    100.0000000 
 dielectric flags
 need gradient              =  F 
 need factor depend. sqrt   =  F 
 total dielectric charge    =      0.0000000

%%%% ELECTRONS %%%%%%%%%%%%%%%%%%%%%%%%%%%%%%%%%%%%%%%%%%%%%%%%%%%%%%%%%%%%%%%%%
 number of electrons        =          7
 total electronic charge    =      8.0000000
 number of spin components  =  1

%%%% BOUNDARY %%%%%%%%%%%%%%%%%%%%%%%%%%%%%%%%%%%%%%%%%%%%%%%%%%%%%%%%%%%%%%%%%%
 boundary mode              = electronic           
 boundary is built as a function of a smooth density
 function type              =  2 
 using the modified SCCS function with parameters 
 rhomax                     =      0.0050000 
 rhomin                     =      0.0001000 
 volume of the QM region    =    306.9268418 
 surface of the QM region   =    219.1546597 

%%%% DIELECTRIC %%%%%%%%%%%%%%%%%%%%%%%%%%%%%%%%%%%%%%%%%%%%%%%%%%%%%%%%%%%%%%%%%
 dielectric build on homogeneous background
 environment bulk permitt.  =    100.0000000 
 dielectric flags
 need gradient              =  F 
 need factor depend. sqrt   =  F 
 total dielectric charge    =      0.0000000

%%%% COMPUTE ELECTROSTATIC POTENTIAL %%%%%%%%%%%%%%%%%%%%%%%%%%%%%%%%%%%%%%%%%%%
 Starting from polarization: rhoiter =      0.000000 jellium =      0.000000
 Iteration #          1
 delta_qm =   0.168745E-02 delta_en =   0.492046E+01 tol =   0.100000E-04
 Iteration #          2
 delta_qm =   0.989957E-03 delta_en =   0.169347E+01 tol =   0.100000E-04
 Iteration #          3
 delta_qm =   0.557850E-03 delta_en =   0.537748E+00 tol =   0.100000E-04
 Iteration #          4
 delta_qm =   0.380246E-03 delta_en =   0.249846E+00 tol =   0.100000E-04
 Iteration #          5
 delta_qm =   0.212212E-03 delta_en =   0.778184E-01 tol =   0.100000E-04
 Iteration #          6
 delta_qm =   0.154337E-03 delta_en =   0.411609E-01 tol =   0.100000E-04
 Iteration #          7
 delta_qm =   0.100515E-03 delta_en =   0.174585E-01 tol =   0.100000E-04
 Iteration #          8
 delta_qm =   0.556025E-04 delta_en =   0.534234E-02 tol =   0.100000E-04
 Iteration #          9
 delta_qm =   0.418925E-04 delta_en =   0.303261E-02 tol =   0.100000E-04
 Iteration #         10
 delta_qm =   0.281576E-04 delta_en =   0.137005E-02 tol =   0.100000E-04
 Iteration #         11
 delta_qm =   0.156073E-04 delta_en =   0.420922E-03 tol =   0.100000E-04
 Iteration #         12
 delta_qm =   0.119004E-04 delta_en =   0.244718E-03 tol =   0.100000E-04
 Iteration #         13
 delta_qm =   0.830667E-05 delta_en =   0.119233E-03 tol =   0.100000E-04
 Iteration #         14
 delta_qm =   0.465638E-05 delta_en =   0.374663E-04 tol =   0.100000E-04
 Iteration #         15
 delta_qm =   0.353533E-05 delta_en =   0.215975E-04 tol =   0.100000E-04
 Iteration #         16
 delta_qm =   0.255181E-05 delta_en =   0.112523E-04 tol =   0.100000E-04
 Iteration #         17
 delta_qm =   0.143474E-05 delta_en =   0.355703E-05 tol =   0.100000E-04
 Charges are converged, EXIT

%%%% ELECTRONS %%%%%%%%%%%%%%%%%%%%%%%%%%%%%%%%%%%%%%%%%%%%%%%%%%%%%%%%%%%%%%%%%
 number of electrons        =          8
 total electronic charge    =      8.0000000
 number of spin components  =  1

%%%% BOUNDARY %%%%%%%%%%%%%%%%%%%%%%%%%%%%%%%%%%%%%%%%%%%%%%%%%%%%%%%%%%%%%%%%%%
 boundary mode              = electronic           
 boundary is built as a function of a smooth density
 function type              =  2 
 using the modified SCCS function with parameters 
 rhomax                     =      0.0050000 
 rhomin                     =      0.0001000 
 volume of the QM region    =    332.8491379 
 surface of the QM region   =    231.8791447 

%%%% DIELECTRIC %%%%%%%%%%%%%%%%%%%%%%%%%%%%%%%%%%%%%%%%%%%%%%%%%%%%%%%%%%%%%%%%%
 dielectric build on homogeneous background
 environment bulk permitt.  =    100.0000000 
 dielectric flags
 need gradient              =  F 
 need factor depend. sqrt   =  F 
 total dielectric charge    =     -0.0000002

%%%% COMPUTE ELECTROSTATIC POTENTIAL %%%%%%%%%%%%%%%%%%%%%%%%%%%%%%%%%%%%%%%%%%%
 Starting from polarization: rhoiter =      0.327304 jellium =      0.000000
 Iteration #          1
 delta_qm =   0.320077E-03 delta_en =   0.177033E+00 tol =   0.100000E-04
 Iteration #          2
 delta_qm =   0.215401E-03 delta_en =   0.801752E-01 tol =   0.100000E-04
 Iteration #          3
 delta_qm =   0.139022E-03 delta_en =   0.333975E-01 tol =   0.100000E-04
 Iteration #          4
 delta_qm =   0.865822E-04 delta_en =   0.129539E-01 tol =   0.100000E-04
 Iteration #          5
 delta_qm =   0.607432E-04 delta_en =   0.637586E-02 tol =   0.100000E-04
 Iteration #          6
 delta_qm =   0.402426E-04 delta_en =   0.279844E-02 tol =   0.100000E-04
 Iteration #          7
 delta_qm =   0.227537E-04 delta_en =   0.894641E-03 tol =   0.100000E-04
 Iteration #          8
 delta_qm =   0.163561E-04 delta_en =   0.462279E-03 tol =   0.100000E-04
 Iteration #          9
 delta_qm =   0.112636E-04 delta_en =   0.219228E-03 tol =   0.100000E-04
 Iteration #         10
 delta_qm =   0.617734E-05 delta_en =   0.659396E-04 tol =   0.100000E-04
 Iteration #         11
 delta_qm =   0.444964E-05 delta_en =   0.342132E-04 tol =   0.100000E-04
 Iteration #         12
 delta_qm =   0.323970E-05 delta_en =   0.181365E-04 tol =   0.100000E-04
 Iteration #         13
 delta_qm =   0.181131E-05 delta_en =   0.566927E-05 tol =   0.100000E-04
 Charges are converged, EXIT

%%%% ELECTRONS %%%%%%%%%%%%%%%%%%%%%%%%%%%%%%%%%%%%%%%%%%%%%%%%%%%%%%%%%%%%%%%%%
 number of electrons        =          8
 total electronic charge    =      8.0000000
 number of spin components  =  1

%%%% BOUNDARY %%%%%%%%%%%%%%%%%%%%%%%%%%%%%%%%%%%%%%%%%%%%%%%%%%%%%%%%%%%%%%%%%%
 boundary mode              = electronic           
 boundary is built as a function of a smooth density
 function type              =  2 
 using the modified SCCS function with parameters 
 rhomax                     =      0.0050000 
 rhomin                     =      0.0001000 
 volume of the QM region    =    295.4112715 
 surface of the QM region   =    214.2975599 

%%%% DIELECTRIC %%%%%%%%%%%%%%%%%%%%%%%%%%%%%%%%%%%%%%%%%%%%%%%%%%%%%%%%%%%%%%%%%
 dielectric build on homogeneous background
 environment bulk permitt.  =    100.0000000 
 dielectric flags
 need gradient              =  F 
 need factor depend. sqrt   =  F 
 total dielectric charge    =      0.0000007

%%%% COMPUTE ELECTROSTATIC POTENTIAL %%%%%%%%%%%%%%%%%%%%%%%%%%%%%%%%%%%%%%%%%%%
 Starting from polarization: rhoiter =      0.266524 jellium =      0.000000
 Iteration #          1
 delta_qm =   0.452976E-03 delta_en =   0.354563E+00 tol =   0.100000E-04
 Iteration #          2
 delta_qm =   0.246572E-03 delta_en =   0.105058E+00 tol =   0.100000E-04
 Iteration #          3
 delta_qm =   0.174598E-03 delta_en =   0.526774E-01 tol =   0.100000E-04
 Iteration #          4
 delta_qm =   0.105085E-03 delta_en =   0.190820E-01 tol =   0.100000E-04
 Iteration #          5
 delta_qm =   0.705225E-04 delta_en =   0.859407E-02 tol =   0.100000E-04
 Iteration #          6
 delta_qm =   0.507618E-04 delta_en =   0.445264E-02 tol =   0.100000E-04
 Iteration #          7
 delta_qm =   0.303881E-04 delta_en =   0.159569E-02 tol =   0.100000E-04
 Iteration #          8
 delta_qm =   0.195731E-04 delta_en =   0.662008E-03 tol =   0.100000E-04
 Iteration #          9
 delta_qm =   0.142502E-04 delta_en =   0.350900E-03 tol =   0.100000E-04
 Iteration #         10
 delta_qm =   0.872548E-05 delta_en =   0.131560E-03 tol =   0.100000E-04
 Iteration #         11
 delta_qm =   0.565512E-05 delta_en =   0.552621E-04 tol =   0.100000E-04
 Iteration #         12
 delta_qm =   0.407853E-05 delta_en =   0.287443E-04 tol =   0.100000E-04
 Iteration #         13
 delta_qm =   0.254110E-05 delta_en =   0.111580E-04 tol =   0.100000E-04
 Iteration #         14
 delta_qm =   0.172641E-05 delta_en =   0.515032E-05 tol =   0.100000E-04
 Charges are converged, EXIT

%%%% ELECTRONS %%%%%%%%%%%%%%%%%%%%%%%%%%%%%%%%%%%%%%%%%%%%%%%%%%%%%%%%%%%%%%%%%
 number of electrons        =          8
 total electronic charge    =      8.0000000
 number of spin components  =  1

%%%% BOUNDARY %%%%%%%%%%%%%%%%%%%%%%%%%%%%%%%%%%%%%%%%%%%%%%%%%%%%%%%%%%%%%%%%%%
 boundary mode              = electronic           
 boundary is built as a function of a smooth density
 function type              =  2 
 using the modified SCCS function with parameters 
 rhomax                     =      0.0050000 
 rhomin                     =      0.0001000 
 volume of the QM region    =    295.4112715 
 surface of the QM region   =    214.2975599 

%%%% DIELECTRIC %%%%%%%%%%%%%%%%%%%%%%%%%%%%%%%%%%%%%%%%%%%%%%%%%%%%%%%%%%%%%%%%%
 dielectric build on homogeneous background
 environment bulk permitt.  =    100.0000000 
 dielectric flags
 need gradient              =  F 
 need factor depend. sqrt   =  F 
 total dielectric charge    =     -0.0000014
