
     Program PWSCF v.6.1 (svn rev. 13369) starts on  7Nov2017 at 16:22:11 

     This program is part of the open-source Quantum ESPRESSO suite
     for quantum simulation of materials; please cite
         "P. Giannozzi et al., J. Phys.:Condens. Matter 21 395502 (2009);
          URL http://www.quantum-espresso.org", 
     in publications or presentations arising from this work. More details at
     http://www.quantum-espresso.org/quote

     Serial version
     Reading input from charged.in

     Current dimensions of program PWSCF are:
     Max number of different atomic species (ntypx) = 10
     Max number of k-points (npk) =  40000
     Max angular momentum in pseudopotentials (lmaxx) =  3
               file C.pbe-rrkjus.UPF: wavefunction(s)  2S 2P renormalized
               file H.pbe-rrkjus.UPF: wavefunction(s)  1S renormalized
               file N.pbe-rrkjus.UPF: wavefunction(s)  2S renormalized
               file O.pbe-rrkjus.UPF: wavefunction(s)  2S renormalized

     gamma-point specific algorithms are used

     G-vector sticks info
     --------------------
     sticks:   dense  smooth     PW     G-vecs:    dense   smooth      PW
     Sum        9549    3809    949               701475   177509   22119



     bravais-lattice index     =            1
     lattice parameter (alat)  =      20.0000  a.u.
     unit-cell volume          =    8000.0000 (a.u.)^3
     number of atoms/cell      =           10
     number of atomic types    =            4
     number of electrons       =        24.00
     number of Kohn-Sham states=           12
     kinetic-energy cutoff     =      30.0000  Ry
     charge density cutoff     =     300.0000  Ry
     convergence threshold     =      5.0E-03
     mixing beta               =       0.7000
     number of iterations used =            8  plain     mixing
     Exchange-correlation      =  SLA  PW   PBE  PBE ( 1  4  3  4 0 0)


     Environ Module
     ==============

     Plese cite
         O. Andreussi, I. Dabo and N. Marzari, J. Chem. Phys. 136, 064102 (2012)         
     in publications or presentations arising from this work.

     compensation onset threshold      =               0.1000E+03 
     static permittivity               =                   100.00 
     epsilon calculation mode          =               electronic 

     Electrostatic Setup
     -------------------
     electrostatic problem to solve    = generalized              
     numerical solver adopted          = cg                       
     type of auxiliary density adopted = none                     
     type of core tool for poisson     = fft                      
     type of core tool for s(r) deriv  = analytic                 



     celldm(1)=  20.000000  celldm(2)=   0.000000  celldm(3)=   0.000000
     celldm(4)=   0.000000  celldm(5)=   0.000000  celldm(6)=   0.000000

     crystal axes: (cart. coord. in units of alat)
               a(1) = (   1.000000   0.000000   0.000000 )  
               a(2) = (   0.000000   1.000000   0.000000 )  
               a(3) = (   0.000000   0.000000   1.000000 )  

     reciprocal axes: (cart. coord. in units 2 pi/alat)
               b(1) = (  1.000000  0.000000  0.000000 )  
               b(2) = (  0.000000  1.000000  0.000000 )  
               b(3) = (  0.000000  0.000000  1.000000 )  


     PseudoPot. # 1 for C  read from file:
     /Users/oliviero/PWSCF/espresso-6.1-Environ-1.0/Environ/tests/../..//pseudo/C.pbe-rrkjus.UPF
     MD5 check sum: 00fb224312de0c5b6853bd333518df6f
     Pseudo is Ultrasoft, Zval =  4.0
     Generated by new atomic code, or converted to UPF format
     Using radial grid of  627 points,  4 beta functions with: 
                l(1) =   0
                l(2) =   0
                l(3) =   1
                l(4) =   1
     Q(r) pseudized with 0 coefficients 


     PseudoPot. # 2 for H  read from file:
     /Users/oliviero/PWSCF/espresso-6.1-Environ-1.0/Environ/tests/../..//pseudo/H.pbe-rrkjus.UPF
     MD5 check sum: 7cc9d459525c9a0585f487a71c3c9563
     Pseudo is Ultrasoft, Zval =  1.0
     Generated by new atomic code, or converted to UPF format
     Using radial grid of 1061 points,  2 beta functions with: 
                l(1) =   0
                l(2) =   0
     Q(r) pseudized with 0 coefficients 


     PseudoPot. # 3 for N  read from file:
     /Users/oliviero/PWSCF/espresso-6.1-Environ-1.0/Environ/tests/../..//pseudo/N.pbe-rrkjus.UPF
     MD5 check sum: 0c3fbe5807a93f9ba59d5a7019aa238b
     Pseudo is Ultrasoft, Zval =  5.0
     Generated by new atomic code, or converted to UPF format
     Using radial grid of 1257 points,  4 beta functions with: 
                l(1) =   0
                l(2) =   0
                l(3) =   1
                l(4) =   1
     Q(r) pseudized with 0 coefficients 


     PseudoPot. # 4 for O  read from file:
     /Users/oliviero/PWSCF/espresso-6.1-Environ-1.0/Environ/tests/../..//pseudo/O.pbe-rrkjus.UPF
     MD5 check sum: 390ba29e75625707450f3bd3f0eb6be9
     Pseudo is Ultrasoft, Zval =  6.0
     Generated by new atomic code, or converted to UPF format
     Using radial grid of 1269 points,  4 beta functions with: 
                l(1) =   0
                l(2) =   0
                l(3) =   1
                l(4) =   1
     Q(r) pseudized with 0 coefficients 


     atomic species   valence    mass     pseudopotential
        C              4.00    12.00000     C ( 1.00)
        H              1.00     1.00000     H ( 1.00)
        N              5.00    14.00000     N ( 1.00)
        O              6.00    16.00000     O ( 1.00)

     No symmetry found



   Cartesian axes

     site n.     atom                  positions (alat units)
         1           C   tau(   1) = (   0.0000000   0.0000000   0.0000000  )
         2           C   tau(   2) = (   0.0000000   0.0000000   0.1455089  )
         3           N   tau(   3) = (   0.1170969   0.0000000  -0.0545024  )
         4           H   tau(   4) = (   0.0476617  -0.0825466   0.1792090  )
         5           H   tau(   5) = (  -0.0953183  -0.0000030   0.1792090  )
         6           H   tau(   6) = (   0.0476566   0.0825496   0.1792090  )
         7           O   tau(   7) = (  -0.0984002  -0.0000019  -0.0641310  )
         8           H   tau(   8) = (   0.1263131  -0.0000015  -0.1475548  )
         9           H   tau(   9) = (   0.1944645   0.0000134  -0.0025716  )
        10           H   tau(  10) = (  -0.0770366  -0.0000045  -0.1522861  )

     number of k points=     1
                       cart. coord. in units 2pi/alat
        k(    1) = (   0.0000000   0.0000000   0.0000000), wk =   2.0000000

     Dense  grid:   350738 G-vectors     FFT dimensions: ( 120, 120, 120)

     Smooth grid:    88755 G-vectors     FFT dimensions: (  72,  72,  72)

     Estimated max dynamical RAM per process >     298.98MB

     Initial potential from superposition of free atoms
     Check: negative starting charge=   -0.000452

     starting charge   24.42266, renormalised to   24.00000

     negative rho (up, down):  4.438E-04 0.000E+00
     Starting wfc are   22 randomized atomic wfcs

     total cpu time spent up to now is        8.5 secs

     Self-consistent Calculation

     iteration #  1     ecut=    30.00 Ry     beta=0.70
     Davidson diagonalization with overlap
     ethr =  1.00E-02,  avg # of iterations =  2.0

     negative rho (up, down):  1.277E-04 0.000E+00

     add environment contribution to local potential
     polarization accuracy = 3.9E-05, # of iterations =  12

     total cpu time spent up to now is       16.6 secs

     total energy              =     -80.23660198 Ry
     Harris-Foulkes estimate   =     -83.01879009 Ry
     estimated scf accuracy    <       3.73442311 Ry
     electrostatic embedding   =       0.00242983 Ry
     correction to one-el term =       0.00000000 Ry

     iteration #  2     ecut=    30.00 Ry     beta=0.70
     Davidson diagonalization with overlap
     ethr =  1.00E-02,  avg # of iterations =  4.0

     negative rho (up, down):  6.920E-04 0.000E+00

     add environment contribution to local potential
     polarization accuracy = 5.1E-05, # of iterations =  14

     total cpu time spent up to now is       25.2 secs

     total energy              =     -80.98864347 Ry
     Harris-Foulkes estimate   =     -76.58388143 Ry
     estimated scf accuracy    <       1.54142754 Ry
     electrostatic embedding   =      -0.16305511 Ry
     correction to one-el term =      -5.06712971 Ry

     iteration #  3     ecut=    30.00 Ry     beta=0.70
     Davidson diagonalization with overlap
     ethr =  6.42E-03,  avg # of iterations =  3.0

     negative rho (up, down):  3.243E-04 0.000E+00

     add environment contribution to local potential
     polarization accuracy = 4.8E-05, # of iterations =  15

     total cpu time spent up to now is       33.6 secs

     total energy              =     -81.33022523 Ry
     Harris-Foulkes estimate   =     -77.00552210 Ry
     estimated scf accuracy    <       0.24275132 Ry
     electrostatic embedding   =      -0.13600137 Ry
     correction to one-el term =      -4.31810868 Ry

     iteration #  4     ecut=    30.00 Ry     beta=0.70
     Davidson diagonalization with overlap
     ethr =  1.01E-03,  avg # of iterations =  4.0

     negative rho (up, down):  8.666E-05 0.000E+00

     add environment contribution to local potential
     polarization accuracy = 7.4E-05, # of iterations =  16

     total cpu time spent up to now is       41.9 secs

     total energy              =     -81.38019620 Ry
     Harris-Foulkes estimate   =     -77.20741181 Ry
     estimated scf accuracy    <       0.02093552 Ry
     electrostatic embedding   =      -0.12301492 Ry
     correction to one-el term =      -4.06040297 Ry

     iteration #  5     ecut=    30.00 Ry     beta=0.70
     Davidson diagonalization with overlap
     ethr =  8.72E-05,  avg # of iterations =  4.0

     negative rho (up, down):  2.756E-04 0.000E+00

     total cpu time spent up to now is       46.5 secs

     End of self-consistent calculation

          k = 0.0000 0.0000 0.0000 ( 11060 PWs)   bands (ev):

   -28.9375 -23.1993 -18.6810 -16.0122 -14.7185 -13.4443 -11.7059 -10.9636
    -9.6059  -9.5911  -9.3543  -7.4402

     highest occupied level (ev):    -7.4402

!    total energy              =     -81.38466714 Ry
     Harris-Foulkes estimate   =     -77.44096567 Ry
     estimated scf accuracy    <       0.00247564 Ry

     The total energy is the sum of the following terms:

     one-electron contribution =    -241.93648300 Ry
     hartree contribution      =     123.13421163 Ry
     xc contribution           =     -22.94468795 Ry
     ewald contribution        =      64.30784006 Ry
     electrostatic embedding   =      -0.12261080 Ry
     correction to one-el term =      -3.82293708 Ry

     convergence has been achieved in   5 iterations

     Forces acting on atoms (cartesian axes, Ry/au):

     atom    1 type  1   force =     0.21835276    0.00002444    0.09997250
     atom    2 type  1   force =    -0.03322198    0.00000977   -0.08062897
     atom    3 type  3   force =    -0.13916212    0.00001842    0.04522264
     atom    4 type  2   force =     0.01776551   -0.02857140    0.00858555
     atom    5 type  2   force =    -0.03292079   -0.00001423    0.01192023
     atom    6 type  2   force =     0.01776803    0.02855181    0.00858543
     atom    7 type  4   force =    -0.08356642   -0.00000220   -0.01002182
     atom    8 type  2   force =     0.00523497   -0.00000664   -0.04816902
     atom    9 type  2   force =     0.03844263   -0.00000199    0.03891792
     atom   10 type  2   force =    -0.00869259   -0.00000798   -0.07438444

     Total force =     0.329176     Total SCF correction =     0.120915
     SCF correction compared to forces is large: reduce conv_thr to get better values

     Writing output data file pwscf.save

     init_run     :      7.72s CPU      8.33s WALL (       1 calls)
     electrons    :     34.84s CPU     38.17s WALL (       1 calls)
     forces       :      2.25s CPU      2.64s WALL (       1 calls)

     Called by init_run:
     wfcinit      :      0.22s CPU      0.21s WALL (       1 calls)
     potinit      :      1.77s CPU      1.87s WALL (       1 calls)

     Called by electrons:
     c_bands      :      1.95s CPU      1.82s WALL (       5 calls)
     sum_band     :      6.46s CPU      6.56s WALL (       5 calls)
     v_of_rho     :      7.10s CPU      7.58s WALL (       6 calls)
     newd         :      3.46s CPU      5.00s WALL (       6 calls)
     mix_rho      :      0.58s CPU      0.67s WALL (       5 calls)

     Called by c_bands:
     init_us_2    :      0.07s CPU      0.10s WALL (      11 calls)
     regterg      :      1.87s CPU      1.71s WALL (       5 calls)

     Called by sum_band:
     sum_band:bec :      0.00s CPU      0.00s WALL (       5 calls)
     addusdens    :      5.17s CPU      5.22s WALL (       5 calls)

     Called by *egterg:
     h_psi        :      1.70s CPU      1.64s WALL (      23 calls)
     s_psi        :      0.11s CPU      0.03s WALL (      23 calls)
     g_psi        :      0.01s CPU      0.01s WALL (      17 calls)
     rdiaghg      :      0.01s CPU      0.01s WALL (      22 calls)

     Called by h_psi:
     h_psi:pot    :      1.69s CPU      1.63s WALL (      23 calls)
     h_psi:calbec :      0.06s CPU      0.06s WALL (      23 calls)
     vloc_psi     :      1.51s CPU      1.53s WALL (      23 calls)
     add_vuspsi   :      0.12s CPU      0.04s WALL (      23 calls)

     General routines
     calbec       :      0.08s CPU      0.08s WALL (      32 calls)
     fft          :     14.61s CPU     14.76s WALL (     273 calls)
     ffts         :      0.10s CPU      0.10s WALL (      11 calls)
     fftw         :      1.37s CPU      1.39s WALL (     244 calls)
     interpolate  :      0.82s CPU      0.90s WALL (      11 calls)
     davcio       :      0.00s CPU      0.00s WALL (       1 calls)


     Environ routines
     calc_eelect  :      0.02s CPU      0.02s WALL (      10 calls)
     calc_velect  :     10.68s CPU     11.67s WALL (       8 calls)
     dielectric   :      0.46s CPU      0.56s WALL (       6 calls)
     calc_felect  :      0.55s CPU      0.60s WALL (       1 calls)

     PWSCF        :    45.10s CPU        49.58s WALL


   This run was terminated on:  16:23: 1   7Nov2017            

=------------------------------------------------------------------------------=
   JOB DONE.
=------------------------------------------------------------------------------=

%%%% IONS %%%%%%%%%%%%%%%%%%%%%%%%%%%%%%%%%%%%%%%%%%%%%%%%%%%%%%%%%%%%%%%%%%%%%%
 number of ions             =         10
 ionic center of charge     =      0.0095530    -0.0000002     0.0063981
 total ionic charge         =    -25.0000000
 ionic dipole               =      0.0000000     0.0000000     0.0000000
 ionic quadrupole (pc)      =    -79.0828058    -5.4513517  -105.8059629
 ionic quadrupole (gauss)   =    -82.2078058    -8.5763517  -108.9309629
 ion   1 type =  1 coordinates =      0.0000000     0.0000000     0.0000000
 ion   2 type =  1 coordinates =      0.0000000     0.0000000     2.9101782
 ion   3 type =  3 coordinates =      2.3419379     0.0000000    -1.0900479
 ion   4 type =  2 coordinates =      0.9532347    -1.6509323     3.5841800
 ion   5 type =  2 coordinates =     -1.9063663    -0.0000596     3.5841809
 ion   6 type =  2 coordinates =      0.9531315     1.6509919     3.5841800
 ion   7 type =  4 coordinates =     -1.9680045    -0.0000375    -1.2826193
 ion   8 type =  2 coordinates =      2.5262613    -0.0000303    -2.9510950
 ion   9 type =  2 coordinates =      3.8892907     0.0002681    -0.0514326
 ion  10 type =  2 coordinates =     -1.5407317    -0.0000890    -3.0457220

%%%% SYSTEM %%%%%%%%%%%%%%%%%%%%%%%%%%%%%%%%%%%%%%%%%%%%%%%%%%%%%%%%%%%%%%%%%%%%
 system is built from all present ionic types
 system defined dimension   =  0 
 system defined axis        =  3 
 system center              =      0.0095530    -0.0000002     0.0063981 
 system width               =      0.5223840 

%%%% ELECTRONS %%%%%%%%%%%%%%%%%%%%%%%%%%%%%%%%%%%%%%%%%%%%%%%%%%%%%%%%%%%%%%%%%
 number of electrons        =         24
 total electronic charge    =     24.0000000
 number of spin components  =  1

%%%% BOUNDARY %%%%%%%%%%%%%%%%%%%%%%%%%%%%%%%%%%%%%%%%%%%%%%%%%%%%%%%%%%%%%%%%%%
 boundary mode              = electronic           
 boundary is built as a function of a smooth density
 function type              =  2 
 using the modified SCCS function with parameters 
 rhomax                     =      0.0050000 
 rhomin                     =      0.0001000 
 volume of the QM region    =    989.6663489 
 surface of the QM region   =    490.3846933 

%%%% DIELECTRIC %%%%%%%%%%%%%%%%%%%%%%%%%%%%%%%%%%%%%%%%%%%%%%%%%%%%%%%%%%%%%%%%%
 dielectric build on homogeneous background
 environment bulk permitt.  =    100.0000000 
 dielectric flags
 need gradient              =  F 
 need factor depend. sqrt   =  T 
 need gradient of logarithm =  T 

%%%% COMPUTE ELECTROSTATIC POTENTIAL %%%%%%%%%%%%%%%%%%%%%%%%%%%%%%%%%%%%%%%%%%%
 Iteration #          1
  pAp =    92.012843257861363       rzold =    89.116817927616466       alpha =   0.96852585761175825     
 delta_qm =   0.144051E-01 delta_en =   0.358571E+03 tol =   0.100000E-03
 Iteration #          2
  pAp =    132.52066443026314       rzold =    17.613253966341553       alpha =   0.13290949032035862     
 delta_qm =   0.289070E-02 delta_en =   0.144394E+02 tol =   0.100000E-03
 Iteration #          3
  pAp =   0.87520964939084134       rzold =   0.18958040211217395       alpha =   0.21661141675497370     
 delta_qm =   0.145902E-02 delta_en =   0.367844E+01 tol =   0.100000E-03
 Iteration #          4
  pAp =   0.10868490251357625       rzold =    2.3983899729253820E-002  alpha =   0.22067370144862483     
 delta_qm =   0.104063E-02 delta_en =   0.187126E+01 tol =   0.100000E-03
 Iteration #          5
  pAp =    1.1034475515118136E-002  rzold =    4.0162591938098895E-003  alpha =   0.36397372836681591     
 delta_qm =   0.560004E-03 delta_en =   0.541909E+00 tol =   0.100000E-03
 Iteration #          6
  pAp =    3.1617735856462529E-003  rzold =    1.2444015320036569E-003  alpha =   0.39357705360464845     
 delta_qm =   0.250805E-03 delta_en =   0.108697E+00 tol =   0.100000E-03
 Iteration #          7
  pAp =    4.5570269011844584E-004  rzold =    1.8525136128035968E-004  alpha =   0.40651803313298263     
 delta_qm =   0.150204E-03 delta_en =   0.389857E-01 tol =   0.100000E-03
 Iteration #          8
  pAp =    3.3409316786982588E-004  rzold =    9.9973202665106783E-005  alpha =   0.29923749504527358     
 delta_qm =   0.862175E-04 delta_en =   0.128450E-01 tol =   0.100000E-03
 Iteration #          9
  pAp =    1.1117585500229254E-004  rzold =    4.4836324977235025E-005  alpha =   0.40329192859646068     
 delta_qm =   0.370895E-04 delta_en =   0.237709E-02 tol =   0.100000E-03
 Iteration #         10
  pAp =    2.4436755331037684E-005  rzold =    1.0258991882087394E-005  alpha =   0.41981808726697906     
 delta_qm =   0.181116E-04 delta_en =   0.566834E-03 tol =   0.100000E-03
 Iteration #         11
  pAp =    1.7520989495910478E-006  rzold =    9.3568689943056263E-007  alpha =   0.53403770354919655     
 delta_qm =   0.992077E-05 delta_en =   0.170073E-03 tol =   0.100000E-03
 Iteration #         12
  pAp =    3.0889836736898775E-007  rzold =    1.9981898898984684E-007  alpha =   0.64687615765594986     
 delta_qm =   0.472194E-05 delta_en =   0.385287E-04 tol =   0.100000E-03
 Charges are converged, EXIT

%%%% ELECTRONS %%%%%%%%%%%%%%%%%%%%%%%%%%%%%%%%%%%%%%%%%%%%%%%%%%%%%%%%%%%%%%%%%
 number of electrons        =         24
 total electronic charge    =     24.0000000
 number of spin components  =  1

%%%% BOUNDARY %%%%%%%%%%%%%%%%%%%%%%%%%%%%%%%%%%%%%%%%%%%%%%%%%%%%%%%%%%%%%%%%%%
 boundary mode              = electronic           
 boundary is built as a function of a smooth density
 function type              =  2 
 using the modified SCCS function with parameters 
 rhomax                     =      0.0050000 
 rhomin                     =      0.0001000 
 volume of the QM region    =    837.6711997 
 surface of the QM region   =    448.9915474 

%%%% DIELECTRIC %%%%%%%%%%%%%%%%%%%%%%%%%%%%%%%%%%%%%%%%%%%%%%%%%%%%%%%%%%%%%%%%%
 dielectric build on homogeneous background
 environment bulk permitt.  =    100.0000000 
 dielectric flags
 need gradient              =  F 
 need factor depend. sqrt   =  T 
 need gradient of logarithm =  T 

%%%% COMPUTE ELECTROSTATIC POTENTIAL %%%%%%%%%%%%%%%%%%%%%%%%%%%%%%%%%%%%%%%%%%%
 Warning: bad guess with residual norm =   0.142555E+04, reset to no guess
 Iteration #          1
  pAp =    95.453222787137676       rzold =    92.726967490645620       alpha =   0.97143883446898749     
 delta_qm =   0.202001E-01 delta_en =   0.705098E+03 tol =   0.100000E-03
 Iteration #          2
  pAp =    168.37635205323562       rzold =    19.545366247752575       alpha =   0.11608142122934763     
 delta_qm =   0.404440E-02 delta_en =   0.282652E+02 tol =   0.100000E-03
 Iteration #          3
  pAp =    1.1430877669407229       rzold =   0.20086427705761606       alpha =   0.17572078266150518     
 delta_qm =   0.218209E-02 delta_en =   0.822789E+01 tol =   0.100000E-03
 Iteration #          4
  pAp =   0.12033681781626232       rzold =    2.3384522746179186E-002  alpha =   0.19432558688633531     
 delta_qm =   0.161696E-02 delta_en =   0.451799E+01 tol =   0.100000E-03
 Iteration #          5
  pAp =    1.2039759098365650E-002  rzold =    4.6194928644668100E-003  alpha =   0.38368648630967112     
 delta_qm =   0.908471E-03 delta_en =   0.142615E+01 tol =   0.100000E-03
 Iteration #          6
  pAp =    5.2307706142412499E-003  rzold =    1.8498052420517761E-003  alpha =   0.35363914391801327     
 delta_qm =   0.473628E-03 delta_en =   0.387630E+00 tol =   0.100000E-03
 Iteration #          7
  pAp =    8.3982015287766660E-004  rzold =    3.9928886937817652E-004  alpha =   0.47544568680568378     
 delta_qm =   0.288924E-03 delta_en =   0.144249E+00 tol =   0.100000E-03
 Iteration #          8
  pAp =    5.6895927395246527E-004  rzold =    2.3564844713305129E-004  alpha =   0.41417454275073290     
 delta_qm =   0.139627E-03 delta_en =   0.336885E-01 tol =   0.100000E-03
 Iteration #          9
  pAp =    7.5036071722339389E-004  rzold =    1.7294518642735102E-004  alpha =   0.23048272978269807     
 delta_qm =   0.789320E-04 delta_en =   0.107659E-01 tol =   0.100000E-03
 Iteration #         10
  pAp =    1.3088923222686567E-004  rzold =    4.4853385992216413E-005  alpha =   0.34268201615296839     
 delta_qm =   0.362170E-04 delta_en =   0.226657E-02 tol =   0.100000E-03
 Iteration #         11
  pAp =    7.4638780354417614E-006  rzold =    3.2856500961710570E-006  alpha =   0.44020683089532703     
 delta_qm =   0.207684E-04 delta_en =   0.745335E-03 tol =   0.100000E-03
 Iteration #         12
  pAp =    1.8599359624825875E-006  rzold =    7.6193743926264917E-007  alpha =   0.40965788856818364     
 delta_qm =   0.135911E-04 delta_en =   0.319191E-03 tol =   0.100000E-03
 Iteration #         13
  pAp =    6.0469738111497671E-007  rzold =    2.9980501890901730E-007  alpha =   0.49579347996549800     
 delta_qm =   0.795523E-05 delta_en =   0.109358E-03 tol =   0.100000E-03
 Iteration #         14
  pAp =    3.7571543330100357E-007  rzold =    1.4942942325355093E-007  alpha =   0.39771968359318338     
 delta_qm =   0.541491E-05 delta_en =   0.506671E-04 tol =   0.100000E-03
 Charges are converged, EXIT

%%%% ELECTRONS %%%%%%%%%%%%%%%%%%%%%%%%%%%%%%%%%%%%%%%%%%%%%%%%%%%%%%%%%%%%%%%%%
 number of electrons        =         24
 total electronic charge    =     24.0000000
 number of spin components  =  1

%%%% BOUNDARY %%%%%%%%%%%%%%%%%%%%%%%%%%%%%%%%%%%%%%%%%%%%%%%%%%%%%%%%%%%%%%%%%%
 boundary mode              = electronic           
 boundary is built as a function of a smooth density
 function type              =  2 
 using the modified SCCS function with parameters 
 rhomax                     =      0.0050000 
 rhomin                     =      0.0001000 
 volume of the QM region    =    757.1445525 
 surface of the QM region   =    424.1886577 

%%%% DIELECTRIC %%%%%%%%%%%%%%%%%%%%%%%%%%%%%%%%%%%%%%%%%%%%%%%%%%%%%%%%%%%%%%%%%
 dielectric build on homogeneous background
 environment bulk permitt.  =    100.0000000 
 dielectric flags
 need gradient              =  F 
 need factor depend. sqrt   =  T 
 need gradient of logarithm =  T 

%%%% COMPUTE ELECTROSTATIC POTENTIAL %%%%%%%%%%%%%%%%%%%%%%%%%%%%%%%%%%%%%%%%%%%
 Warning: bad guess with residual norm =   0.162356E+04, reset to no guess
 Iteration #          1
  pAp =    95.954715292359339       rzold =    93.387442225883333       alpha =   0.97324495144762901     
 delta_qm =   0.225239E-01 delta_en =   0.876659E+03 tol =   0.100000E-03
 Iteration #          2
  pAp =    211.47316921011995       rzold =    21.422339207075385       alpha =   0.10130050675974940     
 delta_qm =   0.423466E-02 delta_en =   0.309870E+02 tol =   0.100000E-03
 Iteration #          3
  pAp =    1.2263805169896931       rzold =   0.22341238405939862       alpha =   0.18217215698092851     
 delta_qm =   0.203971E-02 delta_en =   0.718922E+01 tol =   0.100000E-03
 Iteration #          4
  pAp =   0.10520357341470184       rzold =    1.9392254221902966E-002  alpha =   0.18433075600446253     
 delta_qm =   0.159178E-02 delta_en =   0.437836E+01 tol =   0.100000E-03
 Iteration #          5
  pAp =    1.9274901211853334E-002  rzold =    5.4594191434442401E-003  alpha =   0.28323979891979439     
 delta_qm =   0.103602E-02 delta_en =   0.185472E+01 tol =   0.100000E-03
 Iteration #          6
  pAp =    7.0548239127241905E-003  rzold =    2.3767686201006505E-003  alpha =   0.33689977942806959     
 delta_qm =   0.569966E-03 delta_en =   0.561361E+00 tol =   0.100000E-03
 Iteration #          7
  pAp =    1.5755083058770674E-003  rzold =    6.6354126960521947E-004  alpha =   0.42116012154936477     
 delta_qm =   0.371143E-03 delta_en =   0.238027E+00 tol =   0.100000E-03
 Iteration #          8
  pAp =    7.2904116855647774E-004  rzold =    3.4984141599910359E-004  alpha =   0.47986510376608710     
 delta_qm =   0.191484E-03 delta_en =   0.633590E-01 tol =   0.100000E-03
 Iteration #          9
  pAp =    1.0769386262136978E-003  rzold =    2.7271014543876418E-004  alpha =   0.25322719308300684     
 delta_qm =   0.136312E-03 delta_en =   0.321080E-01 tol =   0.100000E-03
 Iteration #         10
  pAp =    6.0510172741036440E-004  rzold =    1.5318341922470097E-004  alpha =   0.25315316794793402     
 delta_qm =   0.583242E-04 delta_en =   0.587815E-02 tol =   0.100000E-03
 Iteration #         11
  pAp =    4.5667538546244744E-005  rzold =    1.5530703876487663E-005  alpha =   0.34008191312436648     
 delta_qm =   0.349006E-04 delta_en =   0.210479E-02 tol =   0.100000E-03
 Iteration #         12
  pAp =    1.4370281107073049E-005  rzold =    3.9820537403506198E-006  alpha =   0.27710339906925369     
 delta_qm =   0.232656E-04 delta_en =   0.935350E-03 tol =   0.100000E-03
 Iteration #         13
  pAp =    1.9614758612670138E-006  rzold =    8.5302004195843598E-007  alpha =   0.43488684148650619     
 delta_qm =   0.136214E-04 delta_en =   0.320619E-03 tol =   0.100000E-03
 Iteration #         14
  pAp =    9.1835341037643727E-007  rzold =    3.8678449694433292E-007  alpha =   0.42117173255314444     
 delta_qm =   0.924573E-05 delta_en =   0.147716E-03 tol =   0.100000E-03
 Iteration #         15
  pAp =    2.9548674879531154E-007  rzold =    1.3780782950709099E-007  alpha =   0.46637566682407378     
 delta_qm =   0.529674E-05 delta_en =   0.484798E-04 tol =   0.100000E-03
 Charges are converged, EXIT

%%%% ELECTRONS %%%%%%%%%%%%%%%%%%%%%%%%%%%%%%%%%%%%%%%%%%%%%%%%%%%%%%%%%%%%%%%%%
 number of electrons        =         24
 total electronic charge    =     24.0000000
 number of spin components  =  1

%%%% BOUNDARY %%%%%%%%%%%%%%%%%%%%%%%%%%%%%%%%%%%%%%%%%%%%%%%%%%%%%%%%%%%%%%%%%%
 boundary mode              = electronic           
 boundary is built as a function of a smooth density
 function type              =  2 
 using the modified SCCS function with parameters 
 rhomax                     =      0.0050000 
 rhomin                     =      0.0001000 
 volume of the QM region    =    717.0728738 
 surface of the QM region   =    412.4194618 

%%%% DIELECTRIC %%%%%%%%%%%%%%%%%%%%%%%%%%%%%%%%%%%%%%%%%%%%%%%%%%%%%%%%%%%%%%%%%
 dielectric build on homogeneous background
 environment bulk permitt.  =    100.0000000 
 dielectric flags
 need gradient              =  F 
 need factor depend. sqrt   =  T 
 need gradient of logarithm =  T 

%%%% COMPUTE ELECTROSTATIC POTENTIAL %%%%%%%%%%%%%%%%%%%%%%%%%%%%%%%%%%%%%%%%%%%
 Warning: bad guess with residual norm =   0.254216E+04, reset to no guess
 Iteration #          1
  pAp =    95.869096220520092       rzold =    93.274017147210827       alpha =   0.97293101556585027     
 delta_qm =   0.276959E-01 delta_en =   0.132549E+04 tol =   0.100000E-03
 Iteration #          2
  pAp =    251.29116860609309       rzold =    23.528648030301408       alpha =    9.3631018395172141E-002
 delta_qm =   0.507395E-02 delta_en =   0.444873E+02 tol =   0.100000E-03
 Iteration #          3
  pAp =    1.7394478979803500       rzold =   0.29009031546017816       alpha =   0.16677148869879815     
 delta_qm =   0.235965E-02 delta_en =   0.962140E+01 tol =   0.100000E-03
 Iteration #          4
  pAp =   0.13913211020964783       rzold =    2.3839535053278790E-002  alpha =   0.17134459484123951     
 delta_qm =   0.188095E-02 delta_en =   0.611362E+01 tol =   0.100000E-03
 Iteration #          5
  pAp =    2.5607801001306513E-002  rzold =    6.4433270444550564E-003  alpha =   0.25161578864683920     
 delta_qm =   0.128331E-02 delta_en =   0.284584E+01 tol =   0.100000E-03
 Iteration #          6
  pAp =    8.4224234075450776E-003  rzold =    2.7292562152098632E-003  alpha =   0.32404642739343970     
 delta_qm =   0.748393E-03 delta_en =   0.967839E+00 tol =   0.100000E-03
 Iteration #          7
  pAp =    2.3287149468704175E-003  rzold =    8.7146268370833575E-004  alpha =   0.37422471345387415     
 delta_qm =   0.526994E-03 delta_en =   0.479905E+00 tol =   0.100000E-03
 Iteration #          8
  pAp =    1.1758860946375412E-003  rzold =    4.5289610229235736E-004  alpha =   0.38515303851089377     
 delta_qm =   0.307265E-03 delta_en =   0.163144E+00 tol =   0.100000E-03
 Iteration #          9
  pAp =    1.9990703061380588E-003  rzold =    4.9115804425769603E-004  alpha =   0.24569323187364472     
 delta_qm =   0.235207E-03 delta_en =   0.955968E-01 tol =   0.100000E-03
 Iteration #         10
  pAp =    7.6809466859375554E-004  rzold =    2.5704726650382893E-004  alpha =   0.33465570978957149     
 delta_qm =   0.982198E-04 delta_en =   0.166702E-01 tol =   0.100000E-03
 Iteration #         11
  pAp =    1.1992419943538131E-004  rzold =    3.9556770593359012E-005  alpha =   0.32984811055314456     
 delta_qm =   0.616213E-04 delta_en =   0.656154E-02 tol =   0.100000E-03
 Iteration #         12
  pAp =    3.8909431630428756E-005  rzold =    1.0270037053205812E-005  alpha =   0.26394723908468060     
 delta_qm =   0.435167E-04 delta_en =   0.327232E-02 tol =   0.100000E-03
 Iteration #         13
  pAp =    5.7859234772072464E-006  rzold =    2.2946309109594212E-006  alpha =   0.39658853422427137     
 delta_qm =   0.275596E-04 delta_en =   0.131247E-02 tol =   0.100000E-03
 Iteration #         14
  pAp =    2.8905968146908396E-006  rzold =    1.1802461445054775E-006  alpha =   0.40830535012947122     
 delta_qm =   0.192880E-04 delta_en =   0.642862E-03 tol =   0.100000E-03
 Iteration #         15
  pAp =    1.0636019488756497E-006  rzold =    4.7671184381695280E-007  alpha =   0.44820512440851801     
 delta_qm =   0.109178E-04 delta_en =   0.205975E-03 tol =   0.100000E-03
 Iteration #         16
  pAp =    4.8154089238023316E-007  rzold =    2.0603001374187782E-007  alpha =   0.42785569616628299     
 delta_qm =   0.655431E-05 delta_en =   0.742332E-04 tol =   0.100000E-03
 Charges are converged, EXIT

%%%% ELECTRONS %%%%%%%%%%%%%%%%%%%%%%%%%%%%%%%%%%%%%%%%%%%%%%%%%%%%%%%%%%%%%%%%%
 number of electrons        =         24
 total electronic charge    =     24.0000000
 number of spin components  =  1

%%%% BOUNDARY %%%%%%%%%%%%%%%%%%%%%%%%%%%%%%%%%%%%%%%%%%%%%%%%%%%%%%%%%%%%%%%%%%
 boundary mode              = electronic           
 boundary is built as a function of a smooth density
 function type              =  2 
 using the modified SCCS function with parameters 
 rhomax                     =      0.0050000 
 rhomin                     =      0.0001000 
 volume of the QM region    =    717.0728738 
 surface of the QM region   =    412.4194618 

%%%% DIELECTRIC %%%%%%%%%%%%%%%%%%%%%%%%%%%%%%%%%%%%%%%%%%%%%%%%%%%%%%%%%%%%%%%%%
 dielectric build on homogeneous background
 environment bulk permitt.  =    100.0000000 
 dielectric flags
 need gradient              =  F 
 need factor depend. sqrt   =  T 
 need gradient of logarithm =  T 
