
     Program PWSCF v.6.1 (svn rev. 13369) starts on  7Nov2017 at 16:21:35 

     This program is part of the open-source Quantum ESPRESSO suite
     for quantum simulation of materials; please cite
         "P. Giannozzi et al., J. Phys.:Condens. Matter 21 395502 (2009);
          URL http://www.quantum-espresso.org", 
     in publications or presentations arising from this work. More details at
     http://www.quantum-espresso.org/quote

     Serial version
     Reading input from neutral.in

     Current dimensions of program PWSCF are:
     Max number of different atomic species (ntypx) = 10
     Max number of k-points (npk) =  40000
     Max angular momentum in pseudopotentials (lmaxx) =  3
               file H.pbe-rrkjus.UPF: wavefunction(s)  1S renormalized
               file O.pbe-rrkjus.UPF: wavefunction(s)  2S renormalized

     gamma-point specific algorithms are used

     G-vector sticks info
     --------------------
     sticks:   dense  smooth     PW     G-vecs:    dense   smooth      PW
     Sum        9549    3809    949               701475   177509   22119



     bravais-lattice index     =            1
     lattice parameter (alat)  =      20.0000  a.u.
     unit-cell volume          =    8000.0000 (a.u.)^3
     number of atoms/cell      =            3
     number of atomic types    =            2
     number of electrons       =         8.00
     number of Kohn-Sham states=            4
     kinetic-energy cutoff     =      30.0000  Ry
     charge density cutoff     =     300.0000  Ry
     convergence threshold     =      5.0E-03
     mixing beta               =       0.7000
     number of iterations used =            8  plain     mixing
     Exchange-correlation      =  SLA  PW   PBE  PBE ( 1  4  3  4 0 0)


     Environ Module
     ==============

     Plese cite
         O. Andreussi, I. Dabo and N. Marzari, J. Chem. Phys. 136, 064102 (2012)         
     in publications or presentations arising from this work.

     compensation onset threshold      =               0.1000E+03 
     static permittivity               =                   100.00 
     epsilon calculation mode          =                    ionic 

     Electrostatic Setup
     -------------------
     electrostatic problem to solve    = generalized              
     numerical solver adopted          = iterative                
     type of auxiliary density adopted = full                     
     type of core tool for poisson     = fft                      
     type of core tool for s(r) deriv  = analytic                 



     celldm(1)=  20.000000  celldm(2)=   0.000000  celldm(3)=   0.000000
     celldm(4)=   0.000000  celldm(5)=   0.000000  celldm(6)=   0.000000

     crystal axes: (cart. coord. in units of alat)
               a(1) = (   1.000000   0.000000   0.000000 )  
               a(2) = (   0.000000   1.000000   0.000000 )  
               a(3) = (   0.000000   0.000000   1.000000 )  

     reciprocal axes: (cart. coord. in units 2 pi/alat)
               b(1) = (  1.000000  0.000000  0.000000 )  
               b(2) = (  0.000000  1.000000  0.000000 )  
               b(3) = (  0.000000  0.000000  1.000000 )  


     PseudoPot. # 1 for H  read from file:
     /Users/oliviero/PWSCF/espresso-6.1-Environ-1.0/Environ/tests/../..//pseudo/H.pbe-rrkjus.UPF
     MD5 check sum: 7cc9d459525c9a0585f487a71c3c9563
     Pseudo is Ultrasoft, Zval =  1.0
     Generated by new atomic code, or converted to UPF format
     Using radial grid of 1061 points,  2 beta functions with: 
                l(1) =   0
                l(2) =   0
     Q(r) pseudized with 0 coefficients 


     PseudoPot. # 2 for O  read from file:
     /Users/oliviero/PWSCF/espresso-6.1-Environ-1.0/Environ/tests/../..//pseudo/O.pbe-rrkjus.UPF
     MD5 check sum: 390ba29e75625707450f3bd3f0eb6be9
     Pseudo is Ultrasoft, Zval =  6.0
     Generated by new atomic code, or converted to UPF format
     Using radial grid of 1269 points,  4 beta functions with: 
                l(1) =   0
                l(2) =   0
                l(3) =   1
                l(4) =   1
     Q(r) pseudized with 0 coefficients 


     atomic species   valence    mass     pseudopotential
        H              1.00     1.00000     H ( 1.00)
        O              6.00    16.00000     O ( 1.00)

     No symmetry found



   Cartesian axes

     site n.     atom                  positions (alat units)
         1           O   tau(   1) = (   0.5895000   0.6025000   0.5750000  )
         2           H   tau(   2) = (   0.6725000   0.5610000   0.5750000  )
         3           H   tau(   3) = (   0.5280000   0.5330000   0.5750000  )

     number of k points=     1
                       cart. coord. in units 2pi/alat
        k(    1) = (   0.0000000   0.0000000   0.0000000), wk =   2.0000000

     Dense  grid:   350738 G-vectors     FFT dimensions: ( 120, 120, 120)

     Smooth grid:    88755 G-vectors     FFT dimensions: (  72,  72,  72)

     Estimated max dynamical RAM per process >     270.62MB

     Initial potential from superposition of free atoms
     Check: negative starting charge=   -0.000775

     starting charge    7.80759, renormalised to    8.00000

     negative rho (up, down):  7.936E-04 0.000E+00
     Starting wfc are    6 randomized atomic wfcs

     total cpu time spent up to now is        7.4 secs

     Self-consistent Calculation

     iteration #  1     ecut=    30.00 Ry     beta=0.70
     Davidson diagonalization with overlap
     ethr =  1.00E-02,  avg # of iterations =  2.0

     negative rho (up, down):  2.595E-04 0.000E+00

     add environment contribution to local potential
     polarization accuracy = 6.3E-05, # of iterations =  14

     total cpu time spent up to now is       15.8 secs

     total energy              =     -34.06236055 Ry
     Harris-Foulkes estimate   =     -34.58697711 Ry
     estimated scf accuracy    <       0.68458994 Ry
     electrostatic embedding   =       0.00000000 Ry
     correction to one-el term =       0.00000000 Ry

     iteration #  2     ecut=    30.00 Ry     beta=0.70
     Davidson diagonalization with overlap
     ethr =  8.56E-03,  avg # of iterations =  2.0

     negative rho (up, down):  2.757E-03 0.000E+00

     add environment contribution to local potential
     polarization accuracy = 6.9E-05, # of iterations =  10

     total cpu time spent up to now is       22.8 secs

     total energy              =     -34.21937960 Ry
     Harris-Foulkes estimate   =     -33.92339689 Ry
     estimated scf accuracy    <       0.37503443 Ry
     electrostatic embedding   =      -0.04586034 Ry
     correction to one-el term =      -0.44270863 Ry

     iteration #  3     ecut=    30.00 Ry     beta=0.70
     Davidson diagonalization with overlap
     ethr =  4.69E-03,  avg # of iterations =  2.0

     negative rho (up, down):  2.250E-04 0.000E+00

     add environment contribution to local potential
     polarization accuracy = 6.1E-05, # of iterations =   9

     total cpu time spent up to now is       29.0 secs

     total energy              =     -34.30052051 Ry
     Harris-Foulkes estimate   =     -33.90861947 Ry
     estimated scf accuracy    <       0.01712385 Ry
     electrostatic embedding   =      -0.04306158 Ry
     correction to one-el term =      -0.35839634 Ry

     iteration #  4     ecut=    30.00 Ry     beta=0.70
     Davidson diagonalization with overlap
     ethr =  2.14E-04,  avg # of iterations =  2.0

     negative rho (up, down):  2.169E-04 0.000E+00

     total cpu time spent up to now is       31.3 secs

     End of self-consistent calculation

          k = 0.0000 0.0000 0.0000 ( 11060 PWs)   bands (ev):

   -24.7768 -12.5197  -9.1217  -7.1362

     highest occupied level (ev):    -7.1362

!    total energy              =     -34.30878723 Ry
     Harris-Foulkes estimate   =     -34.26342646 Ry
     estimated scf accuracy    <       0.00017549 Ry

     The total energy is the sum of the following terms:

     one-electron contribution =     -63.88668059 Ry
     hartree contribution      =      33.46141680 Ry
     xc contribution           =      -8.39549682 Ry
     ewald contribution        =       4.55735774 Ry
     electrostatic embedding   =      -0.04707824 Ry
     correction to one-el term =       0.00169388 Ry

     convergence has been achieved in   4 iterations

     Forces acting on atoms (cartesian axes, Ry/au):

     atom    1 type  2   force =     0.00020541   -0.00142385   -0.00000115
     atom    2 type  1   force =    -0.00357890    0.00000792    0.00000035
     atom    3 type  1   force =     0.00337349    0.00141593    0.00000080

     Total force =     0.005316     Total SCF correction =     0.031130
     SCF correction compared to forces is large: reduce conv_thr to get better values

     Writing output data file pwscf.save

     init_run     :      6.74s CPU      7.31s WALL (       1 calls)
     electrons    :     22.20s CPU     23.98s WALL (       1 calls)
     forces       :      4.45s CPU      4.69s WALL (       1 calls)

     Called by init_run:
     wfcinit      :      0.06s CPU      0.07s WALL (       1 calls)
     potinit      :      1.54s CPU      1.65s WALL (       1 calls)

     Called by electrons:
     c_bands      :      0.42s CPU      0.44s WALL (       4 calls)
     sum_band     :      2.67s CPU      2.72s WALL (       4 calls)
     v_of_rho     :      5.45s CPU      5.87s WALL (       5 calls)
     newd         :      1.37s CPU      1.85s WALL (       5 calls)
     mix_rho      :      0.42s CPU      0.48s WALL (       4 calls)

     Called by c_bands:
     init_us_2    :      0.02s CPU      0.05s WALL (       9 calls)
     regterg      :      0.40s CPU      0.40s WALL (       4 calls)

     Called by sum_band:
     sum_band:bec :      0.00s CPU      0.00s WALL (       4 calls)
     addusdens    :      1.77s CPU      1.79s WALL (       4 calls)

     Called by *egterg:
     h_psi        :      0.41s CPU      0.41s WALL (      13 calls)
     s_psi        :      0.01s CPU      0.00s WALL (      13 calls)
     g_psi        :      0.00s CPU      0.00s WALL (       8 calls)
     rdiaghg      :      0.00s CPU      0.00s WALL (      12 calls)

     Called by h_psi:
     h_psi:pot    :      0.40s CPU      0.41s WALL (      13 calls)
     h_psi:calbec :      0.01s CPU      0.01s WALL (      13 calls)
     vloc_psi     :      0.39s CPU      0.39s WALL (      13 calls)
     add_vuspsi   :      0.01s CPU      0.00s WALL (      13 calls)

     General routines
     calbec       :      0.01s CPU      0.01s WALL (      21 calls)
     fft          :     12.10s CPU     12.26s WALL (     227 calls)
     ffts         :      0.09s CPU      0.09s WALL (       9 calls)
     fftw         :      0.36s CPU      0.36s WALL (      62 calls)
     interpolate  :      0.67s CPU      0.73s WALL (       9 calls)
     davcio       :      0.00s CPU      0.00s WALL (       1 calls)


     Environ routines
     calc_eelect  :      0.02s CPU      0.02s WALL (       8 calls)
     calc_velect  :     12.61s CPU     13.43s WALL (       6 calls)
     dielectric   :      0.16s CPU      0.19s WALL (       2 calls)
     calc_felect  :      0.12s CPU      0.12s WALL (       1 calls)

     PWSCF        :    33.59s CPU        36.32s WALL


   This run was terminated on:  16:22:11   7Nov2017            

=------------------------------------------------------------------------------=
   JOB DONE.
=------------------------------------------------------------------------------=

%%%% IONS %%%%%%%%%%%%%%%%%%%%%%%%%%%%%%%%%%%%%%%%%%%%%%%%%%%%%%%%%%%%%%%%%%%%%%
 number of ions             =          3
 ionic center of charge     =      0.5921875     0.5886250     0.5750000
 total ionic charge         =     -8.0000000
 ionic dipole               =      0.0000000     0.0000000     0.0000000
 ionic quadrupole (pc)      =     -4.2453875    -2.0049500     0.0000000
 ionic quadrupole (gauss)   =     -5.2453875    -3.0049500    -1.0000000
 ion   1 type =  2 coordinates =     11.7900000    12.0500000    11.5000000
 ion   2 type =  1 coordinates =     13.4500000    11.2200000    11.5000000
 ion   3 type =  1 coordinates =     10.5600000    10.6600000    11.5000000

%%%% SYSTEM %%%%%%%%%%%%%%%%%%%%%%%%%%%%%%%%%%%%%%%%%%%%%%%%%%%%%%%%%%%%%%%%%%%%
 system is built from all present ionic types
 system defined dimension   =  0 
 system defined axis        =  3 
 system center              =      0.5921875     0.5886250     0.5750000 
 system width               =      0.1209436 

%%%% BOUNDARY %%%%%%%%%%%%%%%%%%%%%%%%%%%%%%%%%%%%%%%%%%%%%%%%%%%%%%%%%%%%%%%%%%
 boundary mode              = ionic                
 boundary is built from soft-spheres centered on ionic positions
 solvent-dependent scaling  =      1.0000000 
 softness parameter         =      0.5000000 
 volume of the QM region    =    211.8920528 
 surface of the QM region   =    173.6178424 

%%%% DIELECTRIC %%%%%%%%%%%%%%%%%%%%%%%%%%%%%%%%%%%%%%%%%%%%%%%%%%%%%%%%%%%%%%%%%
 dielectric build on homogeneous background
 environment bulk permitt.  =    100.0000000 
 dielectric flags
 need gradient              =  F 
 need factor depend. sqrt   =  F 
 need gradient of logarithm =  T 

%%%% ELECTRONS %%%%%%%%%%%%%%%%%%%%%%%%%%%%%%%%%%%%%%%%%%%%%%%%%%%%%%%%%%%%%%%%%
 number of electrons        =          8
 total electronic charge    =      8.0000000
 number of spin components  =  1

%%%% COMPUTE ELECTROSTATIC POTENTIAL %%%%%%%%%%%%%%%%%%%%%%%%%%%%%%%%%%%%%%%%%%%
 Starting from polarization: rhoiter =      0.000000 jellium =      0.000000
 Iteration #          1
 delta_qm =   0.242083E-02 delta_en =   0.101268E+02 tol =   0.100000E-03
 Iteration #          2
 delta_qm =   0.151453E-02 delta_en =   0.396368E+01 tol =   0.100000E-03
 Iteration #          3
 delta_qm =   0.685363E-03 delta_en =   0.811681E+00 tol =   0.100000E-03
 Iteration #          4
 delta_qm =   0.457067E-03 delta_en =   0.360997E+00 tol =   0.100000E-03
 Iteration #          5
 delta_qm =   0.250603E-03 delta_en =   0.108521E+00 tol =   0.100000E-03
 Iteration #          6
 delta_qm =   0.167112E-03 delta_en =   0.482568E-01 tol =   0.100000E-03
 Iteration #          7
 delta_qm =   0.110781E-03 delta_en =   0.212069E-01 tol =   0.100000E-03
 Iteration #          8
 delta_qm =   0.631155E-04 delta_en =   0.688361E-02 tol =   0.100000E-03
 Iteration #          9
 delta_qm =   0.448072E-04 delta_en =   0.346928E-02 tol =   0.100000E-03
 Iteration #         10
 delta_qm =   0.315796E-04 delta_en =   0.172328E-02 tol =   0.100000E-03
 Iteration #         11
 delta_qm =   0.186951E-04 delta_en =   0.603950E-03 tol =   0.100000E-03
 Iteration #         12
 delta_qm =   0.132080E-04 delta_en =   0.301451E-03 tol =   0.100000E-03
 Iteration #         13
 delta_qm =   0.976229E-05 delta_en =   0.164682E-03 tol =   0.100000E-03
 Iteration #         14
 delta_qm =   0.605548E-05 delta_en =   0.633638E-04 tol =   0.100000E-03
 Charges are converged, EXIT

%%%% ELECTRONS %%%%%%%%%%%%%%%%%%%%%%%%%%%%%%%%%%%%%%%%%%%%%%%%%%%%%%%%%%%%%%%%%
 number of electrons        =          8
 total electronic charge    =      8.0000000
 number of spin components  =  1

%%%% COMPUTE ELECTROSTATIC POTENTIAL %%%%%%%%%%%%%%%%%%%%%%%%%%%%%%%%%%%%%%%%%%%
 Starting from polarization: rhoiter =      0.452157 jellium =      0.000000
 Iteration #          1
 delta_qm =   0.325777E-03 delta_en =   0.183394E+00 tol =   0.100000E-03
 Iteration #          2
 delta_qm =   0.187651E-03 delta_en =   0.608481E-01 tol =   0.100000E-03
 Iteration #          3
 delta_qm =   0.122499E-03 delta_en =   0.259304E-01 tol =   0.100000E-03
 Iteration #          4
 delta_qm =   0.839668E-04 delta_en =   0.121831E-01 tol =   0.100000E-03
 Iteration #          5
 delta_qm =   0.482710E-04 delta_en =   0.402639E-02 tol =   0.100000E-03
 Iteration #          6
 delta_qm =   0.345771E-04 delta_en =   0.206596E-02 tol =   0.100000E-03
 Iteration #          7
 delta_qm =   0.224644E-04 delta_en =   0.872032E-03 tol =   0.100000E-03
 Iteration #          8
 delta_qm =   0.126297E-04 delta_en =   0.275633E-03 tol =   0.100000E-03
 Iteration #          9
 delta_qm =   0.916402E-05 delta_en =   0.145116E-03 tol =   0.100000E-03
 Iteration #         10
 delta_qm =   0.630691E-05 delta_en =   0.687349E-04 tol =   0.100000E-03
 Charges are converged, EXIT

%%%% ELECTRONS %%%%%%%%%%%%%%%%%%%%%%%%%%%%%%%%%%%%%%%%%%%%%%%%%%%%%%%%%%%%%%%%%
 number of electrons        =          8
 total electronic charge    =      8.0000000
 number of spin components  =  1

%%%% COMPUTE ELECTROSTATIC POTENTIAL %%%%%%%%%%%%%%%%%%%%%%%%%%%%%%%%%%%%%%%%%%%
 Starting from polarization: rhoiter =      0.485245 jellium =      0.000000
 Iteration #          1
 delta_qm =   0.499103E-03 delta_en =   0.430451E+00 tol =   0.100000E-03
 Iteration #          2
 delta_qm =   0.326982E-03 delta_en =   0.184753E+00 tol =   0.100000E-03
 Iteration #          3
 delta_qm =   0.122042E-03 delta_en =   0.257371E-01 tol =   0.100000E-03
 Iteration #          4
 delta_qm =   0.789025E-04 delta_en =   0.107578E-01 tol =   0.100000E-03
 Iteration #          5
 delta_qm =   0.404431E-04 delta_en =   0.282639E-02 tol =   0.100000E-03
 Iteration #          6
 delta_qm =   0.243217E-04 delta_en =   0.102219E-02 tol =   0.100000E-03
 Iteration #          7
 delta_qm =   0.157232E-04 delta_en =   0.427197E-03 tol =   0.100000E-03
 Iteration #          8
 delta_qm =   0.868705E-05 delta_en =   0.130403E-03 tol =   0.100000E-03
 Iteration #          9
 delta_qm =   0.594817E-05 delta_en =   0.611379E-04 tol =   0.100000E-03
 Charges are converged, EXIT

%%%% ELECTRONS %%%%%%%%%%%%%%%%%%%%%%%%%%%%%%%%%%%%%%%%%%%%%%%%%%%%%%%%%%%%%%%%%
 number of electrons        =          8
 total electronic charge    =      8.0000000
 number of spin components  =  1
