
     Program PWSCF v.6.1 (svn rev. 13369) starts on  1Feb2018 at 12:16: 2 

     This program is part of the open-source Quantum ESPRESSO suite
     for quantum simulation of materials; please cite
         "P. Giannozzi et al., J. Phys.:Condens. Matter 21 395502 (2009);
          URL http://www.quantum-espresso.org", 
     in publications or presentations arising from this work. More details at
     http://www.quantum-espresso.org/quote

     Parallel version (MPI), running on     1 processors
     Reading input from charged.in

     Current dimensions of program PWSCF are:
     Max number of different atomic species (ntypx) = 10
     Max number of k-points (npk) =  40000
     Max angular momentum in pseudopotentials (lmaxx) =  3
               file C.pbe-rrkjus.UPF: wavefunction(s)  2S 2P renormalized
               file H.pbe-rrkjus.UPF: wavefunction(s)  1S renormalized
               file N.pbe-rrkjus.UPF: wavefunction(s)  2S renormalized
               file O.pbe-rrkjus.UPF: wavefunction(s)  2S renormalized

     gamma-point specific algorithms are used

     Subspace diagonalization in iterative solution of the eigenvalue problem:
     a serial algorithm will be used

 
     G-vector sticks info
     --------------------
     sticks:   dense  smooth     PW     G-vecs:    dense   smooth      PW
     Sum        9549    3809    949               701475   177509   22119
 


     bravais-lattice index     =            1
     lattice parameter (alat)  =      20.0000  a.u.
     unit-cell volume          =    8000.0000 (a.u.)^3
     number of atoms/cell      =           10
     number of atomic types    =            4
     number of electrons       =        24.00
     number of Kohn-Sham states=           12
     kinetic-energy cutoff     =      30.0000  Ry
     charge density cutoff     =     300.0000  Ry
     convergence threshold     =      5.0E-03
     mixing beta               =       0.7000
     number of iterations used =            8  plain     mixing
     Exchange-correlation      =  SLA  PW   PBE  PBE ( 1  4  3  4 0 0)
 

     Environ Module
     ==============

     Plese cite
         O. Andreussi, I. Dabo and N. Marzari, J. Chem. Phys. 136, 064102 (2012)         
     in publications or presentations arising from this work.

     compensation onset threshold      =               0.1000E+03 
     static permittivity               =                   100.00 
     epsilon calculation mode          =                    ionic 

     Electrostatic Setup
     -------------------
     electrostatic problem to solve    = generalized              
     numerical solver adopted          = cg                       
     type of auxiliary density adopted = none                     
     type of core tool for poisson     = fft                      
     type of core tool for s(r) deriv  = analytic                 



     celldm(1)=  20.000000  celldm(2)=   0.000000  celldm(3)=   0.000000
     celldm(4)=   0.000000  celldm(5)=   0.000000  celldm(6)=   0.000000

     crystal axes: (cart. coord. in units of alat)
               a(1) = (   1.000000   0.000000   0.000000 )  
               a(2) = (   0.000000   1.000000   0.000000 )  
               a(3) = (   0.000000   0.000000   1.000000 )  

     reciprocal axes: (cart. coord. in units 2 pi/alat)
               b(1) = (  1.000000  0.000000  0.000000 )  
               b(2) = (  0.000000  1.000000  0.000000 )  
               b(3) = (  0.000000  0.000000  1.000000 )  


     PseudoPot. # 1 for C  read from file:
     /home/fnattino/Programs/qe-6.1/Environ/tests/../..//pseudo/C.pbe-rrkjus.UPF
     MD5 check sum: 00fb224312de0c5b6853bd333518df6f
     Pseudo is Ultrasoft, Zval =  4.0
     Generated by new atomic code, or converted to UPF format
     Using radial grid of  627 points,  4 beta functions with: 
                l(1) =   0
                l(2) =   0
                l(3) =   1
                l(4) =   1
     Q(r) pseudized with 0 coefficients 


     PseudoPot. # 2 for H  read from file:
     /home/fnattino/Programs/qe-6.1/Environ/tests/../..//pseudo/H.pbe-rrkjus.UPF
     MD5 check sum: 7cc9d459525c9a0585f487a71c3c9563
     Pseudo is Ultrasoft, Zval =  1.0
     Generated by new atomic code, or converted to UPF format
     Using radial grid of 1061 points,  2 beta functions with: 
                l(1) =   0
                l(2) =   0
     Q(r) pseudized with 0 coefficients 


     PseudoPot. # 3 for N  read from file:
     /home/fnattino/Programs/qe-6.1/Environ/tests/../..//pseudo/N.pbe-rrkjus.UPF
     MD5 check sum: 0c3fbe5807a93f9ba59d5a7019aa238b
     Pseudo is Ultrasoft, Zval =  5.0
     Generated by new atomic code, or converted to UPF format
     Using radial grid of 1257 points,  4 beta functions with: 
                l(1) =   0
                l(2) =   0
                l(3) =   1
                l(4) =   1
     Q(r) pseudized with 0 coefficients 


     PseudoPot. # 4 for O  read from file:
     /home/fnattino/Programs/qe-6.1/Environ/tests/../..//pseudo/O.pbe-rrkjus.UPF
     MD5 check sum: 390ba29e75625707450f3bd3f0eb6be9
     Pseudo is Ultrasoft, Zval =  6.0
     Generated by new atomic code, or converted to UPF format
     Using radial grid of 1269 points,  4 beta functions with: 
                l(1) =   0
                l(2) =   0
                l(3) =   1
                l(4) =   1
     Q(r) pseudized with 0 coefficients 


     atomic species   valence    mass     pseudopotential
        C              4.00    12.00000     C ( 1.00)
        H              1.00     1.00000     H ( 1.00)
        N              5.00    14.00000     N ( 1.00)
        O              6.00    16.00000     O ( 1.00)

     No symmetry found



   Cartesian axes

     site n.     atom                  positions (alat units)
         1           C   tau(   1) = (   0.0000000   0.0000000   0.0000000  )
         2           C   tau(   2) = (   0.0000000   0.0000000   0.1455089  )
         3           N   tau(   3) = (   0.1170969   0.0000000  -0.0545024  )
         4           H   tau(   4) = (   0.0476617  -0.0825466   0.1792090  )
         5           H   tau(   5) = (  -0.0953183  -0.0000030   0.1792090  )
         6           H   tau(   6) = (   0.0476566   0.0825496   0.1792090  )
         7           O   tau(   7) = (  -0.0984002  -0.0000019  -0.0641310  )
         8           H   tau(   8) = (   0.1263131  -0.0000015  -0.1475548  )
         9           H   tau(   9) = (   0.1944645   0.0000134  -0.0025716  )
        10           H   tau(  10) = (  -0.0770366  -0.0000045  -0.1522861  )

     number of k points=     1
                       cart. coord. in units 2pi/alat
        k(    1) = (   0.0000000   0.0000000   0.0000000), wk =   2.0000000

     Dense  grid:   350738 G-vectors     FFT dimensions: ( 120, 120, 120)

     Smooth grid:    88755 G-vectors     FFT dimensions: (  72,  72,  72)

     Estimated max dynamical RAM per process >     298.98MB

     Initial potential from superposition of free atoms
     Check: negative starting charge=   -0.000452

     starting charge   24.42266, renormalised to   24.00000

     negative rho (up, down):  4.438E-04 0.000E+00
     Starting wfc are   22 randomized atomic wfcs

     total cpu time spent up to now is       12.8 secs

     per-process dynamical memory:   553.6 Mb

     Self-consistent Calculation

     iteration #  1     ecut=    30.00 Ry     beta=0.70
     Davidson diagonalization with overlap
     ethr =  1.00E-02,  avg # of iterations =  2.0

     negative rho (up, down):  1.277E-04 0.000E+00

     add environment contribution to local potential
     polarization accuracy = 3.5E-06, # of iterations =  18

     total cpu time spent up to now is       16.3 secs

     total energy              =     -80.23903180 Ry
     Harris-Foulkes estimate   =     -83.01879009 Ry
     estimated scf accuracy    <       3.73442311 Ry
     electrostatic embedding   =       0.00000000 Ry
     correction to one-el term =       0.00000000 Ry

     iteration #  2     ecut=    30.00 Ry     beta=0.70
     Davidson diagonalization with overlap
     ethr =  1.00E-02,  avg # of iterations =  4.0

     negative rho (up, down):  7.190E-04 0.000E+00

     add environment contribution to local potential
     polarization accuracy = 7.3E-06, # of iterations =  17

     total cpu time spent up to now is       19.9 secs

     total energy              =     -80.98828505 Ry
     Harris-Foulkes estimate   =     -75.67872782 Ry
     estimated scf accuracy    <       1.58000107 Ry
     electrostatic embedding   =      -0.23053360 Ry
     correction to one-el term =      -5.91828771 Ry

     iteration #  3     ecut=    30.00 Ry     beta=0.70
     Davidson diagonalization with overlap
     ethr =  6.58E-03,  avg # of iterations =  3.0

     negative rho (up, down):  2.647E-04 0.000E+00

     add environment contribution to local potential
     polarization accuracy = 3.5E-06, # of iterations =  18

     total cpu time spent up to now is       23.4 secs

     total energy              =     -81.34833759 Ry
     Harris-Foulkes estimate   =     -75.92847536 Ry
     estimated scf accuracy    <       0.18943069 Ry
     electrostatic embedding   =      -0.19282002 Ry
     correction to one-el term =      -5.33081152 Ry

     iteration #  4     ecut=    30.00 Ry     beta=0.70
     Davidson diagonalization with overlap
     ethr =  7.89E-04,  avg # of iterations =  4.0

     negative rho (up, down):  1.171E-04 0.000E+00

     add environment contribution to local potential
     polarization accuracy = 5.7E-06, # of iterations =  17

     total cpu time spent up to now is       26.8 secs

     total energy              =     -81.40090308 Ry
     Harris-Foulkes estimate   =     -76.35871251 Ry
     estimated scf accuracy    <       0.02186605 Ry
     electrostatic embedding   =      -0.15374237 Ry
     correction to one-el term =      -4.89970569 Ry

     iteration #  5     ecut=    30.00 Ry     beta=0.70
     Davidson diagonalization with overlap
     ethr =  9.11E-05,  avg # of iterations =  4.0

     negative rho (up, down):  2.672E-04 0.000E+00

     total cpu time spent up to now is       28.3 secs

     End of self-consistent calculation

          k = 0.0000 0.0000 0.0000 ( 11060 PWs)   bands (ev):

   -28.8750 -23.0511 -18.5007 -15.9405 -14.6083 -13.3270 -11.5581 -10.8624
    -9.3972  -9.3897  -9.2493  -7.3013

     highest occupied level (ev):    -7.3013

!    total energy              =     -81.40675146 Ry
     Harris-Foulkes estimate   =     -76.78348049 Ry
     estimated scf accuracy    <       0.00174026 Ry

     The total energy is the sum of the following terms:

     one-electron contribution =    -240.91174874 Ry
     hartree contribution      =     122.71286128 Ry
     xc contribution           =     -22.89112715 Ry
     ewald contribution        =      64.30784006 Ry
     electrostatic embedding   =      -0.13814030 Ry
     correction to one-el term =      -4.48643661 Ry

     convergence has been achieved in   5 iterations

     Forces acting on atoms (cartesian axes, Ry/au):

     atom    1 type  1   force =     0.22556254   -0.00001113    0.10483499
     atom    2 type  1   force =    -0.03368602   -0.00002868   -0.08419031
     atom    3 type  3   force =    -0.14405398   -0.00003401    0.04737344
     atom    4 type  2   force =     0.01986182   -0.03113078    0.00847425
     atom    5 type  2   force =    -0.03527699    0.00001242    0.01204705
     atom    6 type  2   force =     0.01986659    0.03117276    0.00848075
     atom    7 type  4   force =    -0.09471930   -0.00005832   -0.00696334
     atom    8 type  2   force =     0.00655217    0.00002594   -0.05489022
     atom    9 type  2   force =     0.04255851    0.00002705    0.04053073
     atom   10 type  2   force =    -0.00666534    0.00002474   -0.07569735

     Total force =     0.344464     Total SCF correction =     0.099051
     SCF correction compared to forces is large: reduce conv_thr to get better values

     Writing output data file pwscf.save
 
     init_run     :     12.44s CPU     12.71s WALL (       1 calls)
     electrons    :     14.12s CPU     15.56s WALL (       1 calls)
     forces       :     15.54s CPU     15.65s WALL (       1 calls)

     Called by init_run:
     wfcinit      :      0.09s CPU      0.10s WALL (       1 calls)
     potinit      :      0.78s CPU      0.83s WALL (       1 calls)

     Called by electrons:
     c_bands      :      0.84s CPU      0.85s WALL (       5 calls)
     sum_band     :      2.25s CPU      2.49s WALL (       5 calls)
     v_of_rho     :      3.19s CPU      3.31s WALL (       6 calls)
     newd         :      1.28s CPU      1.61s WALL (       6 calls)
     mix_rho      :      0.26s CPU      0.25s WALL (       5 calls)

     Called by c_bands:
     init_us_2    :      0.05s CPU      0.05s WALL (      11 calls)
     regterg      :      0.78s CPU      0.79s WALL (       5 calls)

     Called by sum_band:
     sum_band:bec :      0.00s CPU      0.00s WALL (       5 calls)
     addusdens    :      1.66s CPU      1.90s WALL (       5 calls)

     Called by *egterg:
     h_psi        :      0.74s CPU      0.77s WALL (      23 calls)
     s_psi        :      0.02s CPU      0.02s WALL (      23 calls)
     g_psi        :      0.01s CPU      0.01s WALL (      17 calls)
     rdiaghg      :      0.00s CPU      0.01s WALL (      22 calls)

     Called by h_psi:
     h_psi:pot    :      0.74s CPU      0.76s WALL (      23 calls)
     h_psi:calbec :      0.02s CPU      0.02s WALL (      23 calls)
     vloc_psi     :      0.70s CPU      0.72s WALL (      23 calls)
     add_vuspsi   :      0.03s CPU      0.02s WALL (      23 calls)

     General routines
     calbec       :      0.02s CPU      0.03s WALL (      32 calls)
     fft          :      5.65s CPU      5.98s WALL (     269 calls)
     ffts         :      0.04s CPU      0.04s WALL (      11 calls)
     fftw         :      0.54s CPU      0.55s WALL (     244 calls)
     interpolate  :      0.34s CPU      0.35s WALL (      11 calls)
     davcio       :      0.00s CPU      0.00s WALL (       1 calls)
 
     Parallel routines
     fft_scatter  :      1.50s CPU      1.65s WALL (     524 calls)
 
     Environ routines
     calc_eelect  :      0.02s CPU      0.01s WALL (      10 calls)
     calc_velect  :      6.17s CPU      6.89s WALL (       8 calls)
     dielectric   :      0.11s CPU      0.11s WALL (       2 calls)
     calc_felect  :      0.08s CPU      0.09s WALL (       1 calls)
 
     PWSCF        :    42.22s CPU        44.08s WALL

 
   This run was terminated on:  12:16:46   1Feb2018            

=------------------------------------------------------------------------------=
   JOB DONE.
=------------------------------------------------------------------------------=

%%%% IONS %%%%%%%%%%%%%%%%%%%%%%%%%%%%%%%%%%%%%%%%%%%%%%%%%%%%%%%%%%%%%%%%%%%%%%
 number of ions             =         10
 ionic center of charge     =      0.0095530    -0.0000002     0.0063981
 total ionic charge         =    -25.0000000
 ionic dipole               =      0.0000000     0.0000000     0.0000000
 ionic quadrupole (pc)      =    -79.0828058    -5.4513517  -105.8059629
 ionic quadrupole (gauss)   =    -82.2078058    -8.5763517  -108.9309629
 ion   1 type =  1 coordinates =      0.0000000     0.0000000     0.0000000
 ion   2 type =  1 coordinates =      0.0000000     0.0000000     2.9101782
 ion   3 type =  3 coordinates =      2.3419379     0.0000000    -1.0900479
 ion   4 type =  2 coordinates =      0.9532347    -1.6509323     3.5841800
 ion   5 type =  2 coordinates =     -1.9063663    -0.0000596     3.5841809
 ion   6 type =  2 coordinates =      0.9531315     1.6509919     3.5841800
 ion   7 type =  4 coordinates =     -1.9680045    -0.0000375    -1.2826193
 ion   8 type =  2 coordinates =      2.5262613    -0.0000303    -2.9510950
 ion   9 type =  2 coordinates =      3.8892907     0.0002681    -0.0514326
 ion  10 type =  2 coordinates =     -1.5407317    -0.0000890    -3.0457220

%%%% SYSTEM %%%%%%%%%%%%%%%%%%%%%%%%%%%%%%%%%%%%%%%%%%%%%%%%%%%%%%%%%%%%%%%%%%%%
 system is built from all present ionic types
 system defined dimension   =  0 
 system defined axis        =  3 
 system center              =      0.0095530    -0.0000002     0.0063981 
 system width               =      0.2021425 

%%%% BOUNDARY %%%%%%%%%%%%%%%%%%%%%%%%%%%%%%%%%%%%%%%%%%%%%%%%%%%%%%%%%%%%%%%%%%
 boundary mode              = ionic                
 boundary is built from soft-spheres centered on ionic positions
 solvent-dependent scaling  =      1.0000000 
 softness parameter         =      0.5000000 
 volume of the QM region    =    609.3920716 
 surface of the QM region   =    383.1651442 

%%%% DIELECTRIC %%%%%%%%%%%%%%%%%%%%%%%%%%%%%%%%%%%%%%%%%%%%%%%%%%%%%%%%%%%%%%%%%
 dielectric build on homogeneous background
 environment bulk permitt.  =    100.0000000 
 dielectric flags
 need gradient              =  F 
 need factor depend. sqrt   =  T 
 total dielectric charge    =      0.0000000

%%%% ELECTRONS %%%%%%%%%%%%%%%%%%%%%%%%%%%%%%%%%%%%%%%%%%%%%%%%%%%%%%%%%%%%%%%%%
 number of electrons        =         24
 total electronic charge    =     24.0000000
 number of spin components  =  1

%%%% ELECTRONS %%%%%%%%%%%%%%%%%%%%%%%%%%%%%%%%%%%%%%%%%%%%%%%%%%%%%%%%%%%%%%%%%
 number of electrons        =         24
 total electronic charge    =     24.0000000
 number of spin components  =  1

%%%% COMPUTE ELECTROSTATIC POTENTIAL %%%%%%%%%%%%%%%%%%%%%%%%%%%%%%%%%%%%%%%%%%%
 Iteration #          1
  pAp =    95.4218310326181       rzold =    89.2010667691894       alpha = 
  0.934807745815502     
 delta_qm =   0.319336E-01 delta_en =   0.176214E+04 tol =   0.100000E-04
 Iteration #          2
  pAp =    606.163865133447       rzold =    55.8115100040063       alpha = 
  9.207330428995374E-002
 delta_qm =   0.435098E-02 delta_en =   0.327128E+02 tol =   0.100000E-04
 Iteration #          3
  pAp =    2.10451119990345       rzold =   0.393840853767030       alpha = 
  0.187141248659118     
 delta_qm =   0.195693E-02 delta_en =   0.661751E+01 tol =   0.100000E-04
 Iteration #          4
  pAp =   0.310128524079095       rzold =   4.673168510648962E-002  alpha = 
  0.150684898286142     
 delta_qm =   0.142397E-02 delta_en =   0.350386E+01 tol =   0.100000E-04
 Iteration #          5
  pAp =   3.266099344877565E-002  rzold =   8.215188820629700E-003  alpha = 
  0.251529055094852     
 delta_qm =   0.946608E-03 delta_en =   0.154840E+01 tol =   0.100000E-04
 Iteration #          6
  pAp =   8.332488450619933E-003  rzold =   2.907062995994218E-003  alpha = 
  0.348882931338229     
 delta_qm =   0.492900E-03 delta_en =   0.419818E+00 tol =   0.100000E-04
 Iteration #          7
  pAp =   5.112679920185110E-003  rzold =   1.147936985838437E-003  alpha = 
  0.224527450135559     
 delta_qm =   0.327525E-03 delta_en =   0.185368E+00 tol =   0.100000E-04
 Iteration #          8
  pAp =   1.869737665598794E-003  rzold =   4.737700441277177E-004  alpha = 
  0.253388511578168     
 delta_qm =   0.238001E-03 delta_en =   0.978818E-01 tol =   0.100000E-04
 Iteration #          9
  pAp =   2.757031802815213E-004  rzold =   1.621893931494246E-004  alpha = 
  0.588275380007632     
 delta_qm =   0.145822E-03 delta_en =   0.367444E-01 tol =   0.100000E-04
 Iteration #         10
  pAp =   3.387257199687718E-004  rzold =   1.331107422755599E-004  alpha = 
  0.392975007294491     
 delta_qm =   0.709418E-04 delta_en =   0.869657E-02 tol =   0.100000E-04
 Iteration #         11
  pAp =   9.087031329580292E-005  rzold =   3.259188751900481E-005  alpha = 
  0.358663752076116     
 delta_qm =   0.450482E-04 delta_en =   0.350670E-02 tol =   0.100000E-04
 Iteration #         12
  pAp =   1.690205664953089E-005  rzold =   5.748601775164117E-006  alpha = 
  0.340112561113897     
 delta_qm =   0.290665E-04 delta_en =   0.145993E-02 tol =   0.100000E-04
 Iteration #         13
  pAp =   4.503206117847101E-006  rzold =   1.822357210105811E-006  alpha = 
  0.404679946335001     
 delta_qm =   0.187945E-04 delta_en =   0.610387E-03 tol =   0.100000E-04
 Iteration #         14
  pAp =   3.060369546281896E-006  rzold =   1.056989310375284E-006  alpha = 
  0.345379632881082     
 delta_qm =   0.119453E-04 delta_en =   0.246570E-03 tol =   0.100000E-04
 Iteration #         15
  pAp =   1.231210469084686E-006  rzold =   4.225721503625168E-007  alpha = 
  0.343216826832758     
 delta_qm =   0.761691E-05 delta_en =   0.100254E-03 tol =   0.100000E-04
 Iteration #         16
  pAp =   5.964582987473121E-007  rzold =   1.744688181314116E-007  alpha = 
  0.292507990077148     
 delta_qm =   0.523295E-05 delta_en =   0.473191E-04 tol =   0.100000E-04
 Iteration #         17
  pAp =   2.234450472440732E-007  rzold =   8.007126988289960E-008  alpha = 
  0.358348823885258     
 delta_qm =   0.277311E-05 delta_en =   0.132886E-04 tol =   0.100000E-04
 Iteration #         18
  pAp =   5.840174342666799E-008  rzold =   2.497105215506021E-008  alpha = 
  0.427573745061482     
 delta_qm =   0.142054E-05 delta_en =   0.348699E-05 tol =   0.100000E-04
 Charges are converged, EXIT

%%%% ELECTRONS %%%%%%%%%%%%%%%%%%%%%%%%%%%%%%%%%%%%%%%%%%%%%%%%%%%%%%%%%%%%%%%%%
 number of electrons        =         24
 total electronic charge    =     24.0000000
 number of spin components  =  1

%%%% COMPUTE ELECTROSTATIC POTENTIAL %%%%%%%%%%%%%%%%%%%%%%%%%%%%%%%%%%%%%%%%%%%
 Warning: bad guess with residual norm =   0.178950E+04, reset to no guess
 Iteration #          1
  pAp =    98.8691684566852       rzold =    93.2687984180797       alpha = 
  0.943355748551087     
 delta_qm =   0.306214E-01 delta_en =   0.162029E+04 tol =   0.100000E-04
 Iteration #          2
  pAp =    561.359115337535       rzold =    51.3736282408323       alpha = 
  9.151651204584488E-002
 delta_qm =   0.382283E-02 delta_en =   0.252530E+02 tol =   0.100000E-04
 Iteration #          3
  pAp =    1.96426708358456       rzold =   0.311175087947288       alpha = 
  0.158417910959151     
 delta_qm =   0.190904E-02 delta_en =   0.629760E+01 tol =   0.100000E-04
 Iteration #          4
  pAp =   0.262284266909822       rzold =   3.969732893364697E-002  alpha = 
  0.151352307179354     
 delta_qm =   0.145126E-02 delta_en =   0.363944E+01 tol =   0.100000E-04
 Iteration #          5
  pAp =   1.879185329033091E-002  rzold =   6.053195425334797E-003  alpha = 
  0.322118065302765     
 delta_qm =   0.895454E-03 delta_en =   0.138558E+01 tol =   0.100000E-04
 Iteration #          6
  pAp =   9.204207119277743E-003  rzold =   2.878142991928466E-003  alpha = 
  0.312698633856288     
 delta_qm =   0.471660E-03 delta_en =   0.384416E+00 tol =   0.100000E-04
 Iteration #          7
  pAp =   5.427212751009199E-003  rzold =   1.116178871417011E-003  alpha = 
  0.205663371351981     
 delta_qm =   0.341375E-03 delta_en =   0.201376E+00 tol =   0.100000E-04
 Iteration #          8
  pAp =   1.214261013698763E-003  rzold =   4.167992722961376E-004  alpha = 
  0.343253441882750     
 delta_qm =   0.238342E-03 delta_en =   0.981621E-01 tol =   0.100000E-04
 Iteration #          9
  pAp =   3.589742264848099E-004  rzold =   2.030831493651228E-004  alpha = 
  0.565731839173463     
 delta_qm =   0.136496E-03 delta_en =   0.321945E-01 tol =   0.100000E-04
 Iteration #         10
  pAp =   3.709230871339228E-004  rzold =   1.330110096588200E-004  alpha = 
  0.358594582738378     
 delta_qm =   0.645599E-04 delta_en =   0.720226E-02 tol =   0.100000E-04
 Iteration #         11
  pAp =   6.353242603757652E-005  rzold =   2.294575033075220E-005  alpha = 
  0.361165970856848     
 delta_qm =   0.442960E-04 delta_en =   0.339058E-02 tol =   0.100000E-04
 Iteration #         12
  pAp =   1.261842777444518E-005  rzold =   4.730247530553652E-006  alpha = 
  0.374868217745268     
 delta_qm =   0.279558E-04 delta_en =   0.135048E-02 tol =   0.100000E-04
 Iteration #         13
  pAp =   2.717039587922186E-006  rzold =   1.479706537799978E-006  alpha = 
  0.544602494706954     
 delta_qm =   0.153654E-04 delta_en =   0.407975E-03 tol =   0.100000E-04
 Iteration #         14
  pAp =   2.176192210946323E-006  rzold =   7.230727294865761E-007  alpha = 
  0.332265103169424     
 delta_qm =   0.105197E-04 delta_en =   0.191229E-03 tol =   0.100000E-04
 Iteration #         15
  pAp =   1.619734661741362E-006  rzold =   4.349421196800380E-007  alpha = 
  0.268526771670389     
 delta_qm =   0.694153E-05 delta_en =   0.832635E-04 tol =   0.100000E-04
 Iteration #         16
  pAp =   2.300115339038427E-007  rzold =   1.053573407119769E-007  alpha = 
  0.458052424258089     
 delta_qm =   0.362540E-05 delta_en =   0.227120E-04 tol =   0.100000E-04
 Iteration #         17
  pAp =   1.073047317281526E-007  rzold =   4.072438916929778E-008  alpha = 
  0.379520907544595     
 delta_qm =   0.205429E-05 delta_en =   0.729231E-05 tol =   0.100000E-04
 Charges are converged, EXIT

%%%% ELECTRONS %%%%%%%%%%%%%%%%%%%%%%%%%%%%%%%%%%%%%%%%%%%%%%%%%%%%%%%%%%%%%%%%%
 number of electrons        =         24
 total electronic charge    =     24.0000000
 number of spin components  =  1

%%%% COMPUTE ELECTROSTATIC POTENTIAL %%%%%%%%%%%%%%%%%%%%%%%%%%%%%%%%%%%%%%%%%%%
 Warning: bad guess with residual norm =   0.141514E+04, reset to no guess
 Iteration #          1
  pAp =    98.2613195525091       rzold =    93.7828020324065       alpha = 
  0.954422375554306     
 delta_qm =   0.275058E-01 delta_en =   0.130735E+04 tol =   0.100000E-04
 Iteration #          2
  pAp =    465.580301570973       rzold =    42.0747430493059       alpha = 
  9.037053953385950E-002
 delta_qm =   0.358355E-02 delta_en =   0.221907E+02 tol =   0.100000E-04
 Iteration #          3
  pAp =    1.47715354292978       rzold =   0.250941870354299       alpha = 
  0.169882048860392     
 delta_qm =   0.180129E-02 delta_en =   0.560673E+01 tol =   0.100000E-04
 Iteration #          4
  pAp =   0.247742497576467       rzold =   3.678123927614232E-002  alpha = 
  0.148465602938348     
 delta_qm =   0.135733E-02 delta_en =   0.318358E+01 tol =   0.100000E-04
 Iteration #          5
  pAp =   1.798933724638645E-002  rzold =   5.525290333432218E-003  alpha = 
  0.307142517690144     
 delta_qm =   0.863695E-03 delta_en =   0.128903E+01 tol =   0.100000E-04
 Iteration #          6
  pAp =   6.346442271850459E-003  rzold =   2.330308880608059E-003  alpha = 
  0.367183499162059     
 delta_qm =   0.434726E-03 delta_en =   0.326569E+00 tol =   0.100000E-04
 Iteration #          7
  pAp =   1.728433913306888E-003  rzold =   6.378483459228289E-004  alpha = 
  0.369032533446697     
 delta_qm =   0.279618E-03 delta_en =   0.135105E+00 tol =   0.100000E-04
 Iteration #          8
  pAp =   7.241587887350488E-004  rzold =   2.618780678266567E-004  alpha = 
  0.361630725057003     
 delta_qm =   0.202432E-03 delta_en =   0.708115E-01 tol =   0.100000E-04
 Iteration #          9
  pAp =   9.301926439322875E-004  rzold =   2.732805402591064E-004  alpha = 
  0.293789186618207     
 delta_qm =   0.129145E-03 delta_en =   0.288202E-01 tol =   0.100000E-04
 Iteration #         10
  pAp =   4.008800089334618E-004  rzold =   1.306565596387042E-004  alpha = 
  0.325924358229573     
 delta_qm =   0.630333E-04 delta_en =   0.686568E-02 tol =   0.100000E-04
 Iteration #         11
  pAp =   7.393592769725552E-005  rzold =   2.449910913280015E-005  alpha = 
  0.331355944205046     
 delta_qm =   0.447442E-04 delta_en =   0.345953E-02 tol =   0.100000E-04
 Iteration #         12
  pAp =   1.580220967596815E-005  rzold =   5.309374328990695E-006  alpha = 
  0.335989360846486     
 delta_qm =   0.292638E-04 delta_en =   0.147981E-02 tol =   0.100000E-04
 Iteration #         13
  pAp =   4.125282637196618E-006  rzold =   1.741606781705751E-006  alpha = 
  0.422178777764735     
 delta_qm =   0.181291E-04 delta_en =   0.567935E-03 tol =   0.100000E-04
 Iteration #         14
  pAp =   2.782891471479129E-006  rzold =   1.036892877603794E-006  alpha = 
  0.372595513777861     
 delta_qm =   0.112023E-04 delta_en =   0.216850E-03 tol =   0.100000E-04
 Iteration #         15
  pAp =   8.703108510345578E-007  rzold =   3.554729309200619E-007  alpha = 
  0.408443638841804     
 delta_qm =   0.658108E-05 delta_en =   0.748407E-04 tol =   0.100000E-04
 Iteration #         16
  pAp =   2.886185973272726E-007  rzold =   1.091706503058264E-007  alpha = 
  0.378252307082051     
 delta_qm =   0.405465E-05 delta_en =   0.284087E-04 tol =   0.100000E-04
 Iteration #         17
  pAp =   2.256517970014962E-007  rzold =   5.913611368383355E-008  alpha = 
  0.262067993561963     
 delta_qm =   0.246902E-05 delta_en =   0.105340E-04 tol =   0.100000E-04
 Iteration #         18
  pAp =   6.289665044717030E-008  rzold =   2.236642026604521E-008  alpha = 
  0.355605904400772     
 delta_qm =   0.141665E-05 delta_en =   0.346793E-05 tol =   0.100000E-04
 Charges are converged, EXIT

%%%% ELECTRONS %%%%%%%%%%%%%%%%%%%%%%%%%%%%%%%%%%%%%%%%%%%%%%%%%%%%%%%%%%%%%%%%%
 number of electrons        =         23
 total electronic charge    =     24.0000000
 number of spin components  =  1

%%%% COMPUTE ELECTROSTATIC POTENTIAL %%%%%%%%%%%%%%%%%%%%%%%%%%%%%%%%%%%%%%%%%%%
 Warning: bad guess with residual norm =   0.122574E+04, reset to no guess
 Iteration #          1
  pAp =    97.4582675883987       rzold =    93.5665538894947       alpha = 
  0.960067895775245     
 delta_qm =   0.257287E-01 delta_en =   0.114388E+04 tol =   0.100000E-04
 Iteration #          2
  pAp =    406.202630733987       rzold =    36.6587191523580       alpha = 
  9.024737010225065E-002
 delta_qm =   0.369378E-02 delta_en =   0.235768E+02 tol =   0.100000E-04
 Iteration #          3
  pAp =    1.65346919726574       rzold =   0.278150961136882       alpha = 
  0.168222644604960     
 delta_qm =   0.177211E-02 delta_en =   0.542655E+01 tol =   0.100000E-04
 Iteration #          4
  pAp =   0.274243559795819       rzold =   4.029861387788663E-002  alpha = 
  0.146944613422791     
 delta_qm =   0.131778E-02 delta_en =   0.300073E+01 tol =   0.100000E-04
 Iteration #          5
  pAp =   1.883342923685959E-002  rzold =   5.555832614484056E-003  alpha = 
  0.294998459633179     
 delta_qm =   0.860769E-03 delta_en =   0.128032E+01 tol =   0.100000E-04
 Iteration #          6
  pAp =   5.938238193547946E-003  rzold =   2.202584415155775E-003  alpha = 
  0.370915470778680     
 delta_qm =   0.448351E-03 delta_en =   0.347359E+00 tol =   0.100000E-04
 Iteration #          7
  pAp =   2.225595832393793E-003  rzold =   7.165607026439647E-004  alpha = 
  0.321963535433678     
 delta_qm =   0.297109E-03 delta_en =   0.152537E+00 tol =   0.100000E-04
 Iteration #          8
  pAp =   1.607090113259450E-003  rzold =   3.836679548401422E-004  alpha = 
  0.238734562346351     
 delta_qm =   0.224486E-03 delta_en =   0.870806E-01 tol =   0.100000E-04
 Iteration #          9
  pAp =   4.649350908507577E-004  rzold =   2.167041776850414E-004  alpha = 
  0.466095551722085     
 delta_qm =   0.131990E-03 delta_en =   0.301040E-01 tol =   0.100000E-04
 Iteration #         10
  pAp =   3.209684632699908E-004  rzold =   1.204201895239089E-004  alpha = 
  0.375177636759330     
 delta_qm =   0.620670E-04 delta_en =   0.665680E-02 tol =   0.100000E-04
 Iteration #         11
  pAp =   7.433434161455274E-005  rzold =   2.450301297226160E-005  alpha = 
  0.329632474574370     
 delta_qm =   0.442056E-04 delta_en =   0.337674E-02 tol =   0.100000E-04
 Iteration #         12
  pAp =   1.657578395399678E-005  rzold =   5.436333912299303E-006  alpha = 
  0.327968434397245     
 delta_qm =   0.289832E-04 delta_en =   0.145157E-02 tol =   0.100000E-04
 Iteration #         13
  pAp =   3.928221414987765E-006  rzold =   1.679727924637376E-006  alpha = 
  0.427605205304500     
 delta_qm =   0.179633E-04 delta_en =   0.557590E-03 tol =   0.100000E-04
 Iteration #         14
  pAp =   2.670823164998688E-006  rzold =   1.001108651210483E-006  alpha = 
  0.374831499265873     
 delta_qm =   0.111352E-04 delta_en =   0.214260E-03 tol =   0.100000E-04
 Iteration #         15
  pAp =   8.669723612328711E-007  rzold =   3.579489347476639E-007  alpha = 
  0.412872371431363     
 delta_qm =   0.639692E-05 delta_en =   0.707108E-04 tol =   0.100000E-04
 Iteration #         16
  pAp =   2.157572992223968E-007  rzold =   9.766298465352989E-008  alpha = 
  0.452652053976916     
 delta_qm =   0.357095E-05 delta_en =   0.220350E-04 tol =   0.100000E-04
 Iteration #         17
  pAp =   7.196046790981397E-008  rzold =   3.233880098568603E-008  alpha = 
  0.449396758039641     
 delta_qm =   0.181085E-05 delta_en =   0.566639E-05 tol =   0.100000E-04
 Charges are converged, EXIT

%%%% ELECTRONS %%%%%%%%%%%%%%%%%%%%%%%%%%%%%%%%%%%%%%%%%%%%%%%%%%%%%%%%%%%%%%%%%
 number of electrons        =         23
 total electronic charge    =     24.0000000
 number of spin components  =  1
