
     Program PWSCF v.6.4.1 starts on 24Apr2019 at 15: 7:12 

     This program is part of the open-source Quantum ESPRESSO suite
     for quantum simulation of materials; please cite
         "P. Giannozzi et al., J. Phys.:Condens. Matter 21 395502 (2009);
         "P. Giannozzi et al., J. Phys.:Condens. Matter 29 465901 (2017);
          URL http://www.quantum-espresso.org", 
     in publications or presentations arising from this work. More details at
     http://www.quantum-espresso.org/quote

     Parallel version (MPI), running on     1 processors

     MPI processes distributed on     1 nodes
     Reading input from neutral.in

     Current dimensions of program PWSCF are:
     Max number of different atomic species (ntypx) = 10
     Max number of k-points (npk) =  40000
     Max angular momentum in pseudopotentials (lmaxx) =  3
               file H.pbe-rrkjus.UPF: wavefunction(s)  1S renormalized
               file O.pbe-rrkjus.UPF: wavefunction(s)  2S renormalized

     gamma-point specific algorithms are used

     Subspace diagonalization in iterative solution of the eigenvalue problem:
     a serial algorithm will be used

 
     G-vector sticks info
     --------------------
     sticks:   dense  smooth     PW     G-vecs:    dense   smooth      PW
     Sum        9549    3809    949               701475   177509   22119
 


     bravais-lattice index     =            1
     lattice parameter (alat)  =      20.0000  a.u.
     unit-cell volume          =    8000.0000 (a.u.)^3
     number of atoms/cell      =            3
     number of atomic types    =            2
     number of electrons       =         8.00
     number of Kohn-Sham states=            4
     kinetic-energy cutoff     =      30.0000  Ry
     charge density cutoff     =     300.0000  Ry
     convergence threshold     =      5.0E-03
     mixing beta               =       0.7000
     number of iterations used =            8  plain     mixing
     Exchange-correlation      = SLA PW PBE PBE ( 1  4  3  4 0 0)
 

     Environ Module
     ==============

     Plese cite
         O. Andreussi, I. Dabo and N. Marzari, J. Chem. Phys. 136, 064102 (2012)         
     in publications or presentations arising from this work.

     compensation onset threshold      =               0.1000E+03 
     static permittivity               =                   100.00 
     epsilon calculation mode          =               electronic 

     Electrostatic Setup
     -------------------
     electrostatic problem to solve    = generalized              
     numerical solver adopted          = sd                       
     type of auxiliary density adopted = none                     
     type of core tool for poisson     = fft                      
     type of core tool for s(r) deriv  = analytic                 



     celldm(1)=  20.000000  celldm(2)=   0.000000  celldm(3)=   0.000000
     celldm(4)=   0.000000  celldm(5)=   0.000000  celldm(6)=   0.000000

     crystal axes: (cart. coord. in units of alat)
               a(1) = (   1.000000   0.000000   0.000000 )  
               a(2) = (   0.000000   1.000000   0.000000 )  
               a(3) = (   0.000000   0.000000   1.000000 )  

     reciprocal axes: (cart. coord. in units 2 pi/alat)
               b(1) = (  1.000000  0.000000  0.000000 )  
               b(2) = (  0.000000  1.000000  0.000000 )  
               b(3) = (  0.000000  0.000000  1.000000 )  


     PseudoPot. # 1 for H  read from file:
     /home/fnattino/Programs/quantumespresso/q-e-qe-6.4.1-develop/Environ/tests/../..//pseudo/H.pbe-rrkjus.UPF
     MD5 check sum: 2d52a7f45632fd764c17cc6affed14c8
     Pseudo is Ultrasoft, Zval =  1.0
     Generated by new atomic code, or converted to UPF format
     Using radial grid of 1061 points,  2 beta functions with: 
                l(1) =   0
                l(2) =   0
     Q(r) pseudized with 0 coefficients 


     PseudoPot. # 2 for O  read from file:
     /home/fnattino/Programs/quantumespresso/q-e-qe-6.4.1-develop/Environ/tests/../..//pseudo/O.pbe-rrkjus.UPF
     MD5 check sum: fadcf19ee70a498d3030e2e79cf929a4
     Pseudo is Ultrasoft, Zval =  6.0
     Generated by new atomic code, or converted to UPF format
     Using radial grid of 1269 points,  4 beta functions with: 
                l(1) =   0
                l(2) =   0
                l(3) =   1
                l(4) =   1
     Q(r) pseudized with 0 coefficients 


     atomic species   valence    mass     pseudopotential
        H              1.00     1.00000     H ( 1.00)
        O              6.00    16.00000     O ( 1.00)

     No symmetry found



   Cartesian axes

     site n.     atom                  positions (alat units)
         1           O   tau(   1) = (   0.5895000   0.6025000   0.5750000  )
         2           H   tau(   2) = (   0.6725000   0.5610000   0.5750000  )
         3           H   tau(   3) = (   0.5280000   0.5330000   0.5750000  )

     number of k points=     1
                       cart. coord. in units 2pi/alat
        k(    1) = (   0.0000000   0.0000000   0.0000000), wk =   2.0000000

     Dense  grid:   350738 G-vectors     FFT dimensions: ( 120, 120, 120)

     Smooth grid:    88755 G-vectors     FFT dimensions: (  72,  72,  72)

     Estimated max dynamical RAM per process >     548.70 MB

     Initial potential from superposition of free atoms

     starting charge    7.80759, renormalised to    8.00000

     negative rho (up, down):  7.936E-04 0.000E+00
     Starting wfcs are    6 randomized atomic wfcs

     total cpu time spent up to now is        3.1 secs

     Self-consistent Calculation

     iteration #  1     ecut=    30.00 Ry     beta= 0.70
     Davidson diagonalization with overlap
     ethr =  1.00E-02,  avg # of iterations =  2.0

     negative rho (up, down):  2.595E-04 0.000E+00

     add environment contribution to local potential
     polarization accuracy = 9.8E-06, # of iterations =  45

     total cpu time spent up to now is        9.2 secs

     total energy              =     -34.06237118 Ry
     Harris-Foulkes estimate   =     -34.58698941 Ry
     estimated scf accuracy    <       0.68459185 Ry
     electrostatic embedding   =       0.00000000 Ry
     correction to one-el term =       0.00000000 Ry

     iteration #  2     ecut=    30.00 Ry     beta= 0.70
     Davidson diagonalization with overlap
     ethr =  8.56E-03,  avg # of iterations =  2.0

     negative rho (up, down):  2.656E-03 0.000E+00

     add environment contribution to local potential
     polarization accuracy = 7.2E-06, # of iterations =  55

     total cpu time spent up to now is       16.4 secs

     total energy              =     -34.20827491 Ry
     Harris-Foulkes estimate   =     -33.94013984 Ry
     estimated scf accuracy    <       0.35521444 Ry
     electrostatic embedding   =      -0.03790045 Ry
     correction to one-el term =      -0.41331589 Ry

     iteration #  3     ecut=    30.00 Ry     beta= 0.70
     Davidson diagonalization with overlap
     ethr =  4.44E-03,  avg # of iterations =  2.0

     negative rho (up, down):  2.205E-04 0.000E+00

     add environment contribution to local potential
     polarization accuracy = 7.9E-06, # of iterations =  61

     total cpu time spent up to now is       24.1 secs

     total energy              =     -34.29048326 Ry
     Harris-Foulkes estimate   =     -33.97797465 Ry
     estimated scf accuracy    <       0.01537695 Ry
     electrostatic embedding   =      -0.02890122 Ry
     correction to one-el term =      -0.29225752 Ry

     iteration #  4     ecut=    30.00 Ry     beta= 0.70
     Davidson diagonalization with overlap
     ethr =  1.92E-04,  avg # of iterations =  2.0

     negative rho (up, down):  2.142E-04 0.000E+00

     the potential shift due to the Gaussian-smeared nuclei is    -0.0214 ev

     total cpu time spent up to now is       25.5 secs

     End of self-consistent calculation

          k = 0.0000 0.0000 0.0000 ( 11060 PWs)   bands (ev):

   -24.5417 -12.3152  -8.7692  -6.7995

     highest occupied level (ev):    -6.7995

!    total energy              =     -34.29563946 Ry
     Harris-Foulkes estimate   =     -34.17199067 Ry
     estimated scf accuracy    <       0.00017512 Ry

     The total energy is the sum of the following terms:

     one-electron contribution =     -63.79218488 Ry
     hartree contribution      =      33.45949997 Ry
     xc contribution           =      -8.39662430 Ry
     ewald contribution        =       4.55735774 Ry
     electrostatic embedding   =      -0.03351108 Ry
     correction to one-el term =      -0.09017691 Ry

     convergence has been achieved in   4 iterations

     Forces acting on atoms (cartesian axes, Ry/au):

     atom    1 type  2   force =     0.00236834   -0.01240843   -0.00000283
     atom    2 type  1   force =    -0.00871513    0.00471870    0.00000113
     atom    3 type  1   force =     0.00634679    0.00768973    0.00000170

     Total force =     0.018900     Total SCF correction =     0.022988
     SCF correction compared to forces is large: reduce conv_thr to get better values

     Writing output data file pwscf.save/
 
     init_run     :      2.40s CPU      2.74s WALL (       1 calls)
     electrons    :     18.62s CPU     22.41s WALL (       1 calls)
     forces       :      0.35s CPU      0.42s WALL (       1 calls)

     Called by init_run:
     wfcinit      :      0.04s CPU      0.04s WALL (       1 calls)
     potinit      :      1.23s CPU      1.35s WALL (       1 calls)
     hinit0       :      0.89s CPU      0.93s WALL (       1 calls)

     Called by electrons:
     c_bands      :      0.28s CPU      0.28s WALL (       4 calls)
     sum_band     :      0.70s CPU      0.91s WALL (       4 calls)
     v_of_rho     :      2.15s CPU      2.34s WALL (       5 calls)
     newd         :      0.60s CPU      0.92s WALL (       5 calls)
     mix_rho      :      0.17s CPU      0.17s WALL (       4 calls)

     Called by c_bands:
     init_us_2    :      0.02s CPU      0.02s WALL (       9 calls)
     regterg      :      0.27s CPU      0.27s WALL (       4 calls)

     Called by sum_band:
     sum_band:bec :      0.00s CPU      0.00s WALL (       4 calls)
     addusdens    :      0.52s CPU      0.72s WALL (       4 calls)

     Called by *egterg:
     h_psi        :      0.27s CPU      0.28s WALL (      13 calls)
     s_psi        :      0.00s CPU      0.00s WALL (      13 calls)
     g_psi        :      0.00s CPU      0.00s WALL (       8 calls)
     rdiaghg      :      0.00s CPU      0.00s WALL (      12 calls)

     Called by h_psi:
     h_psi:pot    :      0.27s CPU      0.28s WALL (      13 calls)
     h_psi:calbec :      0.00s CPU      0.00s WALL (      13 calls)
     vloc_psi     :      0.27s CPU      0.27s WALL (      13 calls)
     add_vuspsi   :      0.00s CPU      0.00s WALL (      13 calls)

     General routines
     calbec       :      0.00s CPU      0.01s WALL (      21 calls)
     fft          :      7.89s CPU      7.96s WALL (     442 calls)
     ffts         :      0.03s CPU      0.03s WALL (       9 calls)
     fftw         :      0.25s CPU      0.25s WALL (      62 calls)
     interpolate  :      0.14s CPU      0.14s WALL (       5 calls)
 
     Parallel routines
 
     Environ routines
     calc_eelect  :      0.01s CPU      0.01s WALL (       8 calls)
     calc_velect  :     12.55s CPU     15.46s WALL (       6 calls)
     dielectric   :      0.26s CPU      0.29s WALL (       6 calls)
     calc_felect  :      0.04s CPU      0.04s WALL (       1 calls)
 
     PWSCF        :     21.72s CPU     25.94s WALL

 
   This run was terminated on:  15: 7:38  24Apr2019            

=------------------------------------------------------------------------------=
   JOB DONE.
=------------------------------------------------------------------------------=

%%%% IONS %%%%%%%%%%%%%%%%%%%%%%%%%%%%%%%%%%%%%%%%%%%%%%%%%%%%%%%%%%%%%%%%%%%%%%
 number of ions             =          3
 ionic center of charge     =      0.5921875     0.5886250     0.5750000
 total ionic charge         =     -8.0000000
 ionic dipole               =      0.0000000     0.0000000     0.0000000
 ionic quadrupole (pc)      =     -4.2453875    -2.0049500     0.0000000
 ionic quadrupole (gauss)   =     -5.2453875    -3.0049500    -1.0000000
 ion   1 type =  2 coordinates =     11.7900000    12.0500000    11.5000000
 ion   2 type =  1 coordinates =     13.4500000    11.2200000    11.5000000
 ion   3 type =  1 coordinates =     10.5600000    10.6600000    11.5000000

%%%% SYSTEM %%%%%%%%%%%%%%%%%%%%%%%%%%%%%%%%%%%%%%%%%%%%%%%%%%%%%%%%%%%%%%%%%%%%
 system is built from all present ionic types
 system defined dimension   =  0 
 system defined axis        =  3 
 system center              =      0.5921875     0.5886250     0.5750000 
 system width               =      0.0849363 

%%%% ELECTRONS %%%%%%%%%%%%%%%%%%%%%%%%%%%%%%%%%%%%%%%%%%%%%%%%%%%%%%%%%%%%%%%%%
 number of electrons        =          8
 total electronic charge    =      8.0000000

%%%% BOUNDARY %%%%%%%%%%%%%%%%%%%%%%%%%%%%%%%%%%%%%%%%%%%%%%%%%%%%%%%%%%%%%%%%%%
 boundary label             = solvent              
 boundary mode              = electronic           
 boundary is built as a function of a smooth density
 function type              =  2 
 using the modified SCCS function with parameters 
 rhomax                     =      0.0050000 
 rhomin                     =      0.0001000 
 volume of the QM region    =    925.9497833 
 surface of the QM region   =    444.2662167 

%%%% DIELECTRIC %%%%%%%%%%%%%%%%%%%%%%%%%%%%%%%%%%%%%%%%%%%%%%%%%%%%%%%%%%%%%%%%%
 dielectric build on homogeneous background
 environment bulk permitt.  =    100.0000000 
 dielectric flags
 need gradient              =  F 
 need factor depend. sqrt   =  T 
 total dielectric charge    =      0.0000000

%%%% DENSITY %%%%%%%%%%%%%%%%%%%%%%%%%%%%%%%%%%%%%%%%%%%%%%%%%%%%%%%%%%%%%%%%%%%
 density label              = vreference                                                                      
 integral of density        =      0.000000000    

%%%% DENSITY %%%%%%%%%%%%%%%%%%%%%%%%%%%%%%%%%%%%%%%%%%%%%%%%%%%%%%%%%%%%%%%%%%%
 density label              = velectrostatic                                                                  
 integral of density        =      0.000000000    

%%%% CHARGES %%%%%%%%%%%%%%%%%%%%%%%%%%%%%%%%%%%%%%%%%%%%%%%%%%%%%%%%%%%%%%%%%%%
 total number of charges    =         11
 total charge               =     -0.0000000

%%%% DENSITY %%%%%%%%%%%%%%%%%%%%%%%%%%%%%%%%%%%%%%%%%%%%%%%%%%%%%%%%%%%%%%%%%%%
 density label              = vsoftcavity                                                                     
 integral of density        =      0.000000000    

%%%% ELECTRONS %%%%%%%%%%%%%%%%%%%%%%%%%%%%%%%%%%%%%%%%%%%%%%%%%%%%%%%%%%%%%%%%%
 number of electrons        =          8
 total electronic charge    =      8.0000000

%%%% BOUNDARY %%%%%%%%%%%%%%%%%%%%%%%%%%%%%%%%%%%%%%%%%%%%%%%%%%%%%%%%%%%%%%%%%%
 boundary label             = solvent              
 boundary mode              = electronic           
 boundary is built as a function of a smooth density
 function type              =  2 
 using the modified SCCS function with parameters 
 rhomax                     =      0.0050000 
 rhomin                     =      0.0001000 
 volume of the QM region    =    306.9268093 
 surface of the QM region   =    219.1546442 

%%%% DIELECTRIC %%%%%%%%%%%%%%%%%%%%%%%%%%%%%%%%%%%%%%%%%%%%%%%%%%%%%%%%%%%%%%%%%
 dielectric build on homogeneous background
 environment bulk permitt.  =    100.0000000 
 dielectric flags
 need gradient              =  F 
 need factor depend. sqrt   =  T 
 total dielectric charge    =      0.0000000

%%%% DENSITY %%%%%%%%%%%%%%%%%%%%%%%%%%%%%%%%%%%%%%%%%%%%%%%%%%%%%%%%%%%%%%%%%%%
 density label              = vreference                                                                      
 integral of density        =     0.7973868479E-13

%%%% COMPUTE ELECTROSTATIC POTENTIAL %%%%%%%%%%%%%%%%%%%%%%%%%%%%%%%%%%%%%%%%%%%
 Iteration #          1
  pAp =    26.7239994710218       rzold =    26.1621899959714       alpha = 
  0.978977342981180     
 delta_qm =   0.832725E-02 delta_en =   0.119825E+03 tol =   0.100000E-04
 Iteration #          2
  pAp =    27.1502863833822       rzold =    3.36932345759214       alpha = 
  0.124099002493557     
 delta_qm =   0.280726E-02 delta_en =   0.136178E+02 tol =   0.100000E-04
 Iteration #          3
  pAp =    1.74064931537422       rzold =   0.235038371885371       alpha = 
  0.135029135282680     
 delta_qm =   0.913421E-03 delta_en =   0.144174E+01 tol =   0.100000E-04
 Iteration #          4
  pAp =   0.196743624525538       rzold =   3.226364118362997E-002  alpha = 
  0.163988242370934     
 delta_qm =   0.864815E-03 delta_en =   0.129238E+01 tol =   0.100000E-04
 Iteration #          5
  pAp =   7.116315394586605E-002  rzold =   1.248359241949117E-002  alpha = 
  0.175422135294727     
 delta_qm =   0.542905E-03 delta_en =   0.509321E+00 tol =   0.100000E-04
 Iteration #          6
  pAp =   4.061657933748375E-002  rzold =   7.293184514698548E-003  alpha = 
  0.179561761075431     
 delta_qm =   0.558739E-03 delta_en =   0.539464E+00 tol =   0.100000E-04
 Iteration #          7
  pAp =   2.653364191540840E-002  rzold =   4.756167203987266E-003  alpha = 
  0.179250448134875     
 delta_qm =   0.352499E-03 delta_en =   0.214713E+00 tol =   0.100000E-04
 Iteration #          8
  pAp =   1.734275911130884E-002  rzold =   3.128490105138182E-003  alpha = 
  0.180391717664934     
 delta_qm =   0.370681E-03 delta_en =   0.237434E+00 tol =   0.100000E-04
 Iteration #          9
  pAp =   1.164381436711970E-002  rzold =   2.090642500762683E-003  alpha = 
  0.179549624791883     
 delta_qm =   0.230137E-03 delta_en =   0.915201E-01 tol =   0.100000E-04
 Iteration #         10
  pAp =   7.676442527619027E-003  rzold =   1.386233704445860E-003  alpha = 
  0.180582828498792     
 delta_qm =   0.250031E-03 delta_en =   0.108027E+00 tol =   0.100000E-04
 Iteration #         11
  pAp =   5.179805943454813E-003  rzold =   9.308401306948952E-004  alpha = 
  0.179705599178112     
 delta_qm =   0.152817E-03 delta_en =   0.403540E-01 tol =   0.100000E-04
 Iteration #         12
  pAp =   3.428468503832185E-003  rzold =   6.196191652869605E-004  alpha = 
  0.180727681935645     
 delta_qm =   0.171995E-03 delta_en =   0.511185E-01 tol =   0.100000E-04
 Iteration #         13
  pAp =   2.321759585521989E-003  rzold =   4.175565354754341E-004  alpha = 
  0.179844863386903     
 delta_qm =   0.103701E-03 delta_en =   0.185828E-01 tol =   0.100000E-04
 Iteration #         14
  pAp =   1.542053939328028E-003  rzold =   2.789111315533768E-004  alpha = 
  0.180869893354649     
 delta_qm =   0.120750E-03 delta_en =   0.251952E-01 tol =   0.100000E-04
 Iteration #         15
  pAp =   1.047904898297205E-003  rzold =   1.886142380581683E-004  alpha = 
  0.179991751507849     
 delta_qm =   0.722297E-04 delta_en =   0.901520E-02 tol =   0.100000E-04
 Iteration #         16
  pAp =   6.984827907142077E-004  rzold =   1.264458211061452E-004  alpha = 
  0.181029257681285     
 delta_qm =   0.865350E-04 delta_en =   0.129398E-01 tol =   0.100000E-04
 Iteration #         17
  pAp =   4.764751646379150E-004  rzold =   8.584417340395534E-005  alpha = 
  0.180165053238799     
 delta_qm =   0.518392E-04 delta_en =   0.464367E-02 tol =   0.100000E-04
 Iteration #         18
  pAp =   3.189197696832469E-004  rzold =   5.779635142930650E-005  alpha = 
  0.181225364256064     
 delta_qm =   0.632893E-04 delta_en =   0.692156E-02 tol =   0.100000E-04
 Iteration #         19
  pAp =   2.185695888380605E-004  rzold =   3.942674652010509E-005  alpha = 
  0.180385325926182     
 delta_qm =   0.384026E-04 delta_en =   0.254838E-02 tol =   0.100000E-04
 Iteration #         20
  pAp =   1.470646236915596E-004  rzold =   2.668934729882399E-005  alpha = 
  0.181480403844774     
 delta_qm =   0.472000E-04 delta_en =   0.384971E-02 tol =   0.100000E-04
 Iteration #         21
  pAp =   1.013982588066862E-004  rzold =   1.832021999712903E-005  alpha = 
  0.180675883518436     
 delta_qm =   0.293136E-04 delta_en =   0.148485E-02 tol =   0.100000E-04
 Iteration #         22
  pAp =   6.869691511126585E-005  rzold =   1.249040360064795E-005  alpha = 
  0.181818988238667     
 delta_qm =   0.358411E-04 delta_en =   0.221977E-02 tol =   0.100000E-04
 Iteration #         23
  pAp =   4.774370578282373E-005  rzold =   8.644544287907119E-006  alpha = 
  0.181061443517379     
 delta_qm =   0.229433E-04 delta_en =   0.909614E-03 tol =   0.100000E-04
 Iteration #         24
  pAp =   3.264199003516888E-005  rzold =   5.949504747844453E-006  alpha = 
  0.182265380922989     
 delta_qm =   0.276537E-04 delta_en =   0.132145E-02 tol =   0.100000E-04
 Iteration #         25
  pAp =   2.292466182781174E-005  rzold =   4.162287308294107E-006  alpha = 
  0.181563738630356     
 delta_qm =   0.182945E-04 delta_en =   0.578342E-03 tol =   0.100000E-04
 Iteration #         26
  pAp =   1.586011228479491E-005  rzold =   2.899818690564913E-006  alpha = 
  0.182837210638475     
 delta_qm =   0.216277E-04 delta_en =   0.808282E-03 tol =   0.100000E-04
 Iteration #         27
  pAp =   1.128888603743641E-005  rzold =   2.056761458013265E-006  alpha = 
  0.182193482261456     
 delta_qm =   0.147686E-04 delta_en =   0.376899E-03 tol =   0.100000E-04
 Iteration #         28
  pAp =   7.926779632875463E-006  rzold =   1.454848565546603E-006  alpha = 
  0.183535891361578     
 delta_qm =   0.171025E-04 delta_en =   0.505430E-03 tol =   0.100000E-04
 Iteration #         29
  pAp =   5.735170272907380E-006  rzold =   1.049193754692247E-006  alpha = 
  0.182940297282642     
 delta_qm =   0.120096E-04 delta_en =   0.249229E-03 tol =   0.100000E-04
 Iteration #         30
  pAp =   4.098533404841500E-006  rzold =   7.555123470814034E-007  alpha = 
  0.184337242729054     
 delta_qm =   0.136415E-04 delta_en =   0.321564E-03 tol =   0.100000E-04
 Iteration #         31
  pAp =   3.021506031219881E-006  rzold =   5.552502550175057E-007  alpha = 
  0.183766058806553     
 delta_qm =   0.980256E-05 delta_en =   0.166044E-03 tol =   0.100000E-04
 Iteration #         32
  pAp =   2.201642145256252E-006  rzold =   4.077207476920606E-007  alpha = 
  0.185189381739695     
 delta_qm =   0.109521E-04 delta_en =   0.207272E-03 tol =   0.100000E-04
 Iteration #         33
  pAp =   1.655772804668941E-006  rzold =   3.056705266728196E-007  alpha = 
  0.184608978847153     
 delta_qm =   0.801320E-05 delta_en =   0.110957E-03 tol =   0.100000E-04
 Iteration #         34
  pAp =   1.230660555607476E-006  rzold =   2.289320504132576E-007  alpha = 
  0.186023716588733     
 delta_qm =   0.883493E-05 delta_en =   0.134881E-03 tol =   0.100000E-04
 Iteration #         35
  pAp =   9.437740632766286E-007  rzold =   1.749762137784965E-007  alpha = 
  0.185400532380608     
 delta_qm =   0.655224E-05 delta_en =   0.741863E-04 tol =   0.100000E-04
 Iteration #         36
  pAp =   7.146491588871724E-007  rzold =   1.334792590790765E-007  alpha = 
  0.186775926927453     
 delta_qm =   0.715111E-05 delta_en =   0.883671E-04 tol =   0.100000E-04
 Iteration #         37
  pAp =   5.577788327659170E-007  rzold =   1.037952832700548E-007  alpha = 
  0.186086809274124     
 delta_qm =   0.535602E-05 delta_en =   0.495710E-04 tol =   0.100000E-04
 Iteration #         38
  pAp =   4.292366787826586E-007  rzold =   8.044095817406326E-008  alpha = 
  0.187404670081314     
 delta_qm =   0.580175E-05 delta_en =   0.581649E-04 tol =   0.100000E-04
 Iteration #         39
  pAp =   3.399771413580055E-007  rzold =   6.345381831823963E-008  alpha = 
  0.186641425552258     
 delta_qm =   0.437607E-05 delta_en =   0.330911E-04 tol =   0.100000E-04
 Iteration #         40
  pAp =   2.650624355612280E-007  rzold =   4.980459582691560E-008  alpha = 
  0.187897601263122     
 delta_qm =   0.471451E-05 delta_en =   0.384075E-04 tol =   0.100000E-04
 Iteration #         41
  pAp =   2.123755662879832E-007  rzold =   3.972796505184941E-008  alpha = 
  0.187064669190701     
 delta_qm =   0.357374E-05 delta_en =   0.220693E-04 tol =   0.100000E-04
 Iteration #         42
  pAp =   1.672337676479253E-007  rzold =   3.148427332048330E-008  alpha = 
  0.188265048161605     
 delta_qm =   0.383515E-05 delta_en =   0.254161E-04 tol =   0.100000E-04
 Iteration #         43
  pAp =   1.351478119463592E-007  rzold =   2.532316797765874E-008  alpha = 
  0.187373865791550     
 delta_qm =   0.291742E-05 delta_en =   0.147076E-04 tol =   0.100000E-04
 Iteration #         44
  pAp =   1.071973701648632E-007  rzold =   2.020980883805463E-008  alpha = 
  0.188528961176689     
 delta_qm =   0.312211E-05 delta_en =   0.168438E-04 tol =   0.100000E-04
 Iteration #         45
  pAp =   8.716584608601780E-008  rzold =   1.635168739559424E-008  alpha = 
  0.187592825972892     
 delta_qm =   0.238099E-05 delta_en =   0.979622E-05 tol =   0.100000E-04
 Charges are converged, EXIT

%%%% DENSITY %%%%%%%%%%%%%%%%%%%%%%%%%%%%%%%%%%%%%%%%%%%%%%%%%%%%%%%%%%%%%%%%%%%
 density label              = velectrostatic                                                                  
 integral of density        =     0.4683660867E-12

%%%% CHARGES %%%%%%%%%%%%%%%%%%%%%%%%%%%%%%%%%%%%%%%%%%%%%%%%%%%%%%%%%%%%%%%%%%%
 total number of charges    =         11
 total charge               =      0.0000000

%%%% DENSITY %%%%%%%%%%%%%%%%%%%%%%%%%%%%%%%%%%%%%%%%%%%%%%%%%%%%%%%%%%%%%%%%%%%
 density label              = vsoftcavity                                                                     
 integral of density        =      15.38476496    

%%%% ELECTRONS %%%%%%%%%%%%%%%%%%%%%%%%%%%%%%%%%%%%%%%%%%%%%%%%%%%%%%%%%%%%%%%%%
 number of electrons        =          8
 total electronic charge    =      8.0000000

%%%% BOUNDARY %%%%%%%%%%%%%%%%%%%%%%%%%%%%%%%%%%%%%%%%%%%%%%%%%%%%%%%%%%%%%%%%%%
 boundary label             = solvent              
 boundary mode              = electronic           
 boundary is built as a function of a smooth density
 function type              =  2 
 using the modified SCCS function with parameters 
 rhomax                     =      0.0050000 
 rhomin                     =      0.0001000 
 volume of the QM region    =    332.8686357 
 surface of the QM region   =    231.8881516 

%%%% DIELECTRIC %%%%%%%%%%%%%%%%%%%%%%%%%%%%%%%%%%%%%%%%%%%%%%%%%%%%%%%%%%%%%%%%%
 dielectric build on homogeneous background
 environment bulk permitt.  =    100.0000000 
 dielectric flags
 need gradient              =  F 
 need factor depend. sqrt   =  T 
 total dielectric charge    =      0.0000102

%%%% DENSITY %%%%%%%%%%%%%%%%%%%%%%%%%%%%%%%%%%%%%%%%%%%%%%%%%%%%%%%%%%%%%%%%%%%
 density label              = vreference                                                                      
 integral of density        =    -0.1072393203E-12

%%%% COMPUTE ELECTROSTATIC POTENTIAL %%%%%%%%%%%%%%%%%%%%%%%%%%%%%%%%%%%%%%%%%%%
 Warning: bad guess with residual norm =   0.184633E+03, reset to no guess
 Iteration #          1
  pAp =    28.9427072686272       rzold =    28.5285187096548       alpha = 
  0.985689363640792     
 delta_qm =   0.102052E-01 delta_en =   0.179965E+03 tol =   0.100000E-04
 Iteration #          2
  pAp =    20.0778991354204       rzold =    2.50858123828460       alpha = 
  0.124942416602695     
 delta_qm =   0.321155E-02 delta_en =   0.178227E+02 tol =   0.100000E-04
 Iteration #          3
  pAp =    1.22084809853451       rzold =   0.165012574372534       alpha = 
  0.135162248743814     
 delta_qm =   0.835964E-03 delta_en =   0.120759E+01 tol =   0.100000E-04
 Iteration #          4
  pAp =   0.134499943940400       rzold =   2.174106642366200E-002  alpha = 
  0.161643683905891     
 delta_qm =   0.994174E-03 delta_en =   0.170793E+01 tol =   0.100000E-04
 Iteration #          5
  pAp =   4.290849483547901E-002  rzold =   7.425547286552254E-003  alpha = 
  0.173055412804003     
 delta_qm =   0.472600E-03 delta_en =   0.385949E+00 tol =   0.100000E-04
 Iteration #          6
  pAp =   2.192124498568658E-002  rzold =   4.004195577460595E-003  alpha = 
  0.182662781246007     
 delta_qm =   0.643122E-03 delta_en =   0.714711E+00 tol =   0.100000E-04
 Iteration #          7
  pAp =   1.474709919371404E-002  rzold =   2.628686999456540E-003  alpha = 
  0.178251123487188     
 delta_qm =   0.308299E-03 delta_en =   0.164244E+00 tol =   0.100000E-04
 Iteration #          8
  pAp =   9.094175832769209E-003  rzold =   1.671300141795275E-003  alpha = 
  0.183776976883716     
 delta_qm =   0.436214E-03 delta_en =   0.328808E+00 tol =   0.100000E-04
 Iteration #          9
  pAp =   6.347486027592328E-003  rzold =   1.134175855768843E-003  alpha = 
  0.178681111047526     
 delta_qm =   0.209667E-03 delta_en =   0.759636E-01 tol =   0.100000E-04
 Iteration #         10
  pAp =   3.961809863997828E-003  rzold =   7.294267705750801E-004  alpha = 
  0.184114532401871     
 delta_qm =   0.306824E-03 delta_en =   0.162676E+00 tol =   0.100000E-04
 Iteration #         11
  pAp =   2.788753174382596E-003  rzold =   4.991048878152189E-004  alpha = 
  0.178970621136349     
 delta_qm =   0.152829E-03 delta_en =   0.403605E-01 tol =   0.100000E-04
 Iteration #         12
  pAp =   1.753350159281925E-003  rzold =   3.233433220616528E-004  alpha = 
  0.184414573637748     
 delta_qm =   0.223572E-03 delta_en =   0.863732E-01 tol =   0.100000E-04
 Iteration #         13
  pAp =   1.243149394135907E-003  rzold =   2.228457928201575E-004  alpha = 
  0.179259060794583     
 delta_qm =   0.118277E-03 delta_en =   0.241736E-01 tol =   0.100000E-04
 Iteration #         14
  pAp =   7.871646556246829E-004  rzold =   1.454177617626653E-004  alpha = 
  0.184736142208092     
 delta_qm =   0.167843E-03 delta_en =   0.486800E-01 tol =   0.100000E-04
 Iteration #         15
  pAp =   5.623717014464135E-004  rzold =   1.009942900998086E-004  alpha = 
  0.179586365814732     
 delta_qm =   0.952419E-04 delta_en =   0.156747E-01 tol =   0.100000E-04
 Iteration #         16
  pAp =   3.589308991581907E-004  rzold =   6.644463248421344E-005  alpha = 
  0.185118173553872     
 delta_qm =   0.129030E-03 delta_en =   0.287690E-01 tol =   0.100000E-04
 Iteration #         17
  pAp =   2.587269343018460E-004  rzold =   4.656794621461040E-005  alpha = 
  0.179988783696874     
 delta_qm =   0.783787E-04 delta_en =   0.106155E-01 tol =   0.100000E-04
 Iteration #         18
  pAp =   1.667319110578712E-004  rzold =   3.094524457382376E-005  alpha = 
  0.185598811754055     
 delta_qm =   0.101016E-03 delta_en =   0.176328E-01 tol =   0.100000E-04
 Iteration #         19
  pAp =   1.215289921446472E-004  rzold =   2.193610418448077E-005  alpha = 
  0.180500996489560     
 delta_qm =   0.651456E-04 delta_en =   0.733354E-02 tol =   0.100000E-04
 Iteration #         20
  pAp =   7.927825294954486E-005  rzold =   1.476252963201225E-005  alpha = 
  0.186211591234327     
 delta_qm =   0.801752E-04 delta_en =   0.111077E-01 tol =   0.100000E-04
 Iteration #         21
  pAp =   5.860599109671530E-005  rzold =   1.061640984046540E-005  alpha = 
  0.181148883276209     
 delta_qm =   0.543232E-04 delta_en =   0.509934E-02 tol =   0.100000E-04
 Iteration #         22
  pAp =   3.882319342772192E-005  rzold =   7.258949594794450E-006  alpha = 
  0.186974562211339     
 delta_qm =   0.642851E-04 delta_en =   0.714109E-02 tol =   0.100000E-04
 Iteration #         23
  pAp =   2.920690997916156E-005  rzold =   5.313815047887475E-006  alpha = 
  0.181936913274248     
 delta_qm =   0.452881E-04 delta_en =   0.354414E-02 tol =   0.100000E-04
 Iteration #         24
  pAp =   1.971231033106750E-005  rzold =   3.703465836428613E-006  alpha = 
  0.187875787983704     
 delta_qm =   0.519291E-04 delta_en =   0.465978E-02 tol =   0.100000E-04
 Iteration #         25
  pAp =   1.513916175418267E-005  rzold =   2.767976806808274E-006  alpha = 
  0.182835539493693     
 delta_qm =   0.376843E-04 delta_en =   0.245395E-02 tol =   0.100000E-04
 Iteration #         26
  pAp =   1.043718951603723E-005  rzold =   1.971209687884354E-006  alpha = 
  0.188864031342489     
 delta_qm =   0.421722E-04 delta_en =   0.307324E-02 tol =   0.100000E-04
 Iteration #         27
  pAp =   8.199245760988614E-006  rzold =   1.506851779456178E-006  alpha = 
  0.183779316217799     
 delta_qm =   0.312786E-04 delta_en =   0.169059E-02 tol =   0.100000E-04
 Iteration #         28
  pAp =   5.780201440381986E-006  rzold =   1.097408363052010E-006  alpha = 
  0.189856421851535     
 delta_qm =   0.343763E-04 delta_en =   0.204203E-02 tol =   0.100000E-04
 Iteration #         29
  pAp =   4.645084248538920E-006  rzold =   8.578727629234081E-007  alpha = 
  0.184684005073373     
 delta_qm =   0.258961E-04 delta_en =   0.115881E-02 tol =   0.100000E-04
 Iteration #         30
  pAp =   3.345373738711087E-006  rzold =   6.381809879232839E-007  alpha = 
  0.190765229169630     
 delta_qm =   0.280927E-04 delta_en =   0.136373E-02 tol =   0.100000E-04
 Iteration #         31
  pAp =   2.744859833514697E-006  rzold =   5.091058870617667E-007  alpha = 
  0.185476096391368     
 delta_qm =   0.213925E-04 delta_en =   0.790797E-03 tol =   0.100000E-04
 Iteration #         32
  pAp =   2.014165180682568E-006  rzold =   3.857694433550474E-007  alpha = 
  0.191528205856640     
 delta_qm =   0.229964E-04 delta_en =   0.913828E-03 tol =   0.100000E-04
 Iteration #         33
  pAp =   1.681682562932583E-006  rzold =   3.129870296984832E-007  alpha = 
  0.186115404058590     
 delta_qm =   0.176409E-04 delta_en =   0.537754E-03 tol =   0.100000E-04
 Iteration #         34
  pAp =   1.252777099937742E-006  rzold =   2.406869442119445E-007  alpha = 
  0.192122720174168     
 delta_qm =   0.188456E-04 delta_en =   0.613709E-03 tol =   0.100000E-04
 Iteration #         35
  pAp =   1.060283003270921E-006  rzold =   1.978467158454064E-007  alpha = 
  0.186598026409043     
 delta_qm =   0.145282E-04 delta_en =   0.364724E-03 tol =   0.100000E-04
 Iteration #         36
  pAp =   7.989112829061555E-007  rzold =   1.538379388368952E-007  alpha = 
  0.192559477038911     
 delta_qm =   0.154552E-04 delta_en =   0.412754E-03 tol =   0.100000E-04
 Iteration #         37
  pAp =   6.829341604664363E-007  rzold =   1.276706486965709E-007  alpha = 
  0.186944300178766     
 delta_qm =   0.119537E-04 delta_en =   0.246916E-03 tol =   0.100000E-04
 Iteration #         38
  pAp =   5.188047678982470E-007  rzold =   1.000601904082078E-007  alpha = 
  0.192866751810254     
 delta_qm =   0.126808E-04 delta_en =   0.277866E-03 tol =   0.100000E-04
 Iteration #         39
  pAp =   4.466128119595301E-007  rzold =   8.359874119677186E-008  alpha = 
  0.187183929699597     
 delta_qm =   0.982944E-05 delta_en =   0.166956E-03 tol =   0.100000E-04
 Iteration #         40
  pAp =   3.412016138601468E-007  rzold =   6.587804675154013E-008  alpha = 
  0.193076597751799     
 delta_qm =   0.104078E-04 delta_en =   0.187180E-03 tol =   0.100000E-04
 Iteration #         41
  pAp =   2.951334071335243E-007  rzold =   5.529201470122002E-008  alpha = 
  0.187345835357110     
 delta_qm =   0.807951E-05 delta_en =   0.112801E-03 tol =   0.100000E-04
 Iteration #         42
  pAp =   2.263373339866087E-007  rzold =   4.373227193275033E-008  alpha = 
  0.193217226528513     
 delta_qm =   0.854409E-05 delta_en =   0.126147E-03 tol =   0.100000E-04
 Iteration #         43
  pAp =   1.964069400347937E-007  rzold =   3.681720126837171E-008  alpha = 
  0.187453667685315     
 delta_qm =   0.663953E-05 delta_en =   0.761760E-04 tol =   0.100000E-04
 Iteration #         44
  pAp =   1.510074237772038E-007  rzold =   2.919131983739629E-008  alpha = 
  0.193310494989075     
 delta_qm =   0.701525E-05 delta_en =   0.850413E-04 tol =   0.100000E-04
 Iteration #         45
  pAp =   1.313174600611230E-007  rzold =   2.462530660892649E-008  alpha = 
  0.187524999321982     
 delta_qm =   0.545545E-05 delta_en =   0.514285E-04 tol =   0.100000E-04
 Iteration #         46
  pAp =   1.011331411299322E-007  rzold =   1.955633121142652E-008  alpha = 
  0.193372132942071     
 delta_qm =   0.576066E-05 delta_en =   0.573440E-04 tol =   0.100000E-04
 Iteration #         47
  pAp =   8.806990073865136E-008  rzold =   1.651946161641019E-008  alpha = 
  0.187572161179469     
 delta_qm =   0.448222E-05 delta_en =   0.347161E-04 tol =   0.100000E-04
 Iteration #         48
  pAp =   6.790166317962372E-008  rzold =   1.313306194611898E-008  alpha = 
  0.193412964147541     
 delta_qm =   0.473088E-05 delta_en =   0.386747E-04 tol =   0.100000E-04
 Iteration #         49
  pAp =   5.918585670889421E-008  rzold =   1.110347424534972E-008  alpha = 
  0.187603506357307     
 delta_qm =   0.368253E-05 delta_en =   0.234335E-04 tol =   0.100000E-04
 Iteration #         50
  pAp =   4.566575936114230E-008  rzold =   8.833595076185599E-009  alpha = 
  0.193440231800946     
 delta_qm =   0.388549E-05 delta_en =   0.260876E-04 tol =   0.100000E-04
 Iteration #         51
  pAp =   3.982880362561393E-008  rzold =   7.472862162166788E-009  alpha = 
  0.187624570208305     
 delta_qm =   0.302552E-05 delta_en =   0.158177E-04 tol =   0.100000E-04
 Iteration #         52
  pAp =   3.074571108134464E-008  rzold =   5.948025273066634E-009  alpha = 
  0.193458699241979     
 delta_qm =   0.319138E-05 delta_en =   0.175995E-04 tol =   0.100000E-04
 Iteration #         53
  pAp =   2.682705219095923E-008  rzold =   5.033800461161259E-009  alpha = 
  0.187638970742289     
 delta_qm =   0.248579E-05 delta_en =   0.106775E-04 tol =   0.100000E-04
 Iteration #         54
  pAp =   2.071603066988214E-008  rzold =   4.007960805940542E-009  alpha = 
  0.193471465157053     
 delta_qm =   0.262142E-05 delta_en =   0.118746E-04 tol =   0.100000E-04
 Iteration #         55
  pAp =   1.808091104033392E-008  rzold =   3.392865829501859E-009  alpha = 
  0.187649052745917     
 delta_qm =   0.204240E-05 delta_en =   0.720816E-05 tol =   0.100000E-04
 Charges are converged, EXIT

%%%% DENSITY %%%%%%%%%%%%%%%%%%%%%%%%%%%%%%%%%%%%%%%%%%%%%%%%%%%%%%%%%%%%%%%%%%%
 density label              = velectrostatic                                                                  
 integral of density        =    -0.3757323670E-12

%%%% CHARGES %%%%%%%%%%%%%%%%%%%%%%%%%%%%%%%%%%%%%%%%%%%%%%%%%%%%%%%%%%%%%%%%%%%
 total number of charges    =         11
 total charge               =      0.0000000

%%%% DENSITY %%%%%%%%%%%%%%%%%%%%%%%%%%%%%%%%%%%%%%%%%%%%%%%%%%%%%%%%%%%%%%%%%%%
 density label              = vsoftcavity                                                                     
 integral of density        =      11.37961530    

%%%% ELECTRONS %%%%%%%%%%%%%%%%%%%%%%%%%%%%%%%%%%%%%%%%%%%%%%%%%%%%%%%%%%%%%%%%%
 number of electrons        =          8
 total electronic charge    =      8.0000000

%%%% BOUNDARY %%%%%%%%%%%%%%%%%%%%%%%%%%%%%%%%%%%%%%%%%%%%%%%%%%%%%%%%%%%%%%%%%%
 boundary label             = solvent              
 boundary mode              = electronic           
 boundary is built as a function of a smooth density
 function type              =  2 
 using the modified SCCS function with parameters 
 rhomax                     =      0.0050000 
 rhomin                     =      0.0001000 
 volume of the QM region    =    295.4307023 
 surface of the QM region   =    214.3068526 

%%%% DIELECTRIC %%%%%%%%%%%%%%%%%%%%%%%%%%%%%%%%%%%%%%%%%%%%%%%%%%%%%%%%%%%%%%%%%
 dielectric build on homogeneous background
 environment bulk permitt.  =    100.0000000 
 dielectric flags
 need gradient              =  F 
 need factor depend. sqrt   =  T 
 total dielectric charge    =      0.0000837

%%%% DENSITY %%%%%%%%%%%%%%%%%%%%%%%%%%%%%%%%%%%%%%%%%%%%%%%%%%%%%%%%%%%%%%%%%%%
 density label              = vreference                                                                      
 integral of density        =     0.1250028887E-14

%%%% COMPUTE ELECTROSTATIC POTENTIAL %%%%%%%%%%%%%%%%%%%%%%%%%%%%%%%%%%%%%%%%%%%
 Warning: bad guess with residual norm =   0.200801E+03, reset to no guess
 Iteration #          1
  pAp =    28.8382713667745       rzold =    28.4041393805692       alpha = 
  0.984945977493456     
 delta_qm =   0.106346E-01 delta_en =   0.195429E+03 tol =   0.100000E-04
 Iteration #          2
  pAp =    19.7052875989590       rzold =    2.55651330071677       alpha = 
  0.129737426458664     
 delta_qm =   0.259414E-02 delta_en =   0.116287E+02 tol =   0.100000E-04
 Iteration #          3
  pAp =    1.59223977771458       rzold =   0.177251242598945       alpha = 
  0.111321953564910     
 delta_qm =   0.924833E-03 delta_en =   0.147799E+01 tol =   0.100000E-04
 Iteration #          4
  pAp =   0.131107693859547       rzold =   2.222925178575977E-002  alpha = 
  0.169549559841801     
 delta_qm =   0.883642E-03 delta_en =   0.134926E+01 tol =   0.100000E-04
 Iteration #          5
  pAp =   6.742872583355762E-002  rzold =   9.352045158634574E-003  alpha = 
  0.138695267380839     
 delta_qm =   0.483436E-03 delta_en =   0.403852E+00 tol =   0.100000E-04
 Iteration #          6
  pAp =   2.134467479887677E-002  rzold =   4.122306162632042E-003  alpha = 
  0.193130427213113     
 delta_qm =   0.593714E-03 delta_en =   0.609113E+00 tol =   0.100000E-04
 Iteration #          7
  pAp =   2.625185214866909E-002  rzold =   3.721825637077803E-003  alpha = 
  0.141773830509193     
 delta_qm =   0.320972E-03 delta_en =   0.178024E+00 tol =   0.100000E-04
 Iteration #          8
  pAp =   9.515455713351167E-003  rzold =   1.846665816992100E-003  alpha = 
  0.194070139426012     
 delta_qm =   0.408052E-03 delta_en =   0.287723E+00 tol =   0.100000E-04
 Iteration #          9
  pAp =   1.211815162553238E-002  rzold =   1.720713617079286E-003  alpha = 
  0.141994725784238     
 delta_qm =   0.217044E-03 delta_en =   0.814029E-01 tol =   0.100000E-04
 Iteration #         10
  pAp =   4.425878251103701E-003  rzold =   8.603412197405386E-004  alpha = 
  0.194388813005869     
 delta_qm =   0.288867E-03 delta_en =   0.144192E+00 tol =   0.100000E-04
 Iteration #         11
  pAp =   5.678726891325830E-003  rzold =   8.072429426271057E-004  alpha = 
  0.142152098185978     
 delta_qm =   0.154826E-03 delta_en =   0.414220E-01 tol =   0.100000E-04
 Iteration #         12
  pAp =   2.084454905506006E-003  rzold =   4.058022438108880E-004  alpha = 
  0.194680270001993     
 delta_qm =   0.211245E-03 delta_en =   0.771112E-01 tol =   0.100000E-04
 Iteration #         13
  pAp =   2.692037285643931E-003  rzold =   3.831101002217768E-004  alpha = 
  0.142312330614744     
 delta_qm =   0.116959E-03 delta_en =   0.236378E-01 tol =   0.100000E-04
 Iteration #         14
  pAp =   9.930967387592115E-004  rzold =   1.936526095992053E-004  alpha = 
  0.194998736821105     
 delta_qm =   0.159261E-03 delta_en =   0.438291E-01 tol =   0.100000E-04
 Iteration #         15
  pAp =   1.291598702823254E-003  rzold =   1.840490480743920E-004  alpha = 
  0.142497083399114     
 delta_qm =   0.927371E-04 delta_en =   0.148611E-01 tol =   0.100000E-04
 Iteration #         16
  pAp =   4.791807856381687E-004  rzold =   9.362369822509906E-005  alpha = 
  0.195382830512313     
 delta_qm =   0.123321E-03 delta_en =   0.262795E-01 tol =   0.100000E-04
 Iteration #         17
  pAp =   6.284431950278886E-004  rzold =   8.969605621358435E-005  alpha = 
  0.142727388765191     
 delta_qm =   0.760895E-04 delta_en =   0.100045E-01 tol =   0.100000E-04
 Iteration #         18
  pAp =   2.347857158402725E-004  rzold =   4.598834837249031E-005  alpha = 
  0.195873706404595     
 delta_qm =   0.976434E-04 delta_en =   0.164751E-01 tol =   0.100000E-04
 Iteration #         19
  pAp =   3.111995752553150E-004  rzold =   4.450947793184026E-005  alpha = 
  0.143025509900917     
 delta_qm =   0.637542E-04 delta_en =   0.702363E-02 tol =   0.100000E-04
 Iteration #         20
  pAp =   1.173127653021865E-004  rzold =   2.305348362386729E-005  alpha = 
  0.196513001500593     
 delta_qm =   0.787092E-04 delta_en =   0.107052E-01 tol =   0.100000E-04
 Iteration #         21
  pAp =   1.576418812757604E-004  rzold =   2.260769346836457E-005  alpha = 
  0.143411720828282     
 delta_qm =   0.540342E-04 delta_en =   0.504523E-02 tol =   0.100000E-04
 Iteration #         22
  pAp =   6.011929557699851E-005  rzold =   1.186353240113929E-005  alpha = 
  0.197333190405482     
 delta_qm =   0.643413E-04 delta_en =   0.715358E-02 tol =   0.100000E-04
 Iteration #         23
  pAp =   8.221639838598555E-005  rzold =   1.183070919904027E-005  alpha = 
  0.143897196073927     
 delta_qm =   0.460470E-04 delta_en =   0.366392E-02 tol =   0.100000E-04
 Iteration #         24
  pAp =   3.181436809549746E-005  rzold =   6.310099450080731E-006  alpha = 
  0.198341184434016     
 delta_qm =   0.531630E-04 delta_en =   0.488385E-02 tol =   0.100000E-04
 Iteration #         25
  pAp =   4.445367283846445E-005  rzold =   6.422421825774803E-006  alpha = 
  0.144474492560211     
 delta_qm =   0.393181E-04 delta_en =   0.267134E-02 tol =   0.100000E-04
 Iteration #         26
  pAp =   1.750213991766338E-005  rzold =   3.491697170229946E-006  alpha = 
  0.199501157381680     
 delta_qm =   0.442816E-04 delta_en =   0.338836E-02 tol =   0.100000E-04
 Iteration #         27
  pAp =   2.506705688666789E-005  rzold =   3.637507555180974E-006  alpha = 
  0.145111074332608     
 delta_qm =   0.335758E-04 delta_en =   0.194803E-02 tol =   0.100000E-04
 Iteration #         28
  pAp =   1.005965245321942E-005  rzold =   2.019275675800690E-006  alpha = 
  0.200730162914769     
 delta_qm =   0.371027E-04 delta_en =   0.237879E-02 tol =   0.100000E-04
 Iteration #         29
  pAp =   1.478917431478572E-005  rzold =   2.155575035786828E-006  alpha = 
  0.145753575548282     
 delta_qm =   0.286494E-04 delta_en =   0.141832E-02 tol =   0.100000E-04
 Iteration #         30
  pAp =   6.050673208016333E-006  rzold =   1.221741571515437E-006  alpha = 
  0.201918287356321     
 delta_qm =   0.312204E-04 delta_en =   0.168431E-02 tol =   0.100000E-04
 Iteration #         31
  pAp =   9.122666599182567E-006  rzold =   1.335053665380398E-006  alpha = 
  0.146344673551922     
 delta_qm =   0.244195E-04 delta_en =   0.103043E-02 tol =   0.100000E-04
 Iteration #         32
  pAp =   3.799241193106757E-006  rzold =   7.711192972949560E-007  alpha = 
  0.202966660472637     
 delta_qm =   0.263498E-04 delta_en =   0.119977E-02 tol =   0.100000E-04
 Iteration #         33
  pAp =   5.856972829578593E-006  rzold =   8.600550562145790E-007  alpha = 
  0.146842930851783     
 delta_qm =   0.207927E-04 delta_en =   0.747078E-03 tol =   0.100000E-04
 Iteration #         34
  pAp =   2.476025322468565E-006  rzold =   5.046599451910621E-007  alpha = 
  0.203818571890825     
 delta_qm =   0.222856E-04 delta_en =   0.858206E-03 tol =   0.100000E-04
 Iteration #         35
  pAp =   3.886630201912744E-006  rzold =   5.722384562562072E-007  alpha = 
  0.147232545039811     
 delta_qm =   0.176900E-04 delta_en =   0.540753E-03 tol =   0.100000E-04
 Iteration #         36
  pAp =   1.662434242293165E-006  rzold =   3.399103141999714E-007  alpha = 
  0.204465419174173     
 delta_qm =   0.188755E-04 delta_en =   0.615658E-03 tol =   0.100000E-04
 Iteration #         37
  pAp =   2.645530593281149E-006  rzold =   3.902678969462683E-007  alpha = 
  0.147519706609113     
 delta_qm =   0.150415E-04 delta_en =   0.390954E-03 tol =   0.100000E-04
 Iteration #         38
  pAp =   1.141393146642805E-006  rzold =   2.339078708894136E-007  alpha = 
  0.204931904118585     
 delta_qm =   0.160032E-04 delta_en =   0.442543E-03 tol =   0.100000E-04
 Iteration #         39
  pAp =   1.834391741610693E-006  rzold =   2.709808061365864E-007  alpha = 
  0.147722430269257     
 delta_qm =   0.127847E-04 delta_en =   0.282441E-03 tol =   0.100000E-04
 Iteration #         40
  pAp =   7.962735220403780E-007  rzold =   1.634402054180789E-007  alpha = 
  0.205256360903824     
 delta_qm =   0.135774E-04 delta_en =   0.318550E-03 tol =   0.100000E-04
 Iteration #         41
  pAp =   1.288546605564350E-006  rzold =   1.905263812374499E-007  alpha = 
  0.147861459115795     
 delta_qm =   0.108643E-04 delta_en =   0.203962E-03 tol =   0.100000E-04
 Iteration #         42
  pAp =   5.616753884880479E-007  rzold =   1.154112900723941E-007  alpha = 
  0.205476850931755     
 delta_qm =   0.115250E-04 delta_en =   0.229525E-03 tol =   0.100000E-04
 Iteration #         43
  pAp =   9.131616798160943E-007  rzold =   1.351069855483814E-007  alpha = 
  0.147955163400627     
 delta_qm =   0.923151E-05 delta_en =   0.147261E-03 tol =   0.100000E-04
 Iteration #         44
  pAp =   3.991677702373075E-007  rzold =   8.207879048528997E-008  alpha = 
  0.205624793896796     
 delta_qm =   0.978644E-05 delta_en =   0.165498E-03 tol =   0.100000E-04
 Iteration #         45
  pAp =   6.509909197176555E-007  rzold =   9.635825385903824E-008  alpha = 
  0.148017815518579     
 delta_qm =   0.784396E-05 delta_en =   0.106320E-03 tol =   0.100000E-04
 Iteration #         46
  pAp =   2.851013724109786E-007  rzold =   5.865209510835039E-008  alpha = 
  0.205723650547014     
 delta_qm =   0.831235E-05 delta_en =   0.119397E-03 tol =   0.100000E-04
 Iteration #         47
  pAp =   4.659342489690460E-007  rzold =   6.898608469448114E-008  alpha = 
  0.148059699082272     
 delta_qm =   0.666517E-05 delta_en =   0.767655E-04 tol =   0.100000E-04
 Iteration #         48
  pAp =   2.043121247465181E-007  rzold =   4.204537700700157E-008  alpha = 
  0.205789925875254     
 delta_qm =   0.706177E-05 delta_en =   0.861730E-04 tol =   0.100000E-04
 Iteration #         49
  pAp =   3.343688980179285E-007  rzold =   4.951598541222659E-008  alpha = 
  0.148087892461731     
 delta_qm =   0.566387E-05 delta_en =   0.554332E-04 tol =   0.100000E-04
 Iteration #         50
  pAp =   1.467444277898947E-007  rzold =   3.020511204674224E-008  alpha = 
  0.205834814320781     
 delta_qm =   0.600034E-05 delta_en =   0.622150E-04 tol =   0.100000E-04
 Iteration #         51
  pAp =   2.403827346957286E-007  rzold =   3.560239736279164E-008  alpha = 
  0.148107131769910     
 delta_qm =   0.481334E-05 delta_en =   0.400348E-04 tol =   0.100000E-04
 Iteration #         52
  pAp =   1.055573079171600E-007  rzold =   2.173063307909452E-008  alpha = 
  0.205865737843072     
 delta_qm =   0.509914E-05 delta_en =   0.449302E-04 tol =   0.100000E-04
 Iteration #         53
  pAp =   1.730261100464797E-007  rzold =   2.562871923777219E-008  alpha = 
  0.148120530657989     
 delta_qm =   0.409087E-05 delta_en =   0.289185E-04 tol =   0.100000E-04
 Iteration #         54
  pAp =   7.600982499104830E-008  rzold =   1.564947653155945E-008  alpha = 
  0.205887548529450     
 delta_qm =   0.433380E-05 delta_en =   0.324550E-04 tol =   0.100000E-04
 Iteration #         55
  pAp =   1.246496711235442E-007  rzold =   1.846437001832586E-008  alpha = 
  0.148130114198418     
 delta_qm =   0.347713E-05 delta_en =   0.208923E-04 tol =   0.100000E-04
 Iteration #         56
  pAp =   5.477375608327255E-008  rzold =   1.127810215457949E-008  alpha = 
  0.205903391716160     
 delta_qm =   0.368370E-05 delta_en =   0.234483E-04 tol =   0.100000E-04
 Iteration #         57
  pAp =   8.985397361137636E-008  rzold =   1.331071527328394E-008  alpha = 
  0.148137191248253     
 delta_qm =   0.295571E-05 delta_en =   0.150961E-04 tol =   0.100000E-04
 Iteration #         58
  pAp =   3.949201797512733E-008  rzold =   8.132010605769584E-009  alpha = 
  0.205915296880784     
 delta_qm =   0.313139E-05 delta_en =   0.169441E-04 tol =   0.100000E-04
 Iteration #         59
  pAp =   6.480095338818333E-008  rzold =   9.599782050822013E-009  alpha = 
  0.148142605145260     
 delta_qm =   0.251267E-05 delta_en =   0.109097E-04 tol =   0.100000E-04
 Iteration #         60
  pAp =   2.848540910596947E-008  rzold =   5.865845651961054E-009  alpha = 
  0.205924571072135     
 delta_qm =   0.266210E-05 delta_en =   0.122459E-04 tol =   0.100000E-04
 Iteration #         61
  pAp =   4.674958822334870E-008  rzold =   6.925806522074987E-009  alpha = 
  0.148146898941368     
 delta_qm =   0.213619E-05 delta_en =   0.788541E-05 tol =   0.100000E-04
 Charges are converged, EXIT

%%%% DENSITY %%%%%%%%%%%%%%%%%%%%%%%%%%%%%%%%%%%%%%%%%%%%%%%%%%%%%%%%%%%%%%%%%%%
 density label              = velectrostatic                                                                  
 integral of density        =    -0.1542798811E-12

%%%% CHARGES %%%%%%%%%%%%%%%%%%%%%%%%%%%%%%%%%%%%%%%%%%%%%%%%%%%%%%%%%%%%%%%%%%%
 total number of charges    =         11
 total charge               =      0.0000000

%%%% DENSITY %%%%%%%%%%%%%%%%%%%%%%%%%%%%%%%%%%%%%%%%%%%%%%%%%%%%%%%%%%%%%%%%%%%
 density label              = vsoftcavity                                                                     
 integral of density        =      11.45638543    

%%%% ELECTRONS %%%%%%%%%%%%%%%%%%%%%%%%%%%%%%%%%%%%%%%%%%%%%%%%%%%%%%%%%%%%%%%%%
 number of electrons        =          8
 total electronic charge    =      8.0000000

%%%% BOUNDARY %%%%%%%%%%%%%%%%%%%%%%%%%%%%%%%%%%%%%%%%%%%%%%%%%%%%%%%%%%%%%%%%%%
 boundary label             = solvent              
 boundary mode              = electronic           
 boundary is built as a function of a smooth density
 function type              =  2 
 using the modified SCCS function with parameters 
 rhomax                     =      0.0050000 
 rhomin                     =      0.0001000 
 volume of the QM region    =    295.4307023 
 surface of the QM region   =    214.3068526 

%%%% DIELECTRIC %%%%%%%%%%%%%%%%%%%%%%%%%%%%%%%%%%%%%%%%%%%%%%%%%%%%%%%%%%%%%%%%%
 dielectric build on homogeneous background
 environment bulk permitt.  =    100.0000000 
 dielectric flags
 need gradient              =  F 
 need factor depend. sqrt   =  T 
 total dielectric charge    =      0.0000779

%%%% DENSITY %%%%%%%%%%%%%%%%%%%%%%%%%%%%%%%%%%%%%%%%%%%%%%%%%%%%%%%%%%%%%%%%%%%
 density label              = vreference                                                                      
 integral of density        =     0.1250028887E-14

%%%% DENSITY %%%%%%%%%%%%%%%%%%%%%%%%%%%%%%%%%%%%%%%%%%%%%%%%%%%%%%%%%%%%%%%%%%%
 density label              = velectrostatic                                                                  
 integral of density        =    -0.1542798811E-12

%%%% CHARGES %%%%%%%%%%%%%%%%%%%%%%%%%%%%%%%%%%%%%%%%%%%%%%%%%%%%%%%%%%%%%%%%%%%
 total number of charges    =         11
 total charge               =      0.0000000

%%%% DENSITY %%%%%%%%%%%%%%%%%%%%%%%%%%%%%%%%%%%%%%%%%%%%%%%%%%%%%%%%%%%%%%%%%%%
 density label              = vsoftcavity                                                                     
 integral of density        =      11.45638543    
