
     Program PWSCF v.6.1 (svn rev. 13369) starts on  7Nov2017 at 16:27:43 

     This program is part of the open-source Quantum ESPRESSO suite
     for quantum simulation of materials; please cite
         "P. Giannozzi et al., J. Phys.:Condens. Matter 21 395502 (2009);
          URL http://www.quantum-espresso.org", 
     in publications or presentations arising from this work. More details at
     http://www.quantum-espresso.org/quote

     Serial version
     Reading input from charged.in

     Current dimensions of program PWSCF are:
     Max number of different atomic species (ntypx) = 10
     Max number of k-points (npk) =  40000
     Max angular momentum in pseudopotentials (lmaxx) =  3
               file C.pbe-rrkjus.UPF: wavefunction(s)  2S 2P renormalized
               file H.pbe-rrkjus.UPF: wavefunction(s)  1S renormalized
               file N.pbe-rrkjus.UPF: wavefunction(s)  2S renormalized
               file O.pbe-rrkjus.UPF: wavefunction(s)  2S renormalized

     gamma-point specific algorithms are used

     G-vector sticks info
     --------------------
     sticks:   dense  smooth     PW     G-vecs:    dense   smooth      PW
     Sum        9549    3809    949               701475   177509   22119



     bravais-lattice index     =            1
     lattice parameter (alat)  =      20.0000  a.u.
     unit-cell volume          =    8000.0000 (a.u.)^3
     number of atoms/cell      =           10
     number of atomic types    =            4
     number of electrons       =        24.00
     number of Kohn-Sham states=           12
     kinetic-energy cutoff     =      30.0000  Ry
     charge density cutoff     =     300.0000  Ry
     convergence threshold     =      5.0E-03
     mixing beta               =       0.7000
     number of iterations used =            8  plain     mixing
     Exchange-correlation      =  SLA  PW   PBE  PBE ( 1  4  3  4 0 0)


     Environ Module
     ==============

     Plese cite
         O. Andreussi, I. Dabo and N. Marzari, J. Chem. Phys. 136, 064102 (2012)         
     in publications or presentations arising from this work.

     compensation onset threshold      =               0.1000E+03 
     static permittivity               =                   100.00 
     epsilon calculation mode          =                    ionic 

     Electrostatic Setup
     -------------------
     electrostatic problem to solve    = generalized              
     numerical solver adopted          = iterative                
     type of auxiliary density adopted = full                     
     type of core tool for poisson     = fft                      
     type of core tool for s(r) deriv  = analytic                 



     celldm(1)=  20.000000  celldm(2)=   0.000000  celldm(3)=   0.000000
     celldm(4)=   0.000000  celldm(5)=   0.000000  celldm(6)=   0.000000

     crystal axes: (cart. coord. in units of alat)
               a(1) = (   1.000000   0.000000   0.000000 )  
               a(2) = (   0.000000   1.000000   0.000000 )  
               a(3) = (   0.000000   0.000000   1.000000 )  

     reciprocal axes: (cart. coord. in units 2 pi/alat)
               b(1) = (  1.000000  0.000000  0.000000 )  
               b(2) = (  0.000000  1.000000  0.000000 )  
               b(3) = (  0.000000  0.000000  1.000000 )  


     PseudoPot. # 1 for C  read from file:
     /Users/oliviero/PWSCF/espresso-6.1-Environ-1.0/Environ/tests/../..//pseudo/C.pbe-rrkjus.UPF
     MD5 check sum: 00fb224312de0c5b6853bd333518df6f
     Pseudo is Ultrasoft, Zval =  4.0
     Generated by new atomic code, or converted to UPF format
     Using radial grid of  627 points,  4 beta functions with: 
                l(1) =   0
                l(2) =   0
                l(3) =   1
                l(4) =   1
     Q(r) pseudized with 0 coefficients 


     PseudoPot. # 2 for H  read from file:
     /Users/oliviero/PWSCF/espresso-6.1-Environ-1.0/Environ/tests/../..//pseudo/H.pbe-rrkjus.UPF
     MD5 check sum: 7cc9d459525c9a0585f487a71c3c9563
     Pseudo is Ultrasoft, Zval =  1.0
     Generated by new atomic code, or converted to UPF format
     Using radial grid of 1061 points,  2 beta functions with: 
                l(1) =   0
                l(2) =   0
     Q(r) pseudized with 0 coefficients 


     PseudoPot. # 3 for N  read from file:
     /Users/oliviero/PWSCF/espresso-6.1-Environ-1.0/Environ/tests/../..//pseudo/N.pbe-rrkjus.UPF
     MD5 check sum: 0c3fbe5807a93f9ba59d5a7019aa238b
     Pseudo is Ultrasoft, Zval =  5.0
     Generated by new atomic code, or converted to UPF format
     Using radial grid of 1257 points,  4 beta functions with: 
                l(1) =   0
                l(2) =   0
                l(3) =   1
                l(4) =   1
     Q(r) pseudized with 0 coefficients 


     PseudoPot. # 4 for O  read from file:
     /Users/oliviero/PWSCF/espresso-6.1-Environ-1.0/Environ/tests/../..//pseudo/O.pbe-rrkjus.UPF
     MD5 check sum: 390ba29e75625707450f3bd3f0eb6be9
     Pseudo is Ultrasoft, Zval =  6.0
     Generated by new atomic code, or converted to UPF format
     Using radial grid of 1269 points,  4 beta functions with: 
                l(1) =   0
                l(2) =   0
                l(3) =   1
                l(4) =   1
     Q(r) pseudized with 0 coefficients 


     atomic species   valence    mass     pseudopotential
        C              4.00    12.00000     C ( 1.00)
        H              1.00     1.00000     H ( 1.00)
        N              5.00    14.00000     N ( 1.00)
        O              6.00    16.00000     O ( 1.00)

     No symmetry found



   Cartesian axes

     site n.     atom                  positions (alat units)
         1           C   tau(   1) = (   0.0000000   0.0000000   0.0000000  )
         2           C   tau(   2) = (   0.0000000   0.0000000   0.1455089  )
         3           N   tau(   3) = (   0.1170969   0.0000000  -0.0545024  )
         4           H   tau(   4) = (   0.0476617  -0.0825466   0.1792090  )
         5           H   tau(   5) = (  -0.0953183  -0.0000030   0.1792090  )
         6           H   tau(   6) = (   0.0476566   0.0825496   0.1792090  )
         7           O   tau(   7) = (  -0.0984002  -0.0000019  -0.0641310  )
         8           H   tau(   8) = (   0.1263131  -0.0000015  -0.1475548  )
         9           H   tau(   9) = (   0.1944645   0.0000134  -0.0025716  )
        10           H   tau(  10) = (  -0.0770366  -0.0000045  -0.1522861  )

     number of k points=     1
                       cart. coord. in units 2pi/alat
        k(    1) = (   0.0000000   0.0000000   0.0000000), wk =   2.0000000

     Dense  grid:   350738 G-vectors     FFT dimensions: ( 120, 120, 120)

     Smooth grid:    88755 G-vectors     FFT dimensions: (  72,  72,  72)

     Estimated max dynamical RAM per process >     298.98MB

     Initial potential from superposition of free atoms
     Check: negative starting charge=   -0.000452

     starting charge   24.42266, renormalised to   24.00000

     negative rho (up, down):  4.438E-04 0.000E+00
     Starting wfc are   22 randomized atomic wfcs

     total cpu time spent up to now is       18.8 secs

     Self-consistent Calculation

     iteration #  1     ecut=    30.00 Ry     beta=0.70
     Davidson diagonalization with overlap
     ethr =  1.00E-02,  avg # of iterations =  2.0

     negative rho (up, down):  1.277E-04 0.000E+00

     add environment contribution to local potential
     polarization accuracy = 9.7E-05, # of iterations =  16

     total cpu time spent up to now is       29.8 secs

     total energy              =     -80.23903180 Ry
     Harris-Foulkes estimate   =     -83.01879009 Ry
     estimated scf accuracy    <       3.73442311 Ry
     electrostatic embedding   =       0.00000000 Ry
     correction to one-el term =       0.00000000 Ry

     iteration #  2     ecut=    30.00 Ry     beta=0.70
     Davidson diagonalization with overlap
     ethr =  1.00E-02,  avg # of iterations =  4.0

     negative rho (up, down):  7.187E-04 0.000E+00

     add environment contribution to local potential
     polarization accuracy = 9.7E-05, # of iterations =  13

     total cpu time spent up to now is       39.6 secs

     total energy              =     -81.01419762 Ry
     Harris-Foulkes estimate   =     -75.68922483 Ry
     estimated scf accuracy    <       1.57942520 Ry
     electrostatic embedding   =      -0.20216350 Ry
     correction to one-el term =      -5.96185162 Ry

     iteration #  3     ecut=    30.00 Ry     beta=0.70
     Davidson diagonalization with overlap
     ethr =  6.58E-03,  avg # of iterations =  3.0

     negative rho (up, down):  2.648E-04 0.000E+00

     add environment contribution to local potential
     polarization accuracy = 8.0E-05, # of iterations =  12

     total cpu time spent up to now is       48.7 secs

     total energy              =     -81.36909634 Ry
     Harris-Foulkes estimate   =     -75.94146744 Ry
     estimated scf accuracy    <       0.18972128 Ry
     electrostatic embedding   =      -0.16955277 Ry
     correction to one-el term =      -5.36198419 Ry

     iteration #  4     ecut=    30.00 Ry     beta=0.70
     Davidson diagonalization with overlap
     ethr =  7.91E-04,  avg # of iterations =  4.0

     negative rho (up, down):  1.172E-04 0.000E+00

     add environment contribution to local potential
     polarization accuracy = 6.7E-05, # of iterations =   9

     total cpu time spent up to now is       57.5 secs

     total energy              =     -81.40793349 Ry
     Harris-Foulkes estimate   =     -76.37278243 Ry
     estimated scf accuracy    <       0.02191088 Ry
     electrostatic embedding   =      -0.14420735 Ry
     correction to one-el term =      -4.90222357 Ry

     iteration #  5     ecut=    30.00 Ry     beta=0.70
     Davidson diagonalization with overlap
     ethr =  9.13E-05,  avg # of iterations =  4.0

     negative rho (up, down):  2.673E-04 0.000E+00

     total cpu time spent up to now is       62.0 secs

     End of self-consistent calculation

          k = 0.0000 0.0000 0.0000 ( 11060 PWs)   bands (ev):

   -28.8800 -23.0559 -18.5057 -15.9448 -14.6132 -13.3314 -11.5630 -10.8672
    -9.4017  -9.3939  -9.2540  -7.3057

     highest occupied level (ev):    -7.3057

!    total energy              =     -81.40554592 Ry
     Harris-Foulkes estimate   =     -76.79767724 Ry
     estimated scf accuracy    <       0.00174175 Ry

     The total energy is the sum of the following terms:

     one-electron contribution =    -240.93173904 Ry
     hartree contribution      =     122.71942027 Ry
     xc contribution           =     -22.89189175 Ry
     ewald contribution        =      64.30784006 Ry
     electrostatic embedding   =      -0.13691950 Ry
     correction to one-el term =      -4.47225596 Ry

     convergence has been achieved in   5 iterations

     Forces acting on atoms (cartesian axes, Ry/au):

     atom    1 type  1   force =     0.22569527    0.00000852    0.10489339
     atom    2 type  1   force =    -0.03364260   -0.00000513   -0.08478871
     atom    3 type  3   force =    -0.14481724   -0.00000671    0.04780152
     atom    4 type  2   force =     0.01974190   -0.03094327    0.00826899
     atom    5 type  2   force =    -0.03509164   -0.00000296    0.01185451
     atom    6 type  2   force =     0.01974553    0.03095195    0.00827323
     atom    7 type  4   force =    -0.09364642   -0.00002461   -0.00645946
     atom    8 type  2   force =     0.00640883    0.00000724   -0.05471888
     atom    9 type  2   force =     0.04225802    0.00000958    0.04047992
     atom   10 type  2   force =    -0.00665164    0.00000540   -0.07560450

     Total force =     0.344607     Total SCF correction =     0.099183
     SCF correction compared to forces is large: reduce conv_thr to get better values

     Writing output data file pwscf.save

     init_run     :     17.28s CPU     18.65s WALL (       1 calls)
     electrons    :     38.81s CPU     43.34s WALL (       1 calls)
     forces       :     36.19s CPU     37.31s WALL (       1 calls)

     Called by init_run:
     wfcinit      :      0.22s CPU      0.22s WALL (       1 calls)
     potinit      :      1.76s CPU      1.89s WALL (       1 calls)

     Called by electrons:
     c_bands      :      2.02s CPU      1.92s WALL (       5 calls)
     sum_band     :      6.70s CPU      7.11s WALL (       5 calls)
     v_of_rho     :      7.25s CPU      7.92s WALL (       6 calls)
     newd         :      3.67s CPU      5.51s WALL (       6 calls)
     mix_rho      :      0.58s CPU      0.67s WALL (       5 calls)

     Called by c_bands:
     init_us_2    :      0.07s CPU      0.11s WALL (      11 calls)
     regterg      :      1.93s CPU      1.81s WALL (       5 calls)

     Called by sum_band:
     sum_band:bec :      0.00s CPU      0.00s WALL (       5 calls)
     addusdens    :      5.36s CPU      5.70s WALL (       5 calls)

     Called by *egterg:
     h_psi        :      1.76s CPU      1.74s WALL (      23 calls)
     s_psi        :      0.10s CPU      0.04s WALL (      23 calls)
     g_psi        :      0.01s CPU      0.01s WALL (      17 calls)
     rdiaghg      :      0.01s CPU      0.01s WALL (      22 calls)

     Called by h_psi:
     h_psi:pot    :      1.75s CPU      1.72s WALL (      23 calls)
     h_psi:calbec :      0.05s CPU      0.06s WALL (      23 calls)
     vloc_psi     :      1.58s CPU      1.63s WALL (      23 calls)
     add_vuspsi   :      0.12s CPU      0.04s WALL (      23 calls)

     General routines
     calbec       :      0.08s CPU      0.09s WALL (      32 calls)
     fft          :     17.46s CPU     18.09s WALL (     315 calls)
     ffts         :      0.11s CPU      0.12s WALL (      11 calls)
     fftw         :      1.43s CPU      1.47s WALL (     244 calls)
     interpolate  :      0.86s CPU      0.96s WALL (      11 calls)
     davcio       :      0.00s CPU      0.00s WALL (       1 calls)


     Environ routines
     calc_eelect  :      0.03s CPU      0.03s WALL (      10 calls)
     calc_velect  :     19.52s CPU     21.30s WALL (       8 calls)
     dielectric   :      0.14s CPU      0.18s WALL (       2 calls)
     calc_felect  :      0.23s CPU      0.24s WALL (       1 calls)

     PWSCF        :  1m32.55s CPU     1m39.83s WALL


   This run was terminated on:  16:29:22   7Nov2017            

=------------------------------------------------------------------------------=
   JOB DONE.
=------------------------------------------------------------------------------=

%%%% IONS %%%%%%%%%%%%%%%%%%%%%%%%%%%%%%%%%%%%%%%%%%%%%%%%%%%%%%%%%%%%%%%%%%%%%%
 number of ions             =         10
 ionic center of charge     =      0.0095530    -0.0000002     0.0063981
 total ionic charge         =    -25.0000000
 ionic dipole               =      0.0000000     0.0000000     0.0000000
 ionic quadrupole (pc)      =    -79.0828058    -5.4513517  -105.8059629
 ionic quadrupole (gauss)   =    -82.2078058    -8.5763517  -108.9309629
 ion   1 type =  1 coordinates =      0.0000000     0.0000000     0.0000000
 ion   2 type =  1 coordinates =      0.0000000     0.0000000     2.9101782
 ion   3 type =  3 coordinates =      2.3419379     0.0000000    -1.0900479
 ion   4 type =  2 coordinates =      0.9532347    -1.6509323     3.5841800
 ion   5 type =  2 coordinates =     -1.9063663    -0.0000596     3.5841809
 ion   6 type =  2 coordinates =      0.9531315     1.6509919     3.5841800
 ion   7 type =  4 coordinates =     -1.9680045    -0.0000375    -1.2826193
 ion   8 type =  2 coordinates =      2.5262613    -0.0000303    -2.9510950
 ion   9 type =  2 coordinates =      3.8892907     0.0002681    -0.0514326
 ion  10 type =  2 coordinates =     -1.5407317    -0.0000890    -3.0457220

%%%% SYSTEM %%%%%%%%%%%%%%%%%%%%%%%%%%%%%%%%%%%%%%%%%%%%%%%%%%%%%%%%%%%%%%%%%%%%
 system is built from all present ionic types
 system defined dimension   =  0 
 system defined axis        =  3 
 system center              =      0.0095530    -0.0000002     0.0063981 
 system width               =      0.5223840 

%%%% BOUNDARY %%%%%%%%%%%%%%%%%%%%%%%%%%%%%%%%%%%%%%%%%%%%%%%%%%%%%%%%%%%%%%%%%%
 boundary mode              = ionic                
 boundary is built from soft-spheres centered on ionic positions
 solvent-dependent scaling  =      1.0000000 
 softness parameter         =      0.5000000 
 volume of the QM region    =    609.3920716 
 surface of the QM region   =    383.1651442 

%%%% DIELECTRIC %%%%%%%%%%%%%%%%%%%%%%%%%%%%%%%%%%%%%%%%%%%%%%%%%%%%%%%%%%%%%%%%%
 dielectric build on homogeneous background
 environment bulk permitt.  =    100.0000000 
 dielectric flags
 need gradient              =  F 
 need factor depend. sqrt   =  F 
 need gradient of logarithm =  T 

%%%% ELECTRONS %%%%%%%%%%%%%%%%%%%%%%%%%%%%%%%%%%%%%%%%%%%%%%%%%%%%%%%%%%%%%%%%%
 number of electrons        =         24
 total electronic charge    =     24.0000000
 number of spin components  =  1

%%%% COMPUTE ELECTROSTATIC POTENTIAL %%%%%%%%%%%%%%%%%%%%%%%%%%%%%%%%%%%%%%%%%%%
 Starting from polarization: rhoiter =      0.000000 jellium =      0.000000
 Iteration #          1
 delta_qm =   0.540136E-02 delta_en =   0.504138E+02 tol =   0.100000E-03
 Iteration #          2
 delta_qm =   0.348595E-02 delta_en =   0.209984E+02 tol =   0.100000E-03
 Iteration #          3
 delta_qm =   0.151059E-02 delta_en =   0.394309E+01 tol =   0.100000E-03
 Iteration #          4
 delta_qm =   0.932079E-03 delta_en =   0.150124E+01 tol =   0.100000E-03
 Iteration #          5
 delta_qm =   0.534627E-03 delta_en =   0.493908E+00 tol =   0.100000E-03
 Iteration #          6
 delta_qm =   0.256803E-03 delta_en =   0.113958E+00 tol =   0.100000E-03
 Iteration #          7
 delta_qm =   0.183799E-03 delta_en =   0.583757E-01 tol =   0.100000E-03
 Iteration #          8
 delta_qm =   0.120552E-03 delta_en =   0.251125E-01 tol =   0.100000E-03
 Iteration #          9
 delta_qm =   0.760376E-04 delta_en =   0.999081E-02 tol =   0.100000E-03
 Iteration #         10
 delta_qm =   0.546332E-04 delta_en =   0.515771E-02 tol =   0.100000E-03
 Iteration #         11
 delta_qm =   0.409800E-04 delta_en =   0.290193E-02 tol =   0.100000E-03
 Iteration #         12
 delta_qm =   0.283519E-04 delta_en =   0.138902E-02 tol =   0.100000E-03
 Iteration #         13
 delta_qm =   0.199190E-04 delta_en =   0.685610E-03 tol =   0.100000E-03
 Iteration #         14
 delta_qm =   0.150986E-04 delta_en =   0.393929E-03 tol =   0.100000E-03
 Iteration #         15
 delta_qm =   0.108196E-04 delta_en =   0.202285E-03 tol =   0.100000E-03
 Iteration #         16
 delta_qm =   0.747981E-05 delta_en =   0.966773E-04 tol =   0.100000E-03
 Charges are converged, EXIT

%%%% ELECTRONS %%%%%%%%%%%%%%%%%%%%%%%%%%%%%%%%%%%%%%%%%%%%%%%%%%%%%%%%%%%%%%%%%
 number of electrons        =         24
 total electronic charge    =     24.0000000
 number of spin components  =  1

%%%% COMPUTE ELECTROSTATIC POTENTIAL %%%%%%%%%%%%%%%%%%%%%%%%%%%%%%%%%%%%%%%%%%%
 Starting from polarization: rhoiter =      1.986633 jellium =      0.000000
 Iteration #          1
 delta_qm =   0.962414E-03 delta_en =   0.160054E+01 tol =   0.100000E-03
 Iteration #          2
 delta_qm =   0.505301E-03 delta_en =   0.441209E+00 tol =   0.100000E-03
 Iteration #          3
 delta_qm =   0.363260E-03 delta_en =   0.228023E+00 tol =   0.100000E-03
 Iteration #          4
 delta_qm =   0.243771E-03 delta_en =   0.102685E+00 tol =   0.100000E-03
 Iteration #          5
 delta_qm =   0.167321E-03 delta_en =   0.483776E-01 tol =   0.100000E-03
 Iteration #          6
 delta_qm =   0.106735E-03 delta_en =   0.196858E-01 tol =   0.100000E-03
 Iteration #          7
 delta_qm =   0.726414E-04 delta_en =   0.911827E-02 tol =   0.100000E-03
 Iteration #          8
 delta_qm =   0.518871E-04 delta_en =   0.465225E-02 tol =   0.100000E-03
 Iteration #          9
 delta_qm =   0.333107E-04 delta_en =   0.191739E-02 tol =   0.100000E-03
 Iteration #         10
 delta_qm =   0.222864E-04 delta_en =   0.858272E-03 tol =   0.100000E-03
 Iteration #         11
 delta_qm =   0.167163E-04 delta_en =   0.482860E-03 tol =   0.100000E-03
 Iteration #         12
 delta_qm =   0.115339E-04 delta_en =   0.229875E-03 tol =   0.100000E-03
 Iteration #         13
 delta_qm =   0.748455E-05 delta_en =   0.967999E-04 tol =   0.100000E-03
 Charges are converged, EXIT

%%%% ELECTRONS %%%%%%%%%%%%%%%%%%%%%%%%%%%%%%%%%%%%%%%%%%%%%%%%%%%%%%%%%%%%%%%%%
 number of electrons        =         24
 total electronic charge    =     24.0000000
 number of spin components  =  1

%%%% COMPUTE ELECTROSTATIC POTENTIAL %%%%%%%%%%%%%%%%%%%%%%%%%%%%%%%%%%%%%%%%%%%
 Starting from polarization: rhoiter =      1.886677 jellium =      0.000000
 Iteration #          1
 delta_qm =   0.670794E-03 delta_en =   0.777538E+00 tol =   0.100000E-03
 Iteration #          2
 delta_qm =   0.383037E-03 delta_en =   0.253527E+00 tol =   0.100000E-03
 Iteration #          3
 delta_qm =   0.227643E-03 delta_en =   0.895470E-01 tol =   0.100000E-03
 Iteration #          4
 delta_qm =   0.144502E-03 delta_en =   0.360822E-01 tol =   0.100000E-03
 Iteration #          5
 delta_qm =   0.967382E-04 delta_en =   0.161711E-01 tol =   0.100000E-03
 Iteration #          6
 delta_qm =   0.593445E-04 delta_en =   0.608562E-02 tol =   0.100000E-03
 Iteration #          7
 delta_qm =   0.399292E-04 delta_en =   0.275503E-02 tol =   0.100000E-03
 Iteration #          8
 delta_qm =   0.289507E-04 delta_en =   0.144831E-02 tol =   0.100000E-03
 Iteration #          9
 delta_qm =   0.189643E-04 delta_en =   0.621464E-03 tol =   0.100000E-03
 Iteration #         10
 delta_qm =   0.125859E-04 delta_en =   0.273725E-03 tol =   0.100000E-03
 Iteration #         11
 delta_qm =   0.950765E-05 delta_en =   0.156203E-03 tol =   0.100000E-03
 Iteration #         12
 delta_qm =   0.682100E-05 delta_en =   0.803970E-04 tol =   0.100000E-03
 Charges are converged, EXIT

%%%% ELECTRONS %%%%%%%%%%%%%%%%%%%%%%%%%%%%%%%%%%%%%%%%%%%%%%%%%%%%%%%%%%%%%%%%%
 number of electrons        =         24
 total electronic charge    =     24.0000000
 number of spin components  =  1

%%%% COMPUTE ELECTROSTATIC POTENTIAL %%%%%%%%%%%%%%%%%%%%%%%%%%%%%%%%%%%%%%%%%%%
 Starting from polarization: rhoiter =      1.713147 jellium =      0.000000
 Iteration #          1
 delta_qm =   0.341136E-03 delta_en =   0.201094E+00 tol =   0.100000E-03
 Iteration #          2
 delta_qm =   0.216588E-03 delta_en =   0.810610E-01 tol =   0.100000E-03
 Iteration #          3
 delta_qm =   0.100919E-03 delta_en =   0.175989E-01 tol =   0.100000E-03
 Iteration #          4
 delta_qm =   0.633700E-04 delta_en =   0.693923E-02 tol =   0.100000E-03
 Iteration #          5
 delta_qm =   0.372782E-04 delta_en =   0.240134E-02 tol =   0.100000E-03
 Iteration #          6
 delta_qm =   0.203757E-04 delta_en =   0.717413E-03 tol =   0.100000E-03
 Iteration #          7
 delta_qm =   0.142056E-04 delta_en =   0.348708E-03 tol =   0.100000E-03
 Iteration #          8
 delta_qm =   0.922964E-05 delta_en =   0.147202E-03 tol =   0.100000E-03
 Iteration #          9
 delta_qm =   0.621618E-05 delta_en =   0.667714E-04 tol =   0.100000E-03
 Charges are converged, EXIT

%%%% ELECTRONS %%%%%%%%%%%%%%%%%%%%%%%%%%%%%%%%%%%%%%%%%%%%%%%%%%%%%%%%%%%%%%%%%
 number of electrons        =         24
 total electronic charge    =     24.0000000
 number of spin components  =  1
