
     Program PWSCF v.6.1 (svn rev. 13369) starts on  4Oct2017 at 12:26:58 

     This program is part of the open-source Quantum ESPRESSO suite
     for quantum simulation of materials; please cite
         "P. Giannozzi et al., J. Phys.:Condens. Matter 21 395502 (2009);
          URL http://www.quantum-espresso.org", 
     in publications or presentations arising from this work. More details at
     http://www.quantum-espresso.org/quote

     Serial version
     Reading input from charged.in

     Current dimensions of program PWSCF are:
     Max number of different atomic species (ntypx) = 10
     Max number of k-points (npk) =  40000
     Max angular momentum in pseudopotentials (lmaxx) =  3
               file C.pbe-rrkjus.UPF: wavefunction(s)  2S 2P renormalized
               file H.pbe-rrkjus.UPF: wavefunction(s)  1S renormalized
               file N.pbe-rrkjus.UPF: wavefunction(s)  2S renormalized
               file O.pbe-rrkjus.UPF: wavefunction(s)  2S renormalized

     gamma-point specific algorithms are used

     G-vector sticks info
     --------------------
     sticks:   dense  smooth     PW     G-vecs:    dense   smooth      PW
     Sum        9549    3809    949               701475   177509   22119



     bravais-lattice index     =            1
     lattice parameter (alat)  =      20.0000  a.u.
     unit-cell volume          =    8000.0000 (a.u.)^3
     number of atoms/cell      =           10
     number of atomic types    =            4
     number of electrons       =        24.00
     number of Kohn-Sham states=           12
     kinetic-energy cutoff     =      30.0000  Ry
     charge density cutoff     =     300.0000  Ry
     convergence threshold     =      5.0E-03
     mixing beta               =       0.7000
     number of iterations used =            8  plain     mixing
     Exchange-correlation      =  SLA  PW   PBE  PBE ( 1  4  3  4 0 0)


     Environ Module
     ==============

     Plese cite
         O. Andreussi, I. Dabo and N. Marzari, J. Chem. Phys. 136, 064102 (2012)         
     in publications or presentations arising from this work.

     compensation onset threshold      =               0.1000E+03 
     static permittivity               =                   100.00 
     epsilon calculation mode          =               electronic 

     Electrostatic Setup
     -------------------
     electrostatic problem to solve    = generalized              
     numerical solver adopted          = sd                       
     type of auxiliary density adopted = none                     
     type of core tool for poisson     = fft                      
     type of core tool for s(r) deriv  = analytic                 



     celldm(1)=  20.000000  celldm(2)=   0.000000  celldm(3)=   0.000000
     celldm(4)=   0.000000  celldm(5)=   0.000000  celldm(6)=   0.000000

     crystal axes: (cart. coord. in units of alat)
               a(1) = (   1.000000   0.000000   0.000000 )  
               a(2) = (   0.000000   1.000000   0.000000 )  
               a(3) = (   0.000000   0.000000   1.000000 )  

     reciprocal axes: (cart. coord. in units 2 pi/alat)
               b(1) = (  1.000000  0.000000  0.000000 )  
               b(2) = (  0.000000  1.000000  0.000000 )  
               b(3) = (  0.000000  0.000000  1.000000 )  


     PseudoPot. # 1 for C  read from file:
     /Users/oliviero/PWSCF/espresso-6.1-Environ-1.0/Environ/tests/../..//pseudo/C.pbe-rrkjus.UPF
     MD5 check sum: 00fb224312de0c5b6853bd333518df6f
     Pseudo is Ultrasoft, Zval =  4.0
     Generated by new atomic code, or converted to UPF format
     Using radial grid of  627 points,  4 beta functions with: 
                l(1) =   0
                l(2) =   0
                l(3) =   1
                l(4) =   1
     Q(r) pseudized with 0 coefficients 


     PseudoPot. # 2 for H  read from file:
     /Users/oliviero/PWSCF/espresso-6.1-Environ-1.0/Environ/tests/../..//pseudo/H.pbe-rrkjus.UPF
     MD5 check sum: 7cc9d459525c9a0585f487a71c3c9563
     Pseudo is Ultrasoft, Zval =  1.0
     Generated by new atomic code, or converted to UPF format
     Using radial grid of 1061 points,  2 beta functions with: 
                l(1) =   0
                l(2) =   0
     Q(r) pseudized with 0 coefficients 


     PseudoPot. # 3 for N  read from file:
     /Users/oliviero/PWSCF/espresso-6.1-Environ-1.0/Environ/tests/../..//pseudo/N.pbe-rrkjus.UPF
     MD5 check sum: 0c3fbe5807a93f9ba59d5a7019aa238b
     Pseudo is Ultrasoft, Zval =  5.0
     Generated by new atomic code, or converted to UPF format
     Using radial grid of 1257 points,  4 beta functions with: 
                l(1) =   0
                l(2) =   0
                l(3) =   1
                l(4) =   1
     Q(r) pseudized with 0 coefficients 


     PseudoPot. # 4 for O  read from file:
     /Users/oliviero/PWSCF/espresso-6.1-Environ-1.0/Environ/tests/../..//pseudo/O.pbe-rrkjus.UPF
     MD5 check sum: 390ba29e75625707450f3bd3f0eb6be9
     Pseudo is Ultrasoft, Zval =  6.0
     Generated by new atomic code, or converted to UPF format
     Using radial grid of 1269 points,  4 beta functions with: 
                l(1) =   0
                l(2) =   0
                l(3) =   1
                l(4) =   1
     Q(r) pseudized with 0 coefficients 


     atomic species   valence    mass     pseudopotential
        C              4.00    12.00000     C ( 1.00)
        H              1.00     1.00000     H ( 1.00)
        N              5.00    14.00000     N ( 1.00)
        O              6.00    16.00000     O ( 1.00)

     No symmetry found



   Cartesian axes

     site n.     atom                  positions (alat units)
         1           C   tau(   1) = (   0.0000000   0.0000000   0.0000000  )
         2           C   tau(   2) = (   0.0000000   0.0000000   0.1455089  )
         3           N   tau(   3) = (   0.1170969   0.0000000  -0.0545024  )
         4           H   tau(   4) = (   0.0476617  -0.0825466   0.1792090  )
         5           H   tau(   5) = (  -0.0953183  -0.0000030   0.1792090  )
         6           H   tau(   6) = (   0.0476566   0.0825496   0.1792090  )
         7           O   tau(   7) = (  -0.0984002  -0.0000019  -0.0641310  )
         8           H   tau(   8) = (   0.1263131  -0.0000015  -0.1475548  )
         9           H   tau(   9) = (   0.1944645   0.0000134  -0.0025716  )
        10           H   tau(  10) = (  -0.0770366  -0.0000045  -0.1522861  )

     number of k points=     1
                       cart. coord. in units 2pi/alat
        k(    1) = (   0.0000000   0.0000000   0.0000000), wk =   2.0000000

     Dense  grid:   350738 G-vectors     FFT dimensions: ( 120, 120, 120)

     Smooth grid:    88755 G-vectors     FFT dimensions: (  72,  72,  72)

     Estimated max dynamical RAM per process >     298.98MB

     Initial potential from superposition of free atoms
     Check: negative starting charge=   -0.000452

     starting charge   24.42266, renormalised to   24.00000

     negative rho (up, down):  4.438E-04 0.000E+00
     Starting wfc are   22 randomized atomic wfcs

     total cpu time spent up to now is       30.4 secs

     Self-consistent Calculation

     iteration #  1     ecut=    30.00 Ry     beta=0.70
     Davidson diagonalization with overlap
     ethr =  1.00E-02,  avg # of iterations =  2.0

     negative rho (up, down):  1.277E-04 0.000E+00

     add environment contribution to local potential
     polarization accuracy = 6.8E-05, # of iterations =  33

     total cpu time spent up to now is       44.5 secs

     total energy              =     -80.23903180 Ry
     Harris-Foulkes estimate   =     -83.01879009 Ry
     estimated scf accuracy    <       3.73442311 Ry
     electrostatic embedding   =       0.00000000 Ry
     correction to one-el term =       0.00000000 Ry

     iteration #  2     ecut=    30.00 Ry     beta=0.70
     Davidson diagonalization with overlap
     ethr =  1.00E-02,  avg # of iterations =  4.0

     negative rho (up, down):  6.920E-04 0.000E+00

     add environment contribution to local potential
     polarization accuracy = 9.4E-05, # of iterations =  47

     total cpu time spent up to now is       61.8 secs

     total energy              =     -80.99152872 Ry
     Harris-Foulkes estimate   =     -76.58344116 Ry
     estimated scf accuracy    <       1.54144702 Ry
     electrostatic embedding   =      -0.16591940 Ry
     correction to one-el term =      -5.06759486 Ry

     iteration #  3     ecut=    30.00 Ry     beta=0.70
     Davidson diagonalization with overlap
     ethr =  6.42E-03,  avg # of iterations =  3.0

     negative rho (up, down):  3.243E-04 0.000E+00

     add environment contribution to local potential
     polarization accuracy = 9.0E-05, # of iterations =  59

     total cpu time spent up to now is       81.4 secs

     total energy              =     -81.33271536 Ry
     Harris-Foulkes estimate   =     -77.00545920 Ry
     estimated scf accuracy    <       0.24270947 Ry
     electrostatic embedding   =      -0.13848405 Ry
     correction to one-el term =      -4.31816001 Ry

     iteration #  4     ecut=    30.00 Ry     beta=0.70
     Davidson diagonalization with overlap
     ethr =  1.01E-03,  avg # of iterations =  4.0

     negative rho (up, down):  8.669E-05 0.000E+00

     add environment contribution to local potential
     polarization accuracy = 8.2E-05, # of iterations =  73

     total cpu time spent up to now is      103.7 secs

     total energy              =     -81.38264312 Ry
     Harris-Foulkes estimate   =     -77.20734294 Ry
     estimated scf accuracy    <       0.02093880 Ry
     electrostatic embedding   =      -0.12546427 Ry
     correction to one-el term =      -4.06047130 Ry

     iteration #  5     ecut=    30.00 Ry     beta=0.70
     Davidson diagonalization with overlap
     ethr =  8.72E-05,  avg # of iterations =  4.0

     negative rho (up, down):  2.756E-04 0.000E+00

     total cpu time spent up to now is      109.0 secs

     End of self-consistent calculation

          k = 0.0000 0.0000 0.0000 ( 11060 PWs)   bands (ev):

   -28.9375 -23.1992 -18.6810 -16.0122 -14.7185 -13.4442 -11.7059 -10.9635
    -9.6059  -9.5912  -9.3543  -7.4402

     highest occupied level (ev):    -7.4402

!    total energy              =     -81.38710546 Ry
     Harris-Foulkes estimate   =     -77.44088979 Ry
     estimated scf accuracy    <       0.00247542 Ry

     The total energy is the sum of the following terms:

     one-electron contribution =    -241.93638691 Ry
     hartree contribution      =     123.13418732 Ry
     xc contribution           =     -22.94468402 Ry
     ewald contribution        =      64.30784006 Ry
     electrostatic embedding   =      -0.12505064 Ry
     correction to one-el term =      -3.82301127 Ry

     convergence has been achieved in   5 iterations

     Forces acting on atoms (cartesian axes, Ry/au):

     atom    1 type  1   force =     0.21834079    0.00001204    0.09996222
     atom    2 type  1   force =    -0.03323407   -0.00000468   -0.08062909
     atom    3 type  3   force =    -0.13914152   -0.00000059    0.04519958
     atom    4 type  2   force =     0.01775982   -0.02856701    0.00859891
     atom    5 type  2   force =    -0.03291161   -0.00000261    0.01193188
     atom    6 type  2   force =     0.01776325    0.02857268    0.00860017
     atom    7 type  4   force =    -0.08357435   -0.00003013   -0.01005815
     atom    8 type  2   force =     0.00524075    0.00000587   -0.04815635
     atom    9 type  2   force =     0.03845148    0.00001016    0.03892347
     atom   10 type  2   force =    -0.00869455    0.00000426   -0.07437264

     Total force =     0.329156     Total SCF correction =     0.120920
     SCF correction compared to forces is large: reduce conv_thr to get better values

     Writing output data file pwscf.save

     init_run     :     28.95s CPU     30.13s WALL (       1 calls)
     electrons    :     70.24s CPU     78.87s WALL (       1 calls)
     forces       :      3.46s CPU      3.91s WALL (       1 calls)

     Called by init_run:
     wfcinit      :      0.26s CPU      0.26s WALL (       1 calls)
     potinit      :      1.94s CPU      2.12s WALL (       1 calls)

     Called by electrons:
     c_bands      :      2.33s CPU      2.23s WALL (       5 calls)
     sum_band     :      7.18s CPU      7.39s WALL (       5 calls)
     v_of_rho     :      7.82s CPU      8.57s WALL (       6 calls)
     newd         :      3.77s CPU      5.50s WALL (       6 calls)
     mix_rho      :      0.64s CPU      0.73s WALL (       5 calls)

     Called by c_bands:
     init_us_2    :      0.09s CPU      0.12s WALL (      11 calls)
     regterg      :      2.20s CPU      2.07s WALL (       5 calls)

     Called by sum_band:
     sum_band:bec :      0.00s CPU      0.00s WALL (       5 calls)
     addusdens    :      5.69s CPU      5.84s WALL (       5 calls)

     Called by *egterg:
     h_psi        :      2.02s CPU      1.98s WALL (      23 calls)
     s_psi        :      0.11s CPU      0.04s WALL (      23 calls)
     g_psi        :      0.02s CPU      0.02s WALL (      17 calls)
     rdiaghg      :      0.01s CPU      0.01s WALL (      22 calls)

     Called by h_psi:
     h_psi:pot    :      2.00s CPU      1.97s WALL (      23 calls)
     h_psi:calbec :      0.05s CPU      0.06s WALL (      23 calls)
     vloc_psi     :      1.82s CPU      1.87s WALL (      23 calls)
     add_vuspsi   :      0.12s CPU      0.04s WALL (      23 calls)

     General routines
     calbec       :      0.08s CPU      0.08s WALL (      32 calls)
     fft          :     34.40s CPU     35.09s WALL (     583 calls)
     ffts         :      0.12s CPU      0.12s WALL (      11 calls)
     fftw         :      1.49s CPU      1.53s WALL (     244 calls)
     interpolate  :      0.93s CPU      1.03s WALL (      11 calls)
     davcio       :      0.01s CPU      0.01s WALL (       1 calls)


     Environ routines
     calc_eelect  :      0.02s CPU      0.02s WALL (      10 calls)
     calc_velect  :     42.85s CPU     48.38s WALL (       8 calls)
     dielectric   :      0.53s CPU      0.67s WALL (       6 calls)
     calc_felect  :      0.97s CPU      1.04s WALL (       1 calls)

     PWSCF        :  1m42.93s CPU     1m53.38s WALL


   This run was terminated on:  12:28:52   4Oct2017            

=------------------------------------------------------------------------------=
   JOB DONE.
=------------------------------------------------------------------------------=

%%%% IONS %%%%%%%%%%%%%%%%%%%%%%%%%%%%%%%%%%%%%%%%%%%%%%%%%%%%%%%%%%%%%%%%%%%%%%
 number of ions             =         10
 ionic center of charge     =      0.0095530    -0.0000002     0.0063981
 total ionic charge         =    -25.0000000
 ionic dipole               =      0.0000000     0.0000000     0.0000000
 ionic quadrupole (pc)      =    -79.0828058    -5.4513517  -105.8059629
 ionic quadrupole (gauss)   =    -82.2078058    -8.5763517  -108.9309629
 ion   1 type =  1 coordinates =      0.0000000     0.0000000     0.0000000
 ion   2 type =  1 coordinates =      0.0000000     0.0000000     2.9101782
 ion   3 type =  3 coordinates =      2.3419379     0.0000000    -1.0900479
 ion   4 type =  2 coordinates =      0.9532347    -1.6509323     3.5841800
 ion   5 type =  2 coordinates =     -1.9063663    -0.0000596     3.5841809
 ion   6 type =  2 coordinates =      0.9531315     1.6509919     3.5841800
 ion   7 type =  4 coordinates =     -1.9680045    -0.0000375    -1.2826193
 ion   8 type =  2 coordinates =      2.5262613    -0.0000303    -2.9510950
 ion   9 type =  2 coordinates =      3.8892907     0.0002681    -0.0514326
 ion  10 type =  2 coordinates =     -1.5407317    -0.0000890    -3.0457220

%%%% SYSTEM %%%%%%%%%%%%%%%%%%%%%%%%%%%%%%%%%%%%%%%%%%%%%%%%%%%%%%%%%%%%%%%%%%%%
 system is built from all present ionic types
 system defined dimension   =  0 
 system defined axis        =  3 
 system center              =      0.0095530    -0.0000002     0.0063981 
 system width               =      0.5223840 

%%%% ELECTRONS %%%%%%%%%%%%%%%%%%%%%%%%%%%%%%%%%%%%%%%%%%%%%%%%%%%%%%%%%%%%%%%%%
 number of electrons        =         24
 total electronic charge    =     24.0000000
 number of spin components  =  1

%%%% BOUNDARY %%%%%%%%%%%%%%%%%%%%%%%%%%%%%%%%%%%%%%%%%%%%%%%%%%%%%%%%%%%%%%%%%%
 boundary mode              = electronic           
 boundary is built as a function of a smooth density
 function type              =  2 
 using the modified SCCS function with parameters 
 rhomax                     =      0.0050000 
 rhomin                     =      0.0001000 

%%%% DIELECTRIC %%%%%%%%%%%%%%%%%%%%%%%%%%%%%%%%%%%%%%%%%%%%%%%%%%%%%%%%%%%%%%%%%
 dielectric build on homogeneous background
 environment bulk permitt.  =    100.0000000 
 dielectric flags
 need gradient              =  F 
 need factor depend. sqrt   =  T 
 need gradient of logarithm =  T 

%%%% COMPUTE ELECTROSTATIC POTENTIAL %%%%%%%%%%%%%%%%%%%%%%%%%%%%%%%%%%%%%%%%%%%
 Iteration #          1
  pAp =  92.01284325786163  rzold =  89.11681792761655  alpha =  0.9685258576117564
 delta_qm =   0.144051E-01 delta_en =   0.358571E+03 tol =   0.100000E-03
 Iteration #          2
  pAp =  136.11491461462856  rzold =  17.613253966342462  alpha =  0.1293998825640047
 delta_qm =   0.336507E-02 delta_en =   0.195674E+02 tol =   0.100000E-03
 Iteration #          3
  pAp =  0.9083095762509903  rzold =  0.24183955678123778  alpha =  0.26625234733230535
 delta_qm =   0.195624E-02 delta_en =   0.661287E+01 tol =   0.100000E-03
 Iteration #          4
  pAp =  0.4358460004316092  rzold =  0.09237384772934086  alpha =  0.2119414830877534
 delta_qm =   0.169610E-02 delta_en =   0.497102E+01 tol =   0.100000E-03
 Iteration #          5
  pAp =  0.18305180005036026  rzold =  0.04411586028812766  alpha =  0.24100205666369157
 delta_qm =   0.107770E-02 delta_en =   0.200696E+01 tol =   0.100000E-03
 Iteration #          6
  pAp =  0.14349712565070297  rzold =  0.029952770736817236  alpha =  0.20873429067650806
 delta_qm =   0.103949E-02 delta_en =   0.186716E+01 tol =   0.100000E-03
 Iteration #          7
  pAp =  0.06550556980876195  rzold =  0.015611165739573224  alpha =  0.23831814279531835
 delta_qm =   0.650222E-03 delta_en =   0.730578E+00 tol =   0.100000E-03
 Iteration #          8
  pAp =  0.051900141810403234  rzold =  0.010771438513031795  alpha =  0.20754160079910786
 delta_qm =   0.651750E-03 delta_en =   0.734017E+00 tol =   0.100000E-03
 Iteration #          9
  pAp =  0.023914672420988815  rzold =  0.005679822620582111  alpha =  0.23750367642908587
 delta_qm =   0.406247E-03 delta_en =   0.285183E+00 tol =   0.100000E-03
 Iteration #         10
  pAp =  0.019024856298424504  rzold =  0.003943219456731582  alpha =  0.20726671439080094
 delta_qm =   0.417526E-03 delta_en =   0.301239E+00 tol =   0.100000E-03
 Iteration #         11
  pAp =  0.008808385938244161  rzold =  0.002091159660594873  alpha =  0.23740554458626717
 delta_qm =   0.261227E-03 delta_en =   0.117918E+00 tol =   0.100000E-03
 Iteration #         12
  pAp =  0.00703403514534175  rzold =  0.0014582256194153656  alpha =  0.20730997063343753
 delta_qm =   0.273074E-03 delta_en =   0.128856E+00 tol =   0.100000E-03
 Iteration #         13
  pAp =  0.0032698341073476222  rzold =  0.0007767839757676604  alpha =  0.23756066829878444
 delta_qm =   0.172491E-03 delta_en =   0.514135E-01 tol =   0.100000E-03
 Iteration #         14
  pAp =  0.002622868632469881  rzold =  0.0005441994620919893  alpha =  0.20748254615387737
 delta_qm =   0.182170E-03 delta_en =   0.573450E-01 tol =   0.100000E-03
 Iteration #         15
  pAp =  0.0012248611811887635  rzold =  0.000291330481068984  alpha =  0.23784775413181047
 delta_qm =   0.116780E-03 delta_en =   0.235656E-01 tol =   0.100000E-03
 Iteration #         16
  pAp =  0.0009881714521648292  rzold =  0.00020528891263755575  alpha =  0.2077462490824043
 delta_qm =   0.123787E-03 delta_en =   0.264787E-01 tol =   0.100000E-03
 Iteration #         17
  pAp =  0.0004641924786927171  rzold =  0.00011059672088195651  alpha =  0.238256167341239
 delta_qm =   0.808618E-04 delta_en =   0.112987E-01 tol =   0.100000E-03
 Iteration #         18
  pAp =  0.0003773597817326534  rzold =  0.0000785320654299837  alpha =  0.2081092613245706
 delta_qm =   0.855213E-04 delta_en =   0.126384E-01 tol =   0.100000E-03
 Iteration #         19
  pAp =  0.00017865332312418076  rzold =  0.00004266383692216395  alpha =  0.23880796716279717
 delta_qm =   0.570571E-04 delta_en =   0.562552E-02 tol =   0.100000E-03
 Iteration #         20
  pAp =  0.0001467141484050937  rzold =  0.00003060336900453314  alpha =  0.20859180479331763
 delta_qm =   0.599399E-04 delta_en =   0.620834E-02 tol =   0.100000E-03
 Iteration #         21
  pAp =  0.00007017663085352616  rzold =  0.000016809394047004463  alpha =  0.23952979563936766
 delta_qm =   0.408535E-04 delta_en =   0.288405E-02 tol =   0.100000E-03
 Iteration #         22
  pAp =  0.000058396407569660585  rzold =  0.000012217148627822867  alpha =  0.2092106199041291
 delta_qm =   0.425203E-04 delta_en =   0.312418E-02 tol =   0.100000E-03
 Iteration #         23
  pAp =  0.000028301955104576552  rzold =  0.000006804795208202327  alpha =  0.2404355170184678
 delta_qm =   0.295624E-04 delta_en =   0.151016E-02 tol =   0.100000E-03
 Iteration #         24
  pAp =  0.000023943482646265274  rzold =  0.000005027327771898614  alpha =  0.20996643830686765
 delta_qm =   0.304616E-04 delta_en =   0.160343E-02 tol =   0.100000E-03
 Iteration #         25
  pAp =  0.000011791858017671318  rzold =  0.000002847857202993677  alpha =  0.2415104726266097
 delta_qm =   0.215463E-04 delta_en =   0.802210E-03 tol =   0.100000E-03
 Iteration #         26
  pAp =  0.000010173198740985878  rzold =  0.000002144851677816064  alpha =  0.21083355711658966
 delta_qm =   0.219953E-04 delta_en =   0.835997E-03 tol =   0.100000E-03
 Iteration #         27
  pAp =  0.000005103106382652869  rzold =  0.000001238532968552535  alpha =  0.24270177332824464
 delta_qm =   0.157776E-04 delta_en =   0.430158E-03 tol =   0.100000E-03
 Iteration #         28
  pAp =  0.000004499042180046773  rzold =  9.527067161021016E-7  alpha =  0.211757675962086
 delta_qm =   0.159815E-04 delta_en =   0.441345E-03 tol =   0.100000E-03
 Iteration #         29
  pAp =  0.000002301416282741817  rzold =  5.613705496250564E-7  alpha =  0.24392394971511258
 delta_qm =   0.115890E-04 delta_en =   0.232077E-03 tol =   0.100000E-03
 Iteration #         30
  pAp =  0.000002074526019800927  rzold =  4.4118446490491773E-7  alpha =  0.21266759765551366
 delta_qm =   0.116697E-04 delta_en =   0.235324E-03 tol =   0.100000E-03
 Iteration #         31
  pAp =  0.000001081810273686284  rzold =  2.651327356292983E-7  alpha =  0.245082471555622
 delta_qm =   0.853073E-05 delta_en =   0.125752E-03 tol =   0.100000E-03
 Iteration #         32
  pAp =  9.9585203200635E-7  rzold =  2.1261150600948153E-7  alpha =  0.21349708508515233
 delta_qm =   0.855574E-05 delta_en =   0.126491E-03 tol =   0.100000E-03
 Iteration #         33
  pAp =  5.284862022226846E-7  rzold =  1.300621040027178E-7  alpha =  0.24610312143573135
 delta_qm =   0.629069E-05 delta_en =   0.683818E-04 tol =   0.100000E-03
 Charges are converged, exit!

%%%% ELECTRONS %%%%%%%%%%%%%%%%%%%%%%%%%%%%%%%%%%%%%%%%%%%%%%%%%%%%%%%%%%%%%%%%%
 number of electrons        =         24
 total electronic charge    =     24.0000000
 number of spin components  =  1

%%%% BOUNDARY %%%%%%%%%%%%%%%%%%%%%%%%%%%%%%%%%%%%%%%%%%%%%%%%%%%%%%%%%%%%%%%%%%
 boundary mode              = electronic           
 boundary is built as a function of a smooth density
 function type              =  2 
 using the modified SCCS function with parameters 
 rhomax                     =      0.0050000 
 rhomin                     =      0.0001000 

%%%% DIELECTRIC %%%%%%%%%%%%%%%%%%%%%%%%%%%%%%%%%%%%%%%%%%%%%%%%%%%%%%%%%%%%%%%%%
 dielectric build on homogeneous background
 environment bulk permitt.  =    100.0000000 
 dielectric flags
 need gradient              =  F 
 need factor depend. sqrt   =  T 
 need gradient of logarithm =  T 

%%%% COMPUTE ELECTROSTATIC POTENTIAL %%%%%%%%%%%%%%%%%%%%%%%%%%%%%%%%%%%%%%%%%%%
 Warning: bad guess with residual norm =   0.142462E+04, reset to no guess
 Iteration #          1
  pAp =  95.45364522178801  rzold =  92.72740764345275  alpha =  0.9714391464883211
 delta_qm =   0.202002E-01 delta_en =   0.705109E+03 tol =   0.100000E-03
 Iteration #          2
  pAp =  172.6160392857316  rzold =  19.54524296819042  alpha =  0.11322958775480386
 delta_qm =   0.430273E-02 delta_en =   0.319913E+02 tol =   0.100000E-03
 Iteration #          3
  pAp =  1.162133364953335  rzold =  0.2470813335184321  alpha =  0.21261013664154935
 delta_qm =   0.230205E-02 delta_en =   0.915745E+01 tol =   0.100000E-03
 Iteration #          4
  pAp =  0.44951850690043726  rzold =  0.08773978978938787  alpha =  0.1951861568378566
 delta_qm =   0.233870E-02 delta_en =   0.945129E+01 tol =   0.100000E-03
 Iteration #          5
  pAp =  0.2502624005134741  rzold =  0.050690569832152844  alpha =  0.2025496827655646
 delta_qm =   0.138267E-02 delta_en =   0.330355E+01 tol =   0.100000E-03
 Iteration #          6
  pAp =  0.17497903811246887  rzold =  0.033698691033909295  alpha =  0.19258701726460087
 delta_qm =   0.158811E-02 delta_en =   0.435816E+01 tol =   0.100000E-03
 Iteration #          7
  pAp =  0.1031197554332315  rzold =  0.020697612825781423  alpha =  0.2007143319805759
 delta_qm =   0.918572E-03 delta_en =   0.145804E+01 tol =   0.100000E-03
 Iteration #          8
  pAp =  0.07304587115007039  rzold =  0.01399543131461312  alpha =  0.19159784248256767
 delta_qm =   0.110883E-02 delta_en =   0.212460E+01 tol =   0.100000E-03
 Iteration #          9
  pAp =  0.04343187671878892  rzold =  0.008694048017532352  alpha =  0.20017665996393033
 delta_qm =   0.648101E-03 delta_en =   0.725820E+00 tol =   0.100000E-03
 Iteration #         10
  pAp =  0.030969343681049137  rzold =  0.005928530553501314  alpha =  0.19143223100104378
 delta_qm =   0.793858E-03 delta_en =   0.108900E+01 tol =   0.100000E-03
 Iteration #         11
  pAp =  0.018538586680628917  rzold =  0.0037119063094460487  alpha =  0.2002259596911259
 delta_qm =   0.478086E-03 delta_en =   0.394963E+00 tol =   0.100000E-03
 Iteration #         12
  pAp =  0.013311284047132365  rzold =  0.002550709281044214  alpha =  0.19162007752315302
 delta_qm =   0.581579E-03 delta_en =   0.584469E+00 tol =   0.100000E-03
 Iteration #         13
  pAp =  0.008028813140663024  rzold =  0.0016101596624791706  alpha =  0.200547656829164
 delta_qm =   0.364120E-03 delta_en =   0.229105E+00 tol =   0.100000E-03
 Iteration #         14
  pAp =  0.005815621646933396  rzold =  0.0011166194239077601  alpha =  0.19200345065373342
 delta_qm =   0.434662E-03 delta_en =   0.326473E+00 tol =   0.100000E-03
 Iteration #         15
  pAp =  0.003541803870954152  rzold =  0.0007121046441739064  alpha =  0.2010570517508829
 delta_qm =   0.283372E-03 delta_en =   0.138758E+00 tol =   0.100000E-03
 Iteration #         16
  pAp =  0.0025951112735471747  rzold =  0.0004996896328223825  alpha =  0.19255036880918508
 delta_qm =   0.330251E-03 delta_en =   0.188466E+00 tol =   0.100000E-03
 Iteration #         17
  pAp =  0.0016005083676638966  rzold =  0.00032289305306114807  alpha =  0.20174405806602752
 delta_qm =   0.223502E-03 delta_en =   0.863190E-01 tol =   0.100000E-03
 Iteration #         18
  pAp =  0.0011902677492357525  rzold =  0.00023002997370309344  alpha =  0.19325901575573326
 delta_qm =   0.254196E-03 delta_en =   0.111656E+00 tol =   0.100000E-03
 Iteration #         19
  pAp =  0.0007459203761991371  rzold =  0.0001511261748112126  alpha =  0.2026036285283976
 delta_qm =   0.177591E-03 delta_en =   0.544988E-01 tol =   0.100000E-03
 Iteration #         20
  pAp =  0.00056503283257111  rzold =  0.00010968095805712301  alpha =  0.19411430935443835
 delta_qm =   0.197587E-03 delta_en =   0.674622E-01 tol =   0.100000E-03
 Iteration #         21
  pAp =  0.00036096053280601433  rzold =  0.00007349254916878282  alpha =  0.20360272796992693
 delta_qm =   0.141593E-03 delta_en =   0.346440E-01 tol =   0.100000E-03
 Iteration #         22
  pAp =  0.00027932177339762184  rzold =  0.00005448680806714895  alpha =  0.19506824478586404
 delta_qm =   0.154691E-03 delta_en =   0.413500E-01 tol =   0.100000E-03
 Iteration #         23
  pAp =  0.00018229522527389843  rzold =  0.00003731038787450449  alpha =  0.20467013230020512
 delta_qm =   0.113004E-03 delta_en =   0.220666E-01 tol =   0.100000E-03
 Iteration #         24
  pAp =  0.00014431279320580552  rzold =  0.000028291346161629327  alpha =  0.19604184447655193
 delta_qm =   0.121727E-03 delta_en =   0.256045E-01 tol =   0.100000E-03
 Iteration #         25
  pAp =  0.0000962596012243549  rzold =  0.000019801648792430766  alpha =  0.20571089575032123
 delta_qm =   0.901642E-04 delta_en =   0.140479E-01 tol =   0.100000E-03
 Iteration #         26
  pAp =  0.00007791179365258241  rzold =  0.000015344585836001818  alpha =  0.1969481784031963
 delta_qm =   0.961265E-04 delta_en =   0.159672E-01 tol =   0.100000E-03
 Iteration #         27
  pAp =  0.000053033688451438604  rzold =  0.000010958777319031947  alpha =  0.20663803780245416
 delta_qm =   0.718864E-04 delta_en =   0.892971E-02 tol =   0.100000E-03
 Iteration #         28
  pAp =  0.00004378070280475296  rzold =  0.000008656408808490103  alpha =  0.19772201572676304
 delta_qm =   0.760955E-04 delta_en =   0.100060E-01 tol =   0.100000E-03
 Iteration #         29
  pAp =  0.000030321322607942276  rzold =  0.000006288639329597773  alpha =  0.2073999017427606
 delta_qm =   0.572688E-04 delta_en =   0.566736E-02 tol =   0.100000E-03
 Iteration #         30
  pAp =  0.000025439988968428775  rzold =  0.000005045665002549508  alpha =  0.1983359744696123
 delta_qm =   0.603414E-04 delta_en =   0.629180E-02 tol =   0.100000E-03
 Iteration #         31
  pAp =  0.000017862462086520075  rzold =  0.0000037151511758818283  alpha =  0.20798651148351327
 delta_qm =   0.455963E-04 delta_en =   0.359255E-02 tol =   0.100000E-03
 Iteration #         32
  pAp =  0.000015174822175916525  rzold =  0.0000030167028133785668  alpha =  0.19879658413172574
 delta_qm =   0.479082E-04 delta_en =   0.396610E-02 tol =   0.100000E-03
 Iteration #         33
  pAp =  0.000010764992896327958  rzold =  0.000002243613905586716  alpha =  0.20841759276515956
 delta_qm =   0.362901E-04 delta_en =   0.227573E-02 tol =   0.100000E-03
 Iteration #         34
  pAp =  0.000009229304938909467  rzold =  0.000001837827189036372  alpha =  0.19912953371909387
 delta_qm =   0.380731E-04 delta_en =   0.250484E-02 tol =   0.100000E-03
 Iteration #         35
  pAp =  0.000006596023614926979  rzold =  0.0000013767592470781834  alpha =  0.20872563948414924
 delta_qm =   0.288803E-04 delta_en =   0.144127E-02 tol =   0.100000E-03
 Iteration #         36
  pAp =  0.000005692083396023091  rzold =  0.00000113480623455538  alpha =  0.1993657077034815
 delta_qm =   0.302808E-04 delta_en =   0.158445E-02 tol =   0.100000E-03
 Iteration #         37
  pAp =  0.000004089457261672062  rzold =  8.544657514939125E-7  alpha =  0.20894355823260174
 delta_qm =   0.229855E-04 delta_en =   0.912961E-03 tol =   0.100000E-03
 Iteration #         38
  pAp =  0.0000035453099114526877  rzold =  7.074063209943032E-7  alpha =  0.19953299955784234
 delta_qm =   0.240999E-04 delta_en =   0.100363E-02 tol =   0.100000E-03
 Iteration #         39
  pAp =  0.0000025565805374543555  rzold =  5.34577925900376E-7  alpha =  0.2090988013358919
 delta_qm =   0.182986E-04 delta_en =   0.578599E-03 tol =   0.100000E-03
 Iteration #         40
  pAp =  0.000002223654427174281  rzold =  4.4395999872039915E-7  alpha =  0.19965332440821904
 delta_qm =   0.191931E-04 delta_en =   0.636549E-03 tol =   0.100000E-03
 Iteration #         41
  pAp =  0.0000016077787655420986  rzold =  3.3636660205429163E-7  alpha =  0.20921199437590415
 delta_qm =   0.145728E-04 delta_en =   0.366968E-03 tol =   0.100000E-03
 Iteration #         42
  pAp =  0.0000014017290056985834  rzold =  2.7998496148646727E-7  alpha =  0.19974257531107478
 delta_qm =   0.152948E-04 delta_en =   0.404232E-03 tol =   0.100000E-03
 Iteration #         43
  pAp =  0.000001015486675971399  rzold =  2.125390195480673E-7  alpha =  0.20929769397984047
 delta_qm =   0.116110E-04 delta_en =   0.232960E-03 tol =   0.100000E-03
 Iteration #         44
  pAp =  8.869258060988438E-7  rzold =  1.772181746340367E-7  alpha =  0.1998117242901449
 delta_qm =   0.121959E-04 delta_en =   0.257022E-03 tol =   0.100000E-03
 Iteration #         45
  pAp =  6.435062968966457E-7  rzold =  1.3472819584600812E-7  alpha =  0.20936577698733377
 delta_qm =   0.925613E-05 delta_en =   0.148048E-03 tol =   0.100000E-03
 Iteration #         46
  pAp =  5.628307906377083E-7  rzold =  1.1249192621155771E-7  alpha =  0.19986810971038058
 delta_qm =   0.973095E-05 delta_en =   0.163627E-03 tol =   0.100000E-03
 Iteration #         47
  pAp =  4.08859624943402E-7  rzold =  8.56245163681528E-8  alpha =  0.20942277286490618
 delta_qm =   0.738324E-05 delta_en =   0.941971E-04 tol =   0.100000E-03
 Charges are converged, exit!

%%%% ELECTRONS %%%%%%%%%%%%%%%%%%%%%%%%%%%%%%%%%%%%%%%%%%%%%%%%%%%%%%%%%%%%%%%%%
 number of electrons        =         24
 total electronic charge    =     24.0000000
 number of spin components  =  1

%%%% BOUNDARY %%%%%%%%%%%%%%%%%%%%%%%%%%%%%%%%%%%%%%%%%%%%%%%%%%%%%%%%%%%%%%%%%%
 boundary mode              = electronic           
 boundary is built as a function of a smooth density
 function type              =  2 
 using the modified SCCS function with parameters 
 rhomax                     =      0.0050000 
 rhomin                     =      0.0001000 

%%%% DIELECTRIC %%%%%%%%%%%%%%%%%%%%%%%%%%%%%%%%%%%%%%%%%%%%%%%%%%%%%%%%%%%%%%%%%
 dielectric build on homogeneous background
 environment bulk permitt.  =    100.0000000 
 dielectric flags
 need gradient              =  F 
 need factor depend. sqrt   =  T 
 need gradient of logarithm =  T 

%%%% COMPUTE ELECTROSTATIC POTENTIAL %%%%%%%%%%%%%%%%%%%%%%%%%%%%%%%%%%%%%%%%%%%
 Warning: bad guess with residual norm =   0.162248E+04, reset to no guess
 Iteration #          1
  pAp =  95.95491978337607  rzold =  93.38761811461954  alpha =  0.9732447103853313
 delta_qm =   0.225245E-01 delta_en =   0.876706E+03 tol =   0.100000E-03
 Iteration #          2
  pAp =  216.5302048805459  rzold =  21.42286473995615  alpha =  0.09893707324469853
 delta_qm =   0.444864E-02 delta_en =   0.341978E+02 tol =   0.100000E-03
 Iteration #          3
  pAp =  1.244036538135966  rzold =  0.2639030787031  alpha =  0.2121345078003303
 delta_qm =   0.216503E-02 delta_en =   0.809972E+01 tol =   0.100000E-03
 Iteration #          4
  pAp =  0.4165180508415035  rzold =  0.07849505671949358  alpha =  0.18845535400184396
 delta_qm =   0.236535E-02 delta_en =   0.966792E+01 tol =   0.100000E-03
 Iteration #          5
  pAp =  0.2953474096295055  rzold =  0.05089900894887138  alpha =  0.17233606014259933
 delta_qm =   0.133009E-02 delta_en =   0.305705E+01 tol =   0.100000E-03
 Iteration #          6
  pAp =  0.1733591064042191  rzold =  0.03169932258301795  alpha =  0.18285351857493465
 delta_qm =   0.166578E-02 delta_en =   0.479488E+01 tol =   0.100000E-03
 Iteration #          7
  pAp =  0.13335191876106564  rzold =  0.02280656139837397  alpha =  0.1710253711402369
 delta_qm =   0.945713E-03 delta_en =   0.154548E+01 tol =   0.100000E-03
 Iteration #          8
  pAp =  0.07978308105184902  rzold =  0.014522968124106968  alpha =  0.1820306753341458
 delta_qm =   0.120917E-02 delta_en =   0.252649E+01 tol =   0.100000E-03
 Iteration #          9
  pAp =  0.06187431629576047  rzold =  0.010560106095066779  alpha =  0.17067026720084083
 delta_qm =   0.709003E-03 delta_en =   0.868639E+00 tol =   0.100000E-03
 Iteration #         10
  pAp =  0.037299578470172685  rzold =  0.006785350499359613  alpha =  0.18191493785340354
 delta_qm =   0.902393E-03 delta_en =   0.140713E+01 tol =   0.100000E-03
 Iteration #         11
  pAp =  0.029127567855045833  rzold =  0.004973293384468458  alpha =  0.17074180066177147
 delta_qm =   0.552847E-03 delta_en =   0.528146E+00 tol =   0.100000E-03
 Iteration #         12
  pAp =  0.017689936629055627  rzold =  0.0032220065398696073  alpha =  0.1821378226181703
 delta_qm =   0.690492E-03 delta_en =   0.823874E+00 tol =   0.100000E-03
 Iteration #         13
  pAp =  0.013931218596644451  rzold =  0.002382738892487721  alpha =  0.1710359273998931
 delta_qm =   0.443588E-03 delta_en =   0.340020E+00 tol =   0.100000E-03
 Iteration #         14
  pAp =  0.008539100285706583  rzold =  0.001558972737029494  alpha =  0.18256873498008042
 delta_qm =   0.539880E-03 delta_en =   0.503661E+00 tol =   0.100000E-03
 Iteration #         15
  pAp =  0.006799728430972426  rzold =  0.00116612034599074  alpha =  0.17149513511144351
 delta_qm =   0.362969E-03 delta_en =   0.227658E+00 tol =   0.100000E-03
 Iteration #         16
  pAp =  0.004218359751239665  rzold =  0.0007727190314038368  alpha =  0.18317997443834777
 delta_qm =   0.429705E-03 delta_en =   0.319068E+00 tol =   0.100000E-03
 Iteration #         17
  pAp =  0.0034082824347473964  rzold =  0.0005866013245202033  alpha =  0.17211053829923548
 delta_qm =   0.300707E-03 delta_en =   0.156254E+00 tol =   0.100000E-03
 Iteration #         18
  pAp =  0.0021474018824531454  rzold =  0.00039504766811951055  alpha =  0.18396541017660684
 delta_qm =   0.346863E-03 delta_en =   0.207902E+00 tol =   0.100000E-03
 Iteration #         19
  pAp =  0.0017670926485555702  rzold =  0.0003054790049985404  alpha =  0.1728709613772885
 delta_qm =   0.250894E-03 delta_en =   0.108774E+00 tol =   0.100000E-03
 Iteration #         20
  pAp =  0.0011346487309159172  rzold =  0.0002097954362403661  alpha =  0.1848990181049371
 delta_qm =   0.283008E-03 delta_en =   0.138401E+00 tol =   0.100000E-03
 Iteration #         21
  pAp =  0.0009541352678365187  rzold =  0.00016576910831673546  alpha =  0.1737375337698326
 delta_qm =   0.210064E-03 delta_en =   0.762511E-01 tol =   0.100000E-03
 Iteration #         22
  pAp =  0.0006259760796946321  rzold =  0.00011637996634117577  alpha =  0.18591759352521753
 delta_qm =   0.232733E-03 delta_en =   0.935961E-01 tol =   0.100000E-03
 Iteration #         23
  pAp =  0.0005389453541101654  rzold =  0.00009412116639453017  alpha =  0.17463953567227694
 delta_qm =   0.176105E-03 delta_en =   0.535907E-01 tol =   0.100000E-03
 Iteration #         24
  pAp =  0.00036158602322006503  rzold =  0.00006759093872255219  alpha =  0.186929069106788
 delta_qm =   0.192464E-03 delta_en =   0.640093E-01 tol =   0.100000E-03
 Iteration #         25
  pAp =  0.00031868095231099385  rzold =  0.00005592616938760431  alpha =  0.17549266431533433
 delta_qm =   0.147654E-03 delta_en =   0.376732E-01 tol =   0.100000E-03
 Iteration #         26
  pAp =  0.0002183795545792166  rzold =  0.0000410209130676853  alpha =  0.187842278306347
 delta_qm =   0.159783E-03 delta_en =   0.441166E-01 tol =   0.100000E-03
 Iteration #         27
  pAp =  0.0001965718068408944  rzold =  0.00003464153084637882  alpha =  0.1762283788458929
 delta_qm =   0.123751E-03 delta_en =   0.264630E-01 tol =   0.100000E-03
 Iteration #         28
  pAp =  0.00013718265999133517  rzold =  0.000025872325663390944  alpha =  0.18859763810546545
 delta_qm =   0.133001E-03 delta_en =   0.305671E-01 tol =   0.100000E-03
 Iteration #         29
  pAp =  0.0001256565634051658  rzold =  0.000022217774456713922  alpha =  0.17681348156144577
 delta_qm =   0.103665E-03 delta_en =   0.185698E-01 tol =   0.100000E-03
 Iteration #         30
  pAp =  0.00008897371924552573  rzold =  0.000016831888989837716  alpha =  0.18917821051618172
 delta_qm =   0.110905E-03 delta_en =   0.212544E-01 tol =   0.100000E-03
 Iteration #         31
  pAp =  0.00008259779778054944  rzold =  0.000014640421937931543  alpha =  0.17724954334532084
 delta_qm =   0.868017E-04 delta_en =   0.130197E-01 tol =   0.100000E-03
 Iteration #         32
  pAp =  0.00005912044033834492  rzold =  0.000011209231356433071  alpha =  0.1895999301135597
 delta_qm =   0.925912E-04 delta_en =   0.148144E-01 tol =   0.100000E-03
 Iteration #         33
  pAp =  0.00005542050912014061  rzold =  0.000009840427318730023  alpha =  0.17755930926938868
 delta_qm =   0.726593E-04 delta_en =   0.912276E-02 tol =   0.100000E-03
 Iteration #         34
  pAp =  0.000039973467109486  rzold =  0.000007590730802033361  alpha =  0.189894231121924
 delta_qm =   0.773644E-04 delta_en =   0.103425E-01 tol =   0.100000E-03
 Iteration #         35
  pAp =  0.000037727003487788095  rzold =  0.000006706816812606377  alpha =  0.17777231671148533
 delta_qm =   0.608102E-04 delta_en =   0.638993E-02 tol =   0.100000E-03
 Iteration #         36
  pAp =  0.000027355434563809337  rzold =  0.000005200114440435381  alpha =  0.1900943824637691
 delta_qm =   0.646788E-04 delta_en =   0.722882E-02 tol =   0.100000E-03
 Iteration #         37
  pAp =  0.00002593745590719914  rzold =  0.0000046146873685380175  alpha =  0.17791596003281013
 delta_qm =   0.508895E-04 delta_en =   0.447507E-02 tol =   0.100000E-03
 Iteration #         38
  pAp =  0.000018873903213853583  rzold =  0.000003590356648713862  alpha =  0.19022862457398393
 delta_qm =   0.540958E-04 delta_en =   0.505674E-02 tol =   0.100000E-03
 Iteration #         39
  pAp =  0.000017950964217858236  rzold =  0.0000031954869811675065  alpha =  0.17801199659172215
 delta_qm =   0.425873E-04 delta_en =   0.313404E-02 tol =   0.100000E-03
 Iteration #         40
  pAp =  0.00001309340424939158  rzold =  0.0000024919147635949162  alpha =  0.19031832487037964
 delta_qm =   0.452589E-04 delta_en =   0.353957E-02 tol =   0.100000E-03
 Iteration #         41
  pAp =  0.000012478843166493925  rzold =  0.0000022221858439669128  alpha =  0.17807626991687414
 delta_qm =   0.356416E-04 delta_en =   0.219512E-02 tol =   0.100000E-03
 Iteration #         42
  pAp =  0.00000911648884060723  rzold =  0.0000017355843943940673  alpha =  0.19037860131669548
 delta_qm =   0.378753E-04 delta_en =   0.247888E-02 tol =   0.100000E-03
 Iteration #         43
  pAp =  0.00000870061722375621  rzold =  0.0000015497516140060912  alpha =  0.17811973267536024
 delta_qm =   0.298315E-04 delta_en =   0.153778E-02 tol =   0.100000E-03
 Iteration #         44
  pAp =  0.000006363086077032929  rzold =  0.0000012116570830481261  alpha =  0.19041972218818623
 delta_qm =   0.317033E-04 delta_en =   0.173681E-02 tol =   0.100000E-03
 Iteration #         45
  pAp =  0.0000060785353217001846  rzold =  0.0000010828893545071595  alpha =  0.17814971817985126
 delta_qm =   0.249715E-04 delta_en =   0.107754E-02 tol =   0.100000E-03
 Iteration #         46
  pAp =  0.000004448730199357717  rzold =  8.472539389097804E-7  alpha =  0.1904484877577207
 delta_qm =   0.265422E-04 delta_en =   0.121736E-02 tol =   0.100000E-03
 Iteration #         47
  pAp =  0.000004252575787664633  rzold =  7.576858506441872E-7  alpha =  0.17817103997111405
 delta_qm =   0.209061E-04 delta_en =   0.755251E-03 tol =   0.100000E-03
 Iteration #         48
  pAp =  0.0000031139764448598827  rzold =  5.931170119880641E-7  alpha =  0.19046933157349305
 delta_qm =   0.222254E-04 delta_en =   0.853578E-03 tol =   0.100000E-03
 Iteration #         49
  pAp =  0.000002978082794977042  rzold =  5.30655100520307E-7  alpha =  0.17818681918962492
 delta_qm =   0.175052E-04 delta_en =   0.529517E-03 tol =   0.100000E-03
 Iteration #         50
  pAp =  0.0000021815567311927625  rzold =  4.1555408837583915E-7  alpha =  0.19048511662982776
 delta_qm =   0.186139E-04 delta_en =   0.598715E-03 tol =   0.100000E-03
 Iteration #         51
  pAp =  0.0000020870973362232507  rzold =  3.719187934729094E-7  alpha =  0.17819906480544054
 delta_qm =   0.146599E-04 delta_en =   0.371368E-03 tol =   0.100000E-03
 Iteration #         52
  pAp =  0.00000152932890122568  rzold =  2.913336098801756E-7  alpha =  0.19049768146452106
 delta_qm =   0.155919E-04 delta_en =   0.420091E-03 tol =   0.100000E-03
 Iteration #         53
  pAp =  0.0000014635230191858185  rzold =  2.6081306842407046E-7  alpha =  0.1782090647054974
 delta_qm =   0.122790E-04 delta_en =   0.260538E-03 tol =   0.100000E-03
 Iteration #         54
  pAp =  0.0000010726598401864067  rzold =  2.0435049907827242E-7  alpha =  0.19050820346062403
 delta_qm =   0.130627E-04 delta_en =   0.294857E-03 tol =   0.100000E-03
 Iteration #         55
  pAp =  0.0000010267451705723874  rzold =  1.8298410442134285E-7  alpha =  0.17821764315612346
 delta_qm =   0.102865E-04 delta_en =   0.182844E-03 tol =   0.100000E-03
 Iteration #         56
  pAp =  7.52686441390821E-7  rzold =  1.4339989101734567E-7  alpha =  0.19051743612170033
 delta_qm =   0.109456E-04 delta_en =   0.207025E-03 tol =   0.100000E-03
 Iteration #         57
  pAp =  7.206158150387246E-7  rzold =  1.2843198990428346E-7  alpha =  0.1782253278709707
 delta_qm =   0.861882E-05 delta_en =   0.128363E-03 tol =   0.100000E-03
 Iteration #         58
  pAp =  5.28365603380433E-7  rzold =  1.0066731218423045E-7  alpha =  0.19052586228204585
 delta_qm =   0.917309E-05 delta_en =   0.145404E-03 tol =   0.100000E-03
 Iteration #         59
  pAp =  5.059471786107073E-7  rzold =  9.017620898523889E-8  alpha =  0.17823245745308028
 delta_qm =   0.722272E-05 delta_en =   0.901458E-04 tol =   0.100000E-03
 Charges are converged, exit!

%%%% ELECTRONS %%%%%%%%%%%%%%%%%%%%%%%%%%%%%%%%%%%%%%%%%%%%%%%%%%%%%%%%%%%%%%%%%
 number of electrons        =         24
 total electronic charge    =     24.0000000
 number of spin components  =  1

%%%% BOUNDARY %%%%%%%%%%%%%%%%%%%%%%%%%%%%%%%%%%%%%%%%%%%%%%%%%%%%%%%%%%%%%%%%%%
 boundary mode              = electronic           
 boundary is built as a function of a smooth density
 function type              =  2 
 using the modified SCCS function with parameters 
 rhomax                     =      0.0050000 
 rhomin                     =      0.0001000 

%%%% DIELECTRIC %%%%%%%%%%%%%%%%%%%%%%%%%%%%%%%%%%%%%%%%%%%%%%%%%%%%%%%%%%%%%%%%%
 dielectric build on homogeneous background
 environment bulk permitt.  =    100.0000000 
 dielectric flags
 need gradient              =  F 
 need factor depend. sqrt   =  T 
 need gradient of logarithm =  T 

%%%% COMPUTE ELECTROSTATIC POTENTIAL %%%%%%%%%%%%%%%%%%%%%%%%%%%%%%%%%%%%%%%%%%%
 Warning: bad guess with residual norm =   0.254056E+04, reset to no guess
 Iteration #          1
  pAp =  95.86922058058192  rzold =  93.27406403891966  alpha =  0.9729302426164931
 delta_qm =   0.276975E-01 delta_en =   0.132564E+04 tol =   0.100000E-03
 Iteration #          2
  pAp =  257.4051179656438  rzold =  23.529639641553132  alpha =  0.0914109238678528
 delta_qm =   0.522816E-02 delta_en =   0.472326E+02 tol =   0.100000E-03
 Iteration #          3
  pAp =  1.7483108630350337  rzold =  0.32890125001008536  alpha =  0.18812515380652567
 delta_qm =   0.235803E-02 delta_en =   0.960817E+01 tol =   0.100000E-03
 Iteration #          4
  pAp =  0.5176894777783188  rzold =  0.08894539844934156  alpha =  0.1718122586363038
 delta_qm =   0.276255E-02 delta_en =   0.131876E+02 tol =   0.100000E-03
 Iteration #          5
  pAp =  0.36452402552580504  rzold =  0.058320212644276344  alpha =  0.15999003785869195
 delta_qm =   0.149004E-02 delta_en =   0.383654E+01 tol =   0.100000E-03
 Iteration #          6
  pAp =  0.22486608066731298  rzold =  0.037790781304452375  alpha =  0.16805905627164572
 delta_qm =   0.200053E-02 delta_en =   0.691570E+01 tol =   0.100000E-03
 Iteration #          7
  pAp =  0.1740701238384163  rzold =  0.027688006438286297  alpha =  0.15906236996756654
 delta_qm =   0.110025E-02 delta_en =   0.209183E+01 tol =   0.100000E-03
 Iteration #          8
  pAp =  0.1096584955684321  rzold =  0.018368086532564526  alpha =  0.1675026311217444
 delta_qm =   0.149131E-02 delta_en =   0.384306E+01 tol =   0.100000E-03
 Iteration #          9
  pAp =  0.0856402988388653  rzold =  0.013603284261670952  alpha =  0.15884209240402028
 delta_qm =   0.856524E-03 delta_en =   0.126772E+01 tol =   0.100000E-03
 Iteration #         10
  pAp =  0.05432914285182107  rzold =  0.009098297478800196  alpha =  0.16746624373616872
 delta_qm =   0.114311E-02 delta_en =   0.225796E+01 tol =   0.100000E-03
 Iteration #         11
  pAp =  0.04269401901358842  rzold =  0.006785539106255682  alpha =  0.15893418476475635
 delta_qm =   0.692272E-03 delta_en =   0.828129E+00 tol =   0.100000E-03
 Iteration #         12
  pAp =  0.027259320856641216  rzold =  0.004570499423704874  alpha =  0.16766739889601315
 delta_qm =   0.898516E-03 delta_en =   0.139507E+01 tol =   0.100000E-03
 Iteration #         13
  pAp =  0.021577080990744194  rzold =  0.003434776359388547  alpha =  0.15918633112893932
 delta_qm =   0.574699E-03 delta_en =   0.570722E+00 tol =   0.100000E-03
 Iteration #         14
  pAp =  0.01388586296090095  rzold =  0.002333089751435678  alpha =  0.1680190678825698
 delta_qm =   0.721792E-03 delta_en =   0.900261E+00 tol =   0.100000E-03
 Iteration #         15
  pAp =  0.011095956026330449  rzold =  0.0017705391647401328  alpha =  0.15956616631669088
 delta_qm =   0.485859E-03 delta_en =   0.407910E+00 tol =   0.100000E-03
 Iteration #         16
  pAp =  0.00721554898335271  rzold =  0.0012159213801147212  alpha =  0.16851404971680237
 delta_qm =   0.590377E-03 delta_en =   0.602285E+00 tol =   0.100000E-03
 Iteration #         17
  pAp =  0.005838762346226054  rzold =  0.0009346658396934625  alpha =  0.16007944565471033
 delta_qm =   0.415502E-03 delta_en =   0.298325E+00 tol =   0.100000E-03
 Iteration #         18
  pAp =  0.0038491204257908446  rzold =  0.0006511257584795937  alpha =  0.16916222057298005
 delta_qm =   0.489883E-03 delta_en =   0.414695E+00 tol =   0.100000E-03
 Iteration #         19
  pAp =  0.003165651879727948  rzold =  0.0005088185414735137  alpha =  0.1607310471286694
 delta_qm =   0.357681E-03 delta_en =   0.221072E+00 tol =   0.100000E-03
 Iteration #         20
  pAp =  0.0021231756554999726  rzold =  0.00036085240244384875  alpha =  0.16995880746328262
 delta_qm =   0.411032E-03 delta_en =   0.291941E+00 tol =   0.100000E-03
 Iteration #         21
  pAp =  0.0017812263984444128  rzold =  0.0002876735199660333  alpha =  0.16150306340466625
 delta_qm =   0.308913E-03 delta_en =   0.164898E+00 tol =   0.100000E-03
 Iteration #         22
  pAp =  0.001219242092688784  rzold =  0.00020832733240003492  alpha =  0.17086625670920896
 delta_qm =   0.347752E-03 delta_en =   0.208969E+00 tol =   0.100000E-03
 Iteration #         23
  pAp =  0.0010462667006342719  rzold =  0.0001698562760590665  alpha =  0.16234510374467195
 delta_qm =   0.267116E-03 delta_en =   0.123294E+00 tol =   0.100000E-03
 Iteration #         24
  pAp =  0.0007322480591816243  rzold =  0.00012580939908788817  alpha =  0.1718125401772937
 delta_qm =   0.296003E-03 delta_en =   0.151403E+00 tol =   0.100000E-03
 Iteration #         25
  pAp =  0.0006433427507593107  rzold =  0.00010498222215691162  alpha =  0.16318241253671617
 delta_qm =   0.230990E-03 delta_en =   0.922002E-01 tol =   0.100000E-03
 Iteration #         26
  pAp =  0.0004603057670031462  rzold =  0.0000794996286895605  alpha =  0.17271047722723212
 delta_qm =   0.253044E-03 delta_en =   0.110646E+00 tol =   0.100000E-03
 Iteration #         27
  pAp =  0.00041355559000687476  rzold =  0.00006779844127653803  alpha =  0.1639403333307887
 delta_qm =   0.199666E-03 delta_en =   0.688891E-01 tol =   0.100000E-03
 Iteration #         28
  pAp =  0.0003018665102554889  rzold =  0.00005237025661542232  alpha =  0.17348813080026013
 delta_qm =   0.216973E-03 delta_en =   0.813497E-01 tol =   0.100000E-03
 Iteration #         29
  pAp =  0.00027650406063830775  rzold =  0.000045504117366600044  alpha =  0.16456943620124095
 delta_qm =   0.172495E-03 delta_en =   0.514159E-01 tol =   0.100000E-03
 Iteration #         30
  pAp =  0.0002052026073663906  rzold =  0.000035727737984631506  alpha =  0.17410957123385568
 delta_qm =   0.186432E-03 delta_en =   0.600597E-01 tol =   0.100000E-03
 Iteration #         31
  pAp =  0.00019088775709245662  rzold =  0.000031506965580209735  alpha =  0.1650549310239384
 delta_qm =   0.148952E-03 delta_en =   0.383387E-01 tol =   0.100000E-03
 Iteration #         32
  pAp =  0.0001434875814983401  rzold =  0.000025049351260146953  alpha =  0.1745750468338386
 delta_qm =   0.160420E-03 delta_en =   0.444691E-01 tol =   0.100000E-03
 Iteration #         33
  pAp =  0.00013503054056944672  rzold =  0.00002233528305367615  alpha =  0.16540912122164708
 delta_qm =   0.128581E-03 delta_en =   0.285691E-01 tol =   0.100000E-03
 Iteration #         34
  pAp =  0.00010245169939593991  rzold =  0.000017919556707439685  alpha =  0.17490736428086837
 delta_qm =   0.138175E-03 delta_en =   0.329914E-01 tol =   0.100000E-03
 Iteration #         35
  pAp =  0.0000972121769375354  rzold =  0.000016103915810578206  alpha =  0.16565739311574032
 delta_qm =   0.110975E-03 delta_en =   0.212811E-01 tol =   0.100000E-03
 Iteration #         36
  pAp =  0.00007424135515499924  rzold =  0.000013002407304777366  alpha =  0.17513698770222158
 delta_qm =   0.119099E-03 delta_en =   0.245110E-01 tol =   0.100000E-03
 Iteration #         37
  pAp =  0.00007084711073396778  rzold =  0.000011748362403468356  alpha =  0.16582697984090947
 delta_qm =   0.957736E-04 delta_en =   0.158502E-01 tol =   0.100000E-03
 Iteration #         38
  pAp =  0.000054348131692234966  rzold =  0.000009526822341034279  alpha =  0.17529254538101136
 delta_qm =   0.102710E-03 delta_en =   0.182293E-01 tol =   0.100000E-03
 Iteration #         39
  pAp =  0.00005206381619780338  rzold =  0.000008639531757982392  alpha =  0.1659411927308337
 delta_qm =   0.826558E-04 delta_en =   0.118057E-01 tol =   0.100000E-03
 Iteration #         40
  pAp =  0.00004005916818306294  rzold =  0.00000702625689421396  alpha =  0.17539697434817605
 delta_qm =   0.886115E-04 delta_en =   0.135683E-01 tol =   0.100000E-03
 Iteration #         41
  pAp =  0.00003847481942327825  rzold =  0.000006387504152913774  alpha =  0.16601778120495012
 delta_qm =   0.713402E-04 delta_en =   0.879452E-02 tol =   0.100000E-03
 Iteration #         42
  pAp =  0.000029663023970011855  rzold =  0.000005204884420373008  alpha =  0.1754670874296208
 delta_qm =   0.764721E-04 delta_en =   0.101053E-01 tol =   0.100000E-03
 Iteration #         43
  pAp =  0.00002853928509586022  rzold =  0.000004739501036381381  alpha =  0.16606936790679705
 delta_qm =   0.615807E-04 delta_en =   0.655289E-02 tol =   0.100000E-03
 Iteration #         44
  pAp =  0.000022032754267573237  rzold =  0.000003867069367704869  alpha =  0.1755145689341363
 delta_qm =   0.660130E-04 delta_en =   0.753013E-02 tol =   0.100000E-03
 Iteration #         45
  pAp =  0.00002122292940935893  rzold =  0.000003525225430417754  alpha =  0.16610456372074597
 delta_qm =   0.531636E-04 delta_en =   0.488396E-02 tol =   0.100000E-03
 Iteration #         46
  pAp =  0.00001639949340811306  rzold =  0.0000028788864101313673  alpha =  0.17554727688765934
 delta_qm =   0.569971E-04 delta_en =   0.561370E-02 tol =   0.100000E-03
 Iteration #         47
  pAp =  0.000015809441634156522  rzold =  0.000002626408204056929  alpha =  0.16612909328704797
 delta_qm =   0.459039E-04 delta_en =   0.364118E-02 tol =   0.100000E-03
 Iteration #         48
  pAp =  0.000012224161836953285  rzold =  0.00000214620085383173  alpha =  0.17557038940239056
 delta_qm =   0.492224E-04 delta_en =   0.418668E-02 tol =   0.100000E-03
 Iteration #         49
  pAp =  0.000011791018546984984  rzold =  0.000001959038845349393  alpha =  0.16614670204639176
 delta_qm =   0.396418E-04 delta_en =   0.271550E-02 tol =   0.100000E-03
 Iteration #         50
  pAp =  0.000009121205771875655  rzold =  0.000001601567675388461  alpha =  0.17558727600760177
 delta_qm =   0.425161E-04 delta_en =   0.312356E-02 tol =   0.100000E-03
 Iteration #         51
  pAp =  0.000008801638927534231  rzold =  0.0000014624787112348934  alpha =  0.1661598167427444
 delta_qm =   0.342394E-04 delta_en =   0.202580E-02 tol =   0.100000E-03
 Iteration #         52
  pAp =  0.000006811010215733575  rzold =  0.0000011960141631609823  alpha =  0.17560011294626526
 delta_qm =   0.367297E-04 delta_en =   0.233120E-02 tol =   0.100000E-03
 Iteration #         53
  pAp =  0.000006574432921767892  rzold =  0.0000010924735246023849  alpha =  0.166170000911442
 delta_qm =   0.295781E-04 delta_en =   0.151176E-02 tol =   0.100000E-03
 Iteration #         54
  pAp =  0.0000050888529395324756  rzold =  8.936549917346307E-7  alpha =  0.17561030007220702
 delta_qm =   0.317360E-04 delta_en =   0.174039E-02 tol =   0.100000E-03
 Iteration #         55
  pAp =  0.000004913304117153835  rzold =  8.164843251782779E-7  alpha =  0.16617825921413729
 delta_qm =   0.255554E-04 delta_en =   0.112852E-02 tol =   0.100000E-03
 Iteration #         56
  pAp =  0.00000380388100192235  rzold =  6.680327752216199E-7  alpha =  0.17561873646520992
 delta_qm =   0.274254E-04 delta_en =   0.129972E-02 tol =   0.100000E-03
 Iteration #         57
  pAp =  0.0000036734052945180206  rzold =  6.104657292110466E-7  alpha =  0.16618523693044998
 delta_qm =   0.220833E-04 delta_en =   0.842695E-03 tol =   0.100000E-03
 Iteration #         58
  pAp =  0.0000028444560620686902  rzold =  4.995604401294934E-7  alpha =  0.1756259999200612
 delta_qm =   0.237039E-04 delta_en =   0.970919E-03 tol =   0.100000E-03
 Iteration #         59
  pAp =  0.000002747367538250623  rzold =  4.565887178896101E-7  alpha =  0.16619134918524278
 delta_qm =   0.190858E-04 delta_en =   0.629457E-03 tol =   0.100000E-03
 Iteration #         60
  pAp =  0.000002127719755317036  rzold =  3.7369666065201216E-7  alpha =  0.17563246274241145
 delta_qm =   0.204903E-04 delta_en =   0.725503E-03 tol =   0.100000E-03
 Iteration #         61
  pAp =  0.0000020554125526266033  rzold =  3.416031205566658E-7  alpha =  0.16619686404081388
 delta_qm =   0.164977E-04 delta_en =   0.470318E-03 tol =   0.100000E-03
 Iteration #         62
  pAp =  0.00000159205176753476  rzold =  2.796253710572696E-7  alpha =  0.1756383660125954
 delta_qm =   0.177148E-04 delta_en =   0.542271E-03 tol =   0.100000E-03
 Iteration #         63
  pAp =  0.000001538164707738054  rzold =  2.5564598257633315E-7  alpha =  0.16620195567500246
 delta_qm =   0.142627E-04 delta_en =   0.351516E-03 tol =   0.100000E-03
 Iteration #         64
  pAp =  0.0000011915623260321801  rzold =  2.0929061476069013E-7  alpha =  0.17564386703766757
 delta_qm =   0.153173E-04 delta_en =   0.405425E-03 tol =   0.100000E-03
 Iteration #         65
  pAp =  0.0000011513814379450861  rzold =  1.913673533580595E-7  alpha =  0.16620673831567062
 delta_qm =   0.123322E-04 delta_en =   0.262798E-03 tol =   0.100000E-03
 Iteration #         66
  pAp =  8.920422187720166E-7  rzold =  1.5668638577338287E-7  alpha =  0.17564906960241974
 delta_qm =   0.132461E-04 delta_en =   0.303192E-03 tol =   0.100000E-03
 Iteration #         67
  pAp =  8.620679727668613E-7  rzold =  1.4328542797491858E-7  alpha =  0.1662112878582358
 delta_qm =   0.106644E-04 delta_en =   0.196526E-03 tol =   0.100000E-03
 Iteration #         68
  pAp =  6.67970600441477E-7  rzold =  1.1733173672674031E-7  alpha =  0.17565404323063483
 delta_qm =   0.114563E-04 delta_en =   0.226796E-03 tol =   0.100000E-03
 Iteration #         69
  pAp =  6.456017132163536E-7  rzold =  1.0730911203471609E-7  alpha =  0.166215655624747
 delta_qm =   0.922351E-05 delta_en =   0.147006E-03 tol =   0.100000E-03
 Iteration #         70
  pAp =  5.002972705317519E-7  rzold =  8.788163591663688E-8  alpha =  0.175658835442436
 delta_qm =   0.990967E-05 delta_en =   0.169692E-03 tol =   0.100000E-03
 Iteration #         71
  pAp =  4.835983110189251E-7  rzold =  8.038365183301294E-8  alpha =  0.16621987712001587
 delta_qm =   0.797833E-05 delta_en =   0.109994E-03 tol =   0.100000E-03
 Iteration #         72
  pAp =  3.7479537936151405E-7  rzold =  6.583786046007986E-8  alpha =  0.1756634795558006
 delta_qm =   0.857284E-05 delta_en =   0.126997E-03 tol =   0.100000E-03
 Iteration #         73
  pAp =  3.6232527639731743E-7  rzold =  6.022714862999919E-8  alpha =  0.1662239776061207
 delta_qm =   0.690214E-05 delta_en =   0.823212E-04 tol =   0.100000E-03
 Charges are converged, exit!

%%%% ELECTRONS %%%%%%%%%%%%%%%%%%%%%%%%%%%%%%%%%%%%%%%%%%%%%%%%%%%%%%%%%%%%%%%%%
 number of electrons        =         24
 total electronic charge    =     24.0000000
 number of spin components  =  1

%%%% BOUNDARY %%%%%%%%%%%%%%%%%%%%%%%%%%%%%%%%%%%%%%%%%%%%%%%%%%%%%%%%%%%%%%%%%%
 boundary mode              = electronic           
 boundary is built as a function of a smooth density
 function type              =  2 
 using the modified SCCS function with parameters 
 rhomax                     =      0.0050000 
 rhomin                     =      0.0001000 

%%%% DIELECTRIC %%%%%%%%%%%%%%%%%%%%%%%%%%%%%%%%%%%%%%%%%%%%%%%%%%%%%%%%%%%%%%%%%
 dielectric build on homogeneous background
 environment bulk permitt.  =    100.0000000 
 dielectric flags
 need gradient              =  F 
 need factor depend. sqrt   =  T 
 need gradient of logarithm =  T 
