
     Program PWSCF v.6.1 (svn rev. 13547M) starts on 26Jul2017 at 23:37:58 

     This program is part of the open-source Quantum ESPRESSO suite
     for quantum simulation of materials; please cite
         "P. Giannozzi et al., J. Phys.:Condens. Matter 21 395502 (2009);
          URL http://www.quantum-espresso.org", 
     in publications or presentations arising from this work. More details at
     http://www.quantum-espresso.org/quote

     Serial version
     Reading input from pw.in

     Current dimensions of program PWSCF are:
     Max number of different atomic species (ntypx) = 10
     Max number of k-points (npk) =  40000
     Max angular momentum in pseudopotentials (lmaxx) =  3
               file H.pbe-rrkjus.UPF: wavefunction(s)  1S renormalized
               file O.pbe-rrkjus.UPF: wavefunction(s)  2S renormalized

     gamma-point specific algorithms are used

     G-vector sticks info
     --------------------
     sticks:   dense  smooth     PW     G-vecs:    dense   smooth      PW
     Sum        9549    3809    949               701475   177509   22119



     bravais-lattice index     =            1
     lattice parameter (alat)  =      20.0000  a.u.
     unit-cell volume          =    8000.0000 (a.u.)^3
     number of atoms/cell      =            3
     number of atomic types    =            2
     number of electrons       =         8.00
     number of Kohn-Sham states=            4
     kinetic-energy cutoff     =      30.0000  Ry
     charge density cutoff     =     300.0000  Ry
     convergence threshold     =      5.0E-03
     mixing beta               =       0.7000
     number of iterations used =            8  plain     mixing
     Exchange-correlation      =  SLA  PW   PBE  PBE ( 1  4  3  4 0 0)


     Environ Module
     ==============

     Plese cite
         O. Andreussi, I. Dabo and N. Marzari, J. Chem. Phys. 136, 064102 (2012)         
     in publications or presentations arising from this work.

     compensation onset threshold      =               0.1000E+03 
     static permittivity               =                   100.00 
     epsilon calculation mode          =               electronic 

     Electrostatic Setup
     -------------------
     electrostatic problem to solve    = generalized              
     numerical solver adopted          = sd                       
     type of auxiliary density adopted = none                     
     type of core tool for poisson     = fft                      
     type of core tool for s(r) deriv  = analytic                 



     celldm(1)=  20.000000  celldm(2)=   0.000000  celldm(3)=   0.000000
     celldm(4)=   0.000000  celldm(5)=   0.000000  celldm(6)=   0.000000

     crystal axes: (cart. coord. in units of alat)
               a(1) = (   1.000000   0.000000   0.000000 )  
               a(2) = (   0.000000   1.000000   0.000000 )  
               a(3) = (   0.000000   0.000000   1.000000 )  

     reciprocal axes: (cart. coord. in units 2 pi/alat)
               b(1) = (  1.000000  0.000000  0.000000 )  
               b(2) = (  0.000000  1.000000  0.000000 )  
               b(3) = (  0.000000  0.000000  1.000000 )  


     PseudoPot. # 1 for H  read from file:
     /Users/oliviero/PWSCF/espresso/Environ/tests/../..//pseudo/H.pbe-rrkjus.UPF
     MD5 check sum: 7cc9d459525c9a0585f487a71c3c9563
     Pseudo is Ultrasoft, Zval =  1.0
     Generated by new atomic code, or converted to UPF format
     Using radial grid of 1061 points,  2 beta functions with: 
                l(1) =   0
                l(2) =   0
     Q(r) pseudized with 0 coefficients 


     PseudoPot. # 2 for O  read from file:
     /Users/oliviero/PWSCF/espresso/Environ/tests/../..//pseudo/O.pbe-rrkjus.UPF
     MD5 check sum: 390ba29e75625707450f3bd3f0eb6be9
     Pseudo is Ultrasoft, Zval =  6.0
     Generated by new atomic code, or converted to UPF format
     Using radial grid of 1269 points,  4 beta functions with: 
                l(1) =   0
                l(2) =   0
                l(3) =   1
                l(4) =   1
     Q(r) pseudized with 0 coefficients 


     atomic species   valence    mass     pseudopotential
        H              1.00     1.00000     H ( 1.00)
        O              6.00    16.00000     O ( 1.00)

     No symmetry found



   Cartesian axes

     site n.     atom                  positions (alat units)
         1           O   tau(   1) = (   0.5895000   0.6025000   0.5750000  )
         2           H   tau(   2) = (   0.6725000   0.5610000   0.5750000  )
         3           H   tau(   3) = (   0.5280000   0.5330000   0.5750000  )

     number of k points=     1
                       cart. coord. in units 2pi/alat
        k(    1) = (   0.0000000   0.0000000   0.0000000), wk =   2.0000000

     Dense  grid:   350738 G-vectors     FFT dimensions: ( 120, 120, 120)

     Smooth grid:    88755 G-vectors     FFT dimensions: (  72,  72,  72)

     Estimated max dynamical RAM per process >     506.03MB

     Initial potential from superposition of free atoms
     Check: negative starting charge=   -0.000775

     starting charge    7.80759, renormalised to    8.00000

     negative rho (up, down):  7.936E-04 0.000E+00
     Starting wfc are    6 randomized atomic wfcs

     total cpu time spent up to now is       12.2 secs

     Self-consistent Calculation

     iteration #  1     ecut=    30.00 Ry     beta= 0.70
     Davidson diagonalization with overlap
     ethr =  1.00E-02,  avg # of iterations =  2.0

     negative rho (up, down):  2.595E-04 0.000E+00

     add environment contribution to local potential
     polarization accuracy = 7.4E-05, # of iterations =  35

     total cpu time spent up to now is       29.3 secs

     total energy              =     -34.06236055 Ry
     Harris-Foulkes estimate   =     -34.58697711 Ry
     estimated scf accuracy    <       0.68458994 Ry
     electrostatic embedding   =       0.00000000 Ry
     correction to one-el term =       0.00000000 Ry

     iteration #  2     ecut=    30.00 Ry     beta= 0.70
     Davidson diagonalization with overlap
     ethr =  8.56E-03,  avg # of iterations =  2.0

     negative rho (up, down):  2.657E-03 0.000E+00

     add environment contribution to local potential
     polarization accuracy = 7.6E-05, # of iterations =  43

     total cpu time spent up to now is       49.3 secs

     total energy              =     -34.21553681 Ry
     Harris-Foulkes estimate   =     -33.97937057 Ry
     estimated scf accuracy    <       0.35528523 Ry
     electrostatic embedding   =      -0.03448886 Ry
     correction to one-el term =      -0.38478664 Ry

     iteration #  3     ecut=    30.00 Ry     beta= 0.70
     Davidson diagonalization with overlap
     ethr =  4.44E-03,  avg # of iterations =  2.0

     negative rho (up, down):  2.206E-04 0.000E+00

     add environment contribution to local potential
     polarization accuracy = 7.7E-05, # of iterations =  47

     total cpu time spent up to now is       70.2 secs

     total energy              =     -34.28769869 Ry
     Harris-Foulkes estimate   =     -34.02161045 Ry
     estimated scf accuracy    <       0.01537635 Ry
     electrostatic embedding   =      -0.02916785 Ry
     correction to one-el term =      -0.24557037 Ry

     iteration #  4     ecut=    30.00 Ry     beta= 0.70
     Davidson diagonalization with overlap
     ethr =  1.92E-04,  avg # of iterations =  2.0

     negative rho (up, down):  2.142E-04 0.000E+00

     total cpu time spent up to now is       75.0 secs

     End of self-consistent calculation

          k = 0.0000 0.0000 0.0000 ( 11060 PWs)   bands (ev):

   -24.6073 -12.3808  -8.8348  -6.8650

     highest occupied level (ev):    -6.8650

!    total energy              =     -34.29566679 Ry
     Harris-Foulkes estimate   =     -34.21053723 Ry
     estimated scf accuracy    <       0.00017528 Ry

     The total energy is the sum of the following terms:

     one-electron contribution =     -63.83081485 Ry
     hartree contribution      =      33.45958515 Ry
     xc contribution           =      -8.39662595 Ry
     ewald contribution        =       4.55735774 Ry
     electrostatic embedding   =      -0.03354858 Ry
     correction to one-el term =      -0.05162031 Ry

     convergence has been achieved in   4 iterations

     Forces acting on atoms (cartesian axes, Ry/au):

     atom    1 type  2   force =     0.00237115   -0.01242331   -0.00000284
     atom    2 type  1   force =    -0.00871809    0.00472580    0.00000114
     atom    3 type  1   force =     0.00634694    0.00769750    0.00000170

     Total force =     0.018917     Total SCF correction =     0.023075
     SCF correction compared to forces is large: reduce conv_thr to get better values

     Writing output data file pwscf.save

     init_run     :     11.52s CPU     12.01s WALL (       1 calls)
     electrons    :     59.28s CPU     63.07s WALL (       1 calls)
     forces       :      2.30s CPU      2.45s WALL (       1 calls)

     Called by init_run:
     wfcinit      :      0.08s CPU      0.09s WALL (       1 calls)
     potinit      :      2.17s CPU      2.29s WALL (       1 calls)

     Called by electrons:
     c_bands      :      0.66s CPU      0.66s WALL (       4 calls)
     sum_band     :      4.22s CPU      4.24s WALL (       4 calls)
     v_of_rho     :      7.41s CPU      7.84s WALL (       5 calls)
     newd         :      2.46s CPU      2.90s WALL (       5 calls)
     mix_rho      :      0.58s CPU      0.64s WALL (       4 calls)

     Called by c_bands:
     init_us_2    :      0.07s CPU      0.08s WALL (       9 calls)
     regterg      :      0.56s CPU      0.56s WALL (       4 calls)

     Called by sum_band:
     sum_band:bec :      0.00s CPU      0.00s WALL (       4 calls)
     addusdens    :      3.09s CPU      3.08s WALL (       4 calls)

     Called by *egterg:
     h_psi        :      0.58s CPU      0.58s WALL (      13 calls)
     s_psi        :      0.01s CPU      0.01s WALL (      13 calls)
     g_psi        :      0.01s CPU      0.01s WALL (       8 calls)
     rdiaghg      :      0.00s CPU      0.00s WALL (      12 calls)

     Called by h_psi:
     h_psi:pot    :      0.56s CPU      0.56s WALL (      13 calls)
     h_psi:calbec :      0.01s CPU      0.01s WALL (      13 calls)
     vloc_psi     :      0.55s CPU      0.55s WALL (      13 calls)
     add_vuspsi   :      0.01s CPU      0.01s WALL (      13 calls)

     General routines
     calbec       :      0.01s CPU      0.01s WALL (      21 calls)
     fft          :     22.86s CPU     22.97s WALL (     379 calls)
     ffts         :      0.09s CPU      0.09s WALL (       9 calls)
     fftw         :      0.37s CPU      0.37s WALL (      62 calls)
     interpolate  :      0.74s CPU      0.80s WALL (       9 calls)


     Environ routines
     calc_eelect  :      0.41s CPU      0.41s WALL (       8 calls)
     calc_velect  :     37.90s CPU     40.44s WALL (       6 calls)
     dielectric   :      0.78s CPU      0.86s WALL (       5 calls)

     PWSCF        :  1m13.34s CPU     1m17.92s WALL


   This run was terminated on:  23:39:16  26Jul2017            

=------------------------------------------------------------------------------=
   JOB DONE.
=------------------------------------------------------------------------------=

%%%% IONS %%%%%%%%%%%%%%%%%%%%%%%%%%%%%%%%%%%%%%%%%%%%%%%%%%%%%%%%%%%%%%%%%%%%%%
 number of ions             =          3
 total ionic charge         =     -8.0000000
 ionic center of charge     =      0.5921875     0.5886250     0.5750000
 ion   1 type =  2 coordinates =      0.5895000     0.6025000     0.5750000
 ion   2 type =  1 coordinates =      0.6725000     0.5610000     0.5750000
 ion   3 type =  1 coordinates =      0.5280000     0.5330000     0.5750000

%%%% SYSTEM %%%%%%%%%%%%%%%%%%%%%%%%%%%%%%%%%%%%%%%%%%%%%%%%%%%%%%%%%%%%%%%%%%%%
 system is built from all present ionic types
 system defined dimension   =  0 
 system defined axis        =  3 
 system center              =      0.5921875     0.5886250     0.5750000 
 system width               =      0.1209428 

%%%% ELECTRONS %%%%%%%%%%%%%%%%%%%%%%%%%%%%%%%%%%%%%%%%%%%%%%%%%%%%%%%%%%%%%%%%%
 number of electrons        =          8
 total electronic charge    =      8.0000000
 number of spin components  =  1

%%%% BOUNDARY %%%%%%%%%%%%%%%%%%%%%%%%%%%%%%%%%%%%%%%%%%%%%%%%%%%%%%%%%%%%%%%%%%
 boundary mode              = electronic           
 boundary is built as a function of a smooth density
 function type              =  2 
 using the modified SCCS function with parameters 
 rhomax                     =      0.0050000 
 rhomin                     =      0.0001000 

%%%% DIELECTRIC %%%%%%%%%%%%%%%%%%%%%%%%%%%%%%%%%%%%%%%%%%%%%%%%%%%%%%%%%%%%%%%%%
 dielectric build on homogeneous background
 environment bulk permitt.  =    100.0000000 
 dielectric flags
 need gradient              =  F 
 need factor depend. sqrt   =  T 
 need gradient of logarithm =  T 

%%%% COMPUTE ELECTROSTATIC POTENTIAL %%%%%%%%%%%%%%%%%%%%%%%%%%%%%%%%%%%%%%%%%%%
 Iteration #          1
  pAp =  26.724011334975515  rzold =  26.16220247367455  alpha =  0.9789773752802714
 delta_qm =   0.832724E-02 delta_en =   0.119825E+03 tol =   0.100000E-03
 Iteration #          2
  pAp =  27.150276462098475  rzold =  3.369321182604649  alpha =  0.12409896404952594
 delta_qm =   0.280726E-02 delta_en =   0.136178E+02 tol =   0.100000E-03
 Iteration #          3
  pAp =  1.740646808179286  rzold =  0.23503808409048696  alpha =  0.13502916443821045
 delta_qm =   0.913420E-03 delta_en =   0.144173E+01 tol =   0.100000E-03
 Iteration #          4
  pAp =  0.19674352008100462  rzold =  0.032263607837553214  alpha =  0.1639881599367004
 delta_qm =   0.864814E-03 delta_en =   0.129238E+01 tol =   0.100000E-03
 Iteration #          5
  pAp =  0.07116299346747779  rzold =  0.012483566439120302  alpha =  0.17542216580343012
 delta_qm =   0.542904E-03 delta_en =   0.509319E+00 tol =   0.100000E-03
 Iteration #          6
  pAp =  0.040616518151310003  rzold =  0.007293171061637614  alpha =  0.17956170035225896
 delta_qm =   0.558739E-03 delta_en =   0.539463E+00 tol =   0.100000E-03
 Iteration #          7
  pAp =  0.026533571070669348  rzold =  0.0047561555953961505  alpha =  0.179250489228481
 delta_qm =   0.352498E-03 delta_en =   0.214713E+00 tol =   0.100000E-03
 Iteration #          8
  pAp =  0.017342732157194143  rzold =  0.0031284842109115603  alpha =  0.18039165816291505
 delta_qm =   0.370680E-03 delta_en =   0.237434E+00 tol =   0.100000E-03
 Iteration #          9
  pAp =  0.011643783274026617  rzold =  0.002090637404112708  alpha =  0.17954966653975948
 delta_qm =   0.230137E-03 delta_en =   0.915199E-01 tol =   0.100000E-03
 Iteration #         10
  pAp =  0.007676430731377838  rzold =  0.0013862311189434277  alpha =  0.18058276918687363
 delta_qm =   0.250031E-03 delta_en =   0.108027E+00 tol =   0.100000E-03
 Iteration #         11
  pAp =  0.005179792236383319  rzold =  0.000930837885498042  alpha =  0.17970564127258895
 delta_qm =   0.152817E-03 delta_en =   0.403539E-01 tol =   0.100000E-03
 Iteration #         12
  pAp =  0.0034284633443313665  rzold =  0.0006196180300855537  alpha =  0.18072762280221907
 delta_qm =   0.171995E-03 delta_en =   0.511184E-01 tol =   0.100000E-03
 Iteration #         13
  pAp =  0.002321753528310722  rzold =  0.00041755554465160703  alpha =  0.17984490582659524
 delta_qm =   0.103701E-03 delta_en =   0.185828E-01 tol =   0.100000E-03
 Iteration #         14
  pAp =  0.0015420516879291555  rzold =  0.00027891063347595805  alpha =  0.18086983442851476
 delta_qm =   0.120750E-03 delta_en =   0.251951E-01 tol =   0.100000E-03
 Iteration #         15
  pAp =  0.0010479022179487956  rzold =  0.00018861380050005046  alpha =  0.17999179433864584
 delta_qm =   0.722297E-04 delta_en =   0.901519E-02 tol =   0.100000E-03
 Iteration #         16
  pAp =  0.0006984818125402514  rzold =  0.0001264456030463284  alpha =  0.18102919900873116
 delta_qm =   0.865350E-04 delta_en =   0.129398E-01 tol =   0.100000E-03
 Iteration #         17
  pAp =  0.0004764739777903786  rzold =  0.00008584398020989205  alpha =  0.1801650965452273
 delta_qm =   0.518392E-04 delta_en =   0.464366E-02 tol =   0.100000E-03
 Iteration #         18
  pAp =  0.0003189193476829343  rzold =  0.00005779625634163072  alpha =  0.18122530590113667
 delta_qm =   0.632893E-04 delta_en =   0.692156E-02 tol =   0.100000E-03
 Iteration #         19
  pAp =  0.0002185690632729538  rzold =  0.00003942666131243771  alpha =  0.18038536983251302
 delta_qm =   0.384026E-04 delta_en =   0.254838E-02 tol =   0.100000E-03
 Iteration #         20
  pAp =  0.00014706444368322167  rzold =  0.000026689306107012982  alpha =  0.1814803458849783
 delta_qm =   0.472000E-04 delta_en =   0.384971E-02 tol =   0.100000E-03
 Iteration #         21
  pAp =  0.00010139802620152388  rzold =  0.00001832018249988134  alpha =  0.18067592818296904
 delta_qm =   0.293136E-04 delta_en =   0.148485E-02 tol =   0.100000E-03
 Iteration #         22
  pAp =  0.00006869683973251152  rzold =  0.000012490385946062067  alpha =  0.18181893074989383
 delta_qm =   0.358411E-04 delta_en =   0.221976E-02 tol =   0.100000E-03
 Iteration #         23
  pAp =  0.00004774360297080838  rzold =  0.000008644527849448516  alpha =  0.1810614891116197
 delta_qm =   0.229433E-04 delta_en =   0.909614E-03 tol =   0.100000E-03
 Iteration #         24
  pAp =  0.000032641959445608514  rzold =  0.000005949497312631518  alpha =  0.18226532394739353
 delta_qm =   0.276537E-04 delta_en =   0.132145E-02 tol =   0.100000E-03
 Iteration #         25
  pAp =  0.000022924616491990598  rzold =  0.000004162280146713961  alpha =  0.18156378529464948
 delta_qm =   0.182945E-04 delta_en =   0.578342E-03 tol =   0.100000E-03
 Iteration #         26
  pAp =  0.00001586010056153468  rzold =  0.000002899815650948462  alpha =  0.1828371541338995
 delta_qm =   0.216277E-04 delta_en =   0.808282E-03 tol =   0.100000E-03
 Iteration #         27
  pAp =  0.000011288866124576466  rzold =  0.0000020567583693564658  alpha =  0.1821935300374227
 delta_qm =   0.147686E-04 delta_en =   0.376899E-03 tol =   0.100000E-03
 Iteration #         28
  pAp =  0.000007926775644148519  rzold =  0.0000014548473878653836  alpha =  0.1835358351462035
 delta_qm =   0.171025E-04 delta_en =   0.505430E-03 tol =   0.100000E-03
 Iteration #         29
  pAp =  0.00000573516158146197  rzold =  0.0000010491924443354004  alpha =  0.18294034604478346
 delta_qm =   0.120096E-04 delta_en =   0.249229E-03 tol =   0.100000E-03
 Iteration #         30
  pAp =  0.000004098532437013256  rzold =  7.555119380456061E-7  alpha =  0.1843371864579347
 delta_qm =   0.136415E-04 delta_en =   0.321564E-03 tol =   0.100000E-03
 Iteration #         31
  pAp =  0.0000030215022751285157  rzold =  5.552497141403837E-7  alpha =  0.18376610824056613
 delta_qm =   0.980256E-05 delta_en =   0.166044E-03 tol =   0.100000E-03
 Iteration #         32
  pAp =  0.000002201642248416057  rzold =  4.077206417803056E-7  alpha =  0.1851893249566931
 delta_qm =   0.109521E-04 delta_en =   0.207272E-03 tol =   0.100000E-03
 Iteration #         33
  pAp =  0.0000016557712067388152  rzold =  3.0567031391999343E-7  alpha =  0.1846090285155022
 delta_qm =   0.801320E-05 delta_en =   0.110957E-03 tol =   0.100000E-03
 Iteration #         34
  pAp =  0.00000123066095571131  rzold =  2.2893205379130912E-7  alpha =  0.18602365885491884
 delta_qm =   0.883494E-05 delta_en =   0.134881E-03 tol =   0.100000E-03
 Iteration #         35
  pAp =  9.437734006123176E-7  rzold =  1.7497613761465132E-7  alpha =  0.18540058185696617
 delta_qm =   0.655224E-05 delta_en =   0.741863E-04 tol =   0.100000E-03
 Charges are converged, exit!

%%%% ELECTRONS %%%%%%%%%%%%%%%%%%%%%%%%%%%%%%%%%%%%%%%%%%%%%%%%%%%%%%%%%%%%%%%%%
 number of electrons        =          8
 total electronic charge    =      8.0000000
 number of spin components  =  1

%%%% BOUNDARY %%%%%%%%%%%%%%%%%%%%%%%%%%%%%%%%%%%%%%%%%%%%%%%%%%%%%%%%%%%%%%%%%%
 boundary mode              = electronic           
 boundary is built as a function of a smooth density
 function type              =  2 
 using the modified SCCS function with parameters 
 rhomax                     =      0.0050000 
 rhomin                     =      0.0001000 

%%%% DIELECTRIC %%%%%%%%%%%%%%%%%%%%%%%%%%%%%%%%%%%%%%%%%%%%%%%%%%%%%%%%%%%%%%%%%
 dielectric build on homogeneous background
 environment bulk permitt.  =    100.0000000 
 dielectric flags
 need gradient              =  F 
 need factor depend. sqrt   =  T 
 need gradient of logarithm =  T 

%%%% COMPUTE ELECTROSTATIC POTENTIAL %%%%%%%%%%%%%%%%%%%%%%%%%%%%%%%%%%%%%%%%%%%
 Warning: bad guess with residual norm =   0.911827E+01, reset to no guess
 Iteration #          1
  pAp =  28.943042929181654  rzold =  28.52880423347795  alpha =  0.9856877973502208
 delta_qm =   0.102070E-01 delta_en =   0.180028E+03 tol =   0.100000E-03
 Iteration #          2
  pAp =  20.08093131794218  rzold =  2.508919935191304  alpha =  0.12494041712844267
 delta_qm =   0.321229E-02 delta_en =   0.178309E+02 tol =   0.100000E-03
 Iteration #          3
  pAp =  1.2214043032459898  rzold =  0.1650611936963986  alpha =  0.13514050446501122
 delta_qm =   0.836132E-03 delta_en =   0.120807E+01 tol =   0.100000E-03
 Iteration #          4
  pAp =  0.13453628277012142  rzold =  0.021746795984177305  alpha =  0.1616426107248368
 delta_qm =   0.994359E-03 delta_en =   0.170856E+01 tol =   0.100000E-03
 Iteration #          5
  pAp =  0.042932617359835015  rzold =  0.007428441959432794  alpha =  0.1730256018907984
 delta_qm =   0.472687E-03 delta_en =   0.386092E+00 tol =   0.100000E-03
 Iteration #          6
  pAp =  0.021926808190200164  rzold =  0.0040052203928138685  alpha =  0.1826631745975658
 delta_qm =   0.643257E-03 delta_en =   0.715010E+00 tol =   0.100000E-03
 Iteration #          7
  pAp =  0.014756349974758935  rzold =  0.0026298884433566924  alpha =  0.17822079632532267
 delta_qm =   0.308366E-03 delta_en =   0.164315E+00 tol =   0.100000E-03
 Iteration #          8
  pAp =  0.00909705794181816  rzold =  0.0016718358871432527  alpha =  0.1837776452382489
 delta_qm =   0.436324E-03 delta_en =   0.328974E+00 tol =   0.100000E-03
 Iteration #          9
  pAp =  0.0063519404836938605  rzold =  0.001134778546410211  alpha =  0.17865068939536102
 delta_qm =   0.209717E-03 delta_en =   0.759998E-01 tol =   0.100000E-03
 Iteration #         10
  pAp =  0.003963358155824935  rzold =  0.000729714508682101  alpha =  0.18411520735506628
 delta_qm =   0.306914E-03 delta_en =   0.162772E+00 tol =   0.100000E-03
 Iteration #         11
  pAp =  0.0027909167714478002  rzold =  0.0004994069124123724  alpha =  0.17894009506894143
 delta_qm =   0.152870E-03 delta_en =   0.403822E-01 tol =   0.100000E-03
 Iteration #         12
  pAp =  0.00175416275459855  rzold =  0.0003234943535556194  alpha =  0.1844152446559344
 delta_qm =   0.223647E-03 delta_en =   0.864311E-01 tol =   0.100000E-03
 Iteration #         13
  pAp =  0.0012442039000356692  rzold =  0.00022299671520588645  alpha =  0.1792284328955194
 delta_qm =   0.118313E-03 delta_en =   0.241885E-01 tol =   0.100000E-03
 Iteration #         14
  pAp =  0.0007875854167832239  rzold =  0.00014549602140088243  alpha =  0.18473681495416638
 delta_qm =   0.167906E-03 delta_en =   0.487164E-01 tol =   0.100000E-03
 Iteration #         15
  pAp =  0.0005628886482893706  rzold =  0.00010106982501530221  alpha =  0.17955562849322926
 delta_qm =   0.952756E-04 delta_en =   0.156858E-01 tol =   0.100000E-03
 Iteration #         16
  pAp =  0.0003591477451796074  rzold =  0.00006648501943435713  alpha =  0.1851188551973462
 delta_qm =   0.129083E-03 delta_en =   0.287927E-01 tol =   0.100000E-03
 Iteration #         17
  pAp =  0.00025898278553096633  rzold =  0.00004660600293387827  alpha =  0.17995791820034168
 delta_qm =   0.784101E-04 delta_en =   0.106240E-01 tol =   0.100000E-03
 Iteration #         18
  pAp =  0.0001668440073769916  rzold =  0.000030966166366304625  alpha =  0.18559951210195502
 delta_qm =   0.101061E-03 delta_en =   0.176486E-01 tol =   0.100000E-03
 Iteration #         19
  pAp =  0.00012165748224470344  rzold =  0.000021955522820482053  alpha =  0.18046997533879938
 delta_qm =   0.651747E-04 delta_en =   0.734009E-02 tol =   0.100000E-03
 Iteration #         20
  pAp =  0.00007933684086979566  rzold =  0.0000147734976097393  alpha =  0.1862123251666266
 delta_qm =   0.802143E-04 delta_en =   0.111185E-01 tol =   0.100000E-03
 Iteration #         21
  pAp =  0.000058671892414953995  rzold =  0.000010626516766488228  alpha =  0.1811176754165815
 delta_qm =   0.543498E-04 delta_en =   0.510435E-02 tol =   0.100000E-03
 Iteration #         22
  pAp =  0.00003885442045104593  rzold =  0.000007264818925744354  alpha =  0.18697535161790815
 delta_qm =   0.643189E-04 delta_en =   0.714859E-02 tol =   0.100000E-03
 Iteration #         23
  pAp =  0.000029241687413928257  rzold =  0.000005319223546532582  alpha =  0.1819054923622142
 delta_qm =   0.453123E-04 delta_en =   0.354793E-02 tol =   0.100000E-03
 Iteration #         24
  pAp =  0.00001972943348686234  rzold =  0.0000037067000916427536  alpha =  0.18787666123870275
 delta_qm =   0.519583E-04 delta_en =   0.466503E-02 tol =   0.100000E-03
 Iteration #         25
  pAp =  0.000015158184615034778  rzold =  0.0000027709751638089025  alpha =  0.18280389335412148
 delta_qm =   0.377061E-04 delta_en =   0.245678E-02 tol =   0.100000E-03
 Iteration #         26
  pAp =  0.000010446924240732356  rzold =  0.0000019730585373318354  alpha =  0.18886501824517096
 delta_qm =   0.421975E-04 delta_en =   0.307693E-02 tol =   0.100000E-03
 Iteration #         27
  pAp =  0.000008210090869643444  rzold =  0.0000015085832843458044  alpha =  0.1837474527747
 delta_qm =   0.312979E-04 delta_en =   0.169268E-02 tol =   0.100000E-03
 Iteration #         28
  pAp =  0.000005785967063809945  rzold =  0.000001098509499767757  alpha =  0.18985754458208237
 delta_qm =   0.343983E-04 delta_en =   0.204464E-02 tol =   0.100000E-03
 Iteration #         29
  pAp =  0.000004651541339649258  rzold =  8.589161820539326E-7  alpha =  0.18465195068409254
 delta_qm =   0.259132E-04 delta_en =   0.116034E-02 tol =   0.100000E-03
 Iteration #         30
  pAp =  0.0000033489331230964777  rzold =  6.38864231153271E-7  alpha =  0.1907664941850397
 delta_qm =   0.281117E-04 delta_en =   0.136558E-02 tol =   0.100000E-03
 Iteration #         31
  pAp =  0.000002748865632458744  rzold =  5.097603294181249E-7  alpha =  0.1854438876163495
 delta_qm =   0.214074E-04 delta_en =   0.791905E-03 tol =   0.100000E-03
 Iteration #         32
  pAp =  0.0000020164467905507484  rzold =  3.862092520032217E-7  alpha =  0.1915296023743513
 delta_qm =   0.230129E-04 delta_en =   0.915140E-03 tol =   0.100000E-03
 Iteration #         33
  pAp =  0.000001684256907170038  rzold =  3.134117099352299E-7  alpha =  0.1860830783005889
 delta_qm =   0.176539E-04 delta_en =   0.538550E-03 tol =   0.100000E-03
 Iteration #         34
  pAp =  0.0000012542854522518241  rzold =  2.4097862133250734E-7  alpha =  0.19212422570944865
 delta_qm =   0.188598E-04 delta_en =   0.614638E-03 tol =   0.100000E-03
 Iteration #         35
  pAp =  0.0000010619839488837937  rzold =  1.981296894848324E-7  alpha =  0.18656561588626466
 delta_qm =   0.145395E-04 delta_en =   0.365293E-03 tol =   0.100000E-03
 Iteration #         36
  pAp =  7.999317749868348E-7  rzold =  1.5403571482429087E-7  alpha =  0.19256106538188955
 delta_qm =   0.154675E-04 delta_en =   0.413411E-03 tol =   0.100000E-03
 Iteration #         37
  pAp =  6.840809899104302E-7  rzold =  1.2786282962370564E-7  alpha =  0.18691182989962532
 delta_qm =   0.119635E-04 delta_en =   0.247321E-03 tol =   0.100000E-03
 Iteration #         38
  pAp =  5.195063729207366E-7  rzold =  1.0019636241468473E-7  alpha =  0.1928683989983933
 delta_qm =   0.126914E-04 delta_en =   0.278331E-03 tol =   0.100000E-03
 Iteration #         39
  pAp =  4.473968277099909E-7  rzold =  8.373095067078953E-8  alpha =  0.18715141790201772
 delta_qm =   0.983790E-05 delta_en =   0.167243E-03 tol =   0.100000E-03
 Iteration #         40
  pAp =  3.4168902602944424E-7  rzold =  6.59727310611459E-8  alpha =  0.19307828474263278
 delta_qm =   0.104169E-04 delta_en =   0.187508E-03 tol =   0.100000E-03
 Iteration #         41
  pAp =  2.9567422867944535E-7  rzold =  5.538371397936551E-8  alpha =  0.1873132948607762
 delta_qm =   0.808678E-05 delta_en =   0.113004E-03 tol =   0.100000E-03
 Iteration #         42
  pAp =  2.2667807668545617E-7  rzold =  4.3798497577234745E-8  alpha =  0.19321893946546304
 delta_qm =   0.855190E-05 delta_en =   0.126377E-03 tol =   0.100000E-03
 Iteration #         43
  pAp =  1.9678206940459331E-7  rzold =  3.688111334656144E-8  alpha =  0.18742110730999637
 delta_qm =   0.664577E-05 delta_en =   0.763192E-04 tol =   0.100000E-03
 Charges are converged, exit!

%%%% ELECTRONS %%%%%%%%%%%%%%%%%%%%%%%%%%%%%%%%%%%%%%%%%%%%%%%%%%%%%%%%%%%%%%%%%
 number of electrons        =          8
 total electronic charge    =      8.0000000
 number of spin components  =  1

%%%% BOUNDARY %%%%%%%%%%%%%%%%%%%%%%%%%%%%%%%%%%%%%%%%%%%%%%%%%%%%%%%%%%%%%%%%%%
 boundary mode              = electronic           
 boundary is built as a function of a smooth density
 function type              =  2 
 using the modified SCCS function with parameters 
 rhomax                     =      0.0050000 
 rhomin                     =      0.0001000 

%%%% DIELECTRIC %%%%%%%%%%%%%%%%%%%%%%%%%%%%%%%%%%%%%%%%%%%%%%%%%%%%%%%%%%%%%%%%%
 dielectric build on homogeneous background
 environment bulk permitt.  =    100.0000000 
 dielectric flags
 need gradient              =  F 
 need factor depend. sqrt   =  T 
 need gradient of logarithm =  T 

%%%% COMPUTE ELECTROSTATIC POTENTIAL %%%%%%%%%%%%%%%%%%%%%%%%%%%%%%%%%%%%%%%%%%%
 Warning: bad guess with residual norm =   0.146295E+03, reset to no guess
 Iteration #          1
  pAp =  28.83835966131714  rzold =  28.404246893494385  alpha =  0.9849466900017528
 delta_qm =   0.106348E-01 delta_en =   0.195435E+03 tol =   0.100000E-03
 Iteration #          2
  pAp =  19.70454001827974  rzold =  2.5564145601178767  alpha =  0.12973733757531575
 delta_qm =   0.259412E-02 delta_en =   0.116285E+02 tol =   0.100000E-03
 Iteration #          3
  pAp =  1.592190319010055  rzold =  0.1772412946601546  alpha =  0.11131916363513279
 delta_qm =   0.924840E-03 delta_en =   0.147801E+01 tol =   0.100000E-03
 Iteration #          4
  pAp =  0.1311027401275443  rzold =  0.022228148043191804  alpha =  0.16954754737823924
 delta_qm =   0.883637E-03 delta_en =   0.134925E+01 tol =   0.100000E-03
 Iteration #          5
  pAp =  0.06742754372055457  rzold =  0.00935158691677756  alpha =  0.13869090286803418
 delta_qm =   0.483434E-03 delta_en =   0.403848E+00 tol =   0.100000E-03
 Iteration #          6
  pAp =  0.021343221673611853  rzold =  0.004122009273750528  alpha =  0.1931296660263273
 delta_qm =   0.593717E-03 delta_en =   0.609119E+00 tol =   0.100000E-03
 Iteration #          7
  pAp =  0.02625160709403857  rzold =  0.0037216753696810733  alpha =  0.14176942982383056
 delta_qm =   0.320972E-03 delta_en =   0.178024E+00 tol =   0.100000E-03
 Iteration #          8
  pAp =  0.00951490478449024  rzold =  0.0018465516831156763  alpha =  0.1940693811382796
 delta_qm =   0.408057E-03 delta_en =   0.287730E+00 tol =   0.100000E-03
 Iteration #          9
  pAp =  0.012118176174462342  rzold =  0.0017206637043665014  alpha =  0.14199031930172806
 delta_qm =   0.217045E-03 delta_en =   0.814032E-01 tol =   0.100000E-03
 Iteration #         10
  pAp =  0.004425672320301466  rzold =  0.000860297889489855  alpha =  0.19438806744536694
 delta_qm =   0.288873E-03 delta_en =   0.144197E+00 tol =   0.100000E-03
 Iteration #         11
  pAp =  0.005678804692659986  rzold =  0.0008072289700308625  alpha =  0.14214769017751722
 delta_qm =   0.154827E-03 delta_en =   0.414227E-01 tol =   0.100000E-03
 Iteration #         12
  pAp =  0.0020843824686981663  rzold =  0.0004057866171082936  alpha =  0.19467953852141828
 delta_qm =   0.211251E-03 delta_en =   0.771153E-01 tol =   0.100000E-03
 Iteration #         13
  pAp =  0.002692106746387921  rzold =  0.00038310811731309566  alpha =  0.14230792216063612
 delta_qm =   0.116961E-03 delta_en =   0.236387E-01 tol =   0.100000E-03
 Iteration #         14
  pAp =  0.0009930743812576188  rzold =  0.00019364754070922585  alpha =  0.19499802266975477
 delta_qm =   0.159267E-03 delta_en =   0.438322E-01 tol =   0.100000E-03
 Iteration #         15
  pAp =  0.001291648341194123  rzold =  0.00018405042763962147  alpha =  0.1424926752659843
 delta_qm =   0.927398E-04 delta_en =   0.148619E-01 tol =   0.100000E-03
 Iteration #         16
  pAp =  0.00047917613630089537  rzold =  0.00009362245814631404  alpha =  0.19538213832820017
 delta_qm =   0.123326E-03 delta_en =   0.262818E-01 tol =   0.100000E-03
 Iteration #         17
  pAp =  0.0006284757065810195  rzold =  0.00008969792645075185  alpha =  0.14272298119320945
 delta_qm =   0.760926E-04 delta_en =   0.100053E-01 tol =   0.100000E-03
 Iteration #         18
  pAp =  0.0002347866146811935  rzold =  0.00004598836839131731  alpha =  0.1958730417990945
 delta_qm =   0.976483E-04 delta_en =   0.164768E-01 tol =   0.100000E-03
 Iteration #         19
  pAp =  0.0003112200765753389  rzold =  0.000044511038380353963  alpha =  0.1430211022057213
 delta_qm =   0.637574E-04 delta_en =   0.702433E-02 tol =   0.100000E-03
 Iteration #         20
  pAp =  0.00011731490557345514  rzold =  0.000023053830147214805  alpha =  0.19651237014191655
 delta_qm =   0.787138E-04 delta_en =   0.107065E-01 tol =   0.100000E-03
 Iteration #         21
  pAp =  0.00015765465537812847  rzold =  0.000022608830155633456  alpha =  0.143407310754047
 delta_qm =   0.540374E-04 delta_en =   0.504582E-02 tol =   0.100000E-03
 Iteration #         22
  pAp =  0.00006012132058591855  rzold =  0.000011863896274225701  alpha =  0.19733259613403153
 delta_qm =   0.643456E-04 delta_en =   0.715453E-02 tol =   0.100000E-03
 Iteration #         23
  pAp =  0.00008222439764702104  rzold =  0.000011831497080384836  alpha =  0.14389277901646613
 delta_qm =   0.460500E-04 delta_en =   0.366440E-02 tol =   0.100000E-03
 Iteration #         24
  pAp =  0.000031815964737281814  rzold =  0.000006310398381970525  alpha =  0.19834062660297164
 delta_qm =   0.531669E-04 delta_en =   0.488457E-02 tol =   0.100000E-03
 Iteration #         25
  pAp =  0.00004445876771659832  rzold =  0.000006422960893229583  alpha =  0.14447006120755845
 delta_qm =   0.393210E-04 delta_en =   0.267173E-02 tol =   0.100000E-03
 Iteration #         26
  pAp =  0.00001750332324472642  rzold =  0.000003491923992909032  alpha =  0.19950062877123145
 delta_qm =   0.442851E-04 delta_en =   0.338891E-02 tol =   0.100000E-03
 Iteration #         27
  pAp =  0.000025070383164352354  rzold =  0.0000036378785527006297  alpha =  0.14510661958582824
 delta_qm =   0.335785E-04 delta_en =   0.194835E-02 tol =   0.100000E-03
 Iteration #         28
  pAp =  0.00001006051343667318  rzold =  0.000002019443344330275  alpha =  0.20072965033463203
 delta_qm =   0.371060E-04 delta_en =   0.237920E-02 tol =   0.100000E-03
 Iteration #         29
  pAp =  0.00001479140822791327  rzold =  0.0000021558342750226553  alpha =  0.14574908905254347
 delta_qm =   0.286519E-04 delta_en =   0.141857E-02 tol =   0.100000E-03
 Iteration #         30
  pAp =  0.000006051300014013007  rzold =  0.0000012218650389078803  alpha =  0.20191777569752037
 delta_qm =   0.312233E-04 delta_en =   0.168462E-02 tol =   0.100000E-03
 Iteration #         31
  pAp =  0.00000912420932254064  rzold =  0.0000013352381669947823  alpha =  0.1463401506688565
 delta_qm =   0.244218E-04 delta_en =   0.103062E-02 tol =   0.100000E-03
 Iteration #         32
  pAp =  0.000003799701333525496  rzold =  7.712107047677545E-7  alpha =  0.2029661378812103
 delta_qm =   0.263524E-04 delta_en =   0.120001E-02 tol =   0.100000E-03
 Iteration #         33
  pAp =  0.000005858064722138899  rzold =  8.601886872524004E-7  alpha =  0.14683837206536154
 delta_qm =   0.207948E-04 delta_en =   0.747228E-03 tol =   0.100000E-03
 Iteration #         34
  pAp =  0.0000024763665706510932  rzold =  5.047281623928935E-7  alpha =  0.20381803258642314
 delta_qm =   0.222880E-04 delta_en =   0.858390E-03 tol =   0.100000E-03
 Iteration #         35
  pAp =  0.000003887418413867666  rzold =  5.723366633680633E-7  alpha =  0.1472279550167163
 delta_qm =   0.176919E-04 delta_en =   0.540870E-03 tol =   0.100000E-03
 Iteration #         36
  pAp =  0.0000016626896307405538  rzold =  3.399616073359431E-7  alpha =  0.20446486286471027
 delta_qm =   0.188776E-04 delta_en =   0.615799E-03 tol =   0.100000E-03
 Iteration #         37
  pAp =  0.0000026461080031903587  rzold =  3.903408655241824E-7  alpha =  0.14751509199683321
 delta_qm =   0.150432E-04 delta_en =   0.391043E-03 tol =   0.100000E-03
 Iteration #         38
  pAp =  0.0000011415855983764842  rzold =  2.3394665916190733E-7  alpha =  0.2049313336596192
 delta_qm =   0.160051E-04 delta_en =   0.442651E-03 tol =   0.100000E-03
 Iteration #         39
  pAp =  0.0000018348190775616494  rzold =  2.7103543336168627E-7  alpha =  0.1477177977252526
 delta_qm =   0.127863E-04 delta_en =   0.282509E-03 tol =   0.100000E-03
 Iteration #         40
  pAp =  7.964192089965652E-7  rzold =  1.634696460426547E-7  alpha =  0.20525578011687526
 delta_qm =   0.135791E-04 delta_en =   0.318632E-03 tol =   0.100000E-03
 Iteration #         41
  pAp =  0.0000012888650001068171  rzold =  1.9056747289053905E-7  alpha =  0.1478568142317042
 delta_qm =   0.108657E-04 delta_en =   0.204014E-03 tol =   0.100000E-03
 Iteration #         42
  pAp =  5.617859583691425E-7  rzold =  1.1543367952384958E-7  alpha =  0.20547626334227376
 delta_qm =   0.115266E-04 delta_en =   0.229586E-03 tol =   0.100000E-03
 Iteration #         43
  pAp =  9.133998803397078E-7  rzold =  1.3513797850151376E-7  alpha =  0.1479505104065197
 delta_qm =   0.923275E-05 delta_en =   0.147301E-03 tol =   0.100000E-03
 Iteration #         44
  pAp =  3.992517776979834E-7  rzold =  8.209582829341067E-8  alpha =  0.20562420226845576
 delta_qm =   0.978783E-05 delta_en =   0.165545E-03 tol =   0.100000E-03
 Iteration #         45
  pAp =  6.511695313340299E-7  rzold =  9.638165834209518E-8  alpha =  0.14801315741023877
 delta_qm =   0.784507E-05 delta_en =   0.106350E-03 tol =   0.100000E-03
 Iteration #         46
  pAp =  2.851651998147616E-7  rzold =  5.8665056614839426E-8  alpha =  0.20572305685598116
 delta_qm =   0.831359E-05 delta_en =   0.119432E-03 tol =   0.100000E-03
 Iteration #         47
  pAp =  4.660683197841269E-7  rzold =  6.900376274579136E-8  alpha =  0.14805503789176758
 delta_qm =   0.666616E-05 delta_en =   0.767883E-04 tol =   0.100000E-03
 Charges are converged, exit!

%%%% ELECTRONS %%%%%%%%%%%%%%%%%%%%%%%%%%%%%%%%%%%%%%%%%%%%%%%%%%%%%%%%%%%%%%%%%
 number of electrons        =          8
 total electronic charge    =      8.0000000
 number of spin components  =  1

%%%% BOUNDARY %%%%%%%%%%%%%%%%%%%%%%%%%%%%%%%%%%%%%%%%%%%%%%%%%%%%%%%%%%%%%%%%%%
 boundary mode              = electronic           
 boundary is built as a function of a smooth density
 function type              =  2 
 using the modified SCCS function with parameters 
 rhomax                     =      0.0050000 
 rhomin                     =      0.0001000 

%%%% DIELECTRIC %%%%%%%%%%%%%%%%%%%%%%%%%%%%%%%%%%%%%%%%%%%%%%%%%%%%%%%%%%%%%%%%%
 dielectric build on homogeneous background
 environment bulk permitt.  =    100.0000000 
 dielectric flags
 need gradient              =  F 
 need factor depend. sqrt   =  T 
 need gradient of logarithm =  T 
