
     Program PWSCF v.6.1 (svn rev. 13369) starts on  4Oct2017 at 12:25:29 

     This program is part of the open-source Quantum ESPRESSO suite
     for quantum simulation of materials; please cite
         "P. Giannozzi et al., J. Phys.:Condens. Matter 21 395502 (2009);
          URL http://www.quantum-espresso.org", 
     in publications or presentations arising from this work. More details at
     http://www.quantum-espresso.org/quote

     Serial version
     Reading input from charged.in

     Current dimensions of program PWSCF are:
     Max number of different atomic species (ntypx) = 10
     Max number of k-points (npk) =  40000
     Max angular momentum in pseudopotentials (lmaxx) =  3
               file C.pbe-rrkjus.UPF: wavefunction(s)  2S 2P renormalized
               file H.pbe-rrkjus.UPF: wavefunction(s)  1S renormalized
               file N.pbe-rrkjus.UPF: wavefunction(s)  2S renormalized
               file O.pbe-rrkjus.UPF: wavefunction(s)  2S renormalized

     gamma-point specific algorithms are used

     G-vector sticks info
     --------------------
     sticks:   dense  smooth     PW     G-vecs:    dense   smooth      PW
     Sum        9549    3809    949               701475   177509   22119



     bravais-lattice index     =            1
     lattice parameter (alat)  =      20.0000  a.u.
     unit-cell volume          =    8000.0000 (a.u.)^3
     number of atoms/cell      =           10
     number of atomic types    =            4
     number of electrons       =        24.00
     number of Kohn-Sham states=           12
     kinetic-energy cutoff     =      30.0000  Ry
     charge density cutoff     =     300.0000  Ry
     convergence threshold     =      5.0E-03
     mixing beta               =       0.7000
     number of iterations used =            8  plain     mixing
     Exchange-correlation      =  SLA  PW   PBE  PBE ( 1  4  3  4 0 0)


     Environ Module
     ==============

     Plese cite
         O. Andreussi, I. Dabo and N. Marzari, J. Chem. Phys. 136, 064102 (2012)         
     in publications or presentations arising from this work.

     compensation onset threshold      =               0.1000E+03 
     static permittivity               =                   100.00 
     epsilon calculation mode          =               electronic 

     Electrostatic Setup
     -------------------
     electrostatic problem to solve    = generalized              
     numerical solver adopted          = iterative                
     type of auxiliary density adopted = full                     
     type of core tool for poisson     = fft                      
     type of core tool for s(r) deriv  = analytic                 



     celldm(1)=  20.000000  celldm(2)=   0.000000  celldm(3)=   0.000000
     celldm(4)=   0.000000  celldm(5)=   0.000000  celldm(6)=   0.000000

     crystal axes: (cart. coord. in units of alat)
               a(1) = (   1.000000   0.000000   0.000000 )  
               a(2) = (   0.000000   1.000000   0.000000 )  
               a(3) = (   0.000000   0.000000   1.000000 )  

     reciprocal axes: (cart. coord. in units 2 pi/alat)
               b(1) = (  1.000000  0.000000  0.000000 )  
               b(2) = (  0.000000  1.000000  0.000000 )  
               b(3) = (  0.000000  0.000000  1.000000 )  


     PseudoPot. # 1 for C  read from file:
     /Users/oliviero/PWSCF/espresso-6.1-Environ-1.0/Environ/tests/../..//pseudo/C.pbe-rrkjus.UPF
     MD5 check sum: 00fb224312de0c5b6853bd333518df6f
     Pseudo is Ultrasoft, Zval =  4.0
     Generated by new atomic code, or converted to UPF format
     Using radial grid of  627 points,  4 beta functions with: 
                l(1) =   0
                l(2) =   0
                l(3) =   1
                l(4) =   1
     Q(r) pseudized with 0 coefficients 


     PseudoPot. # 2 for H  read from file:
     /Users/oliviero/PWSCF/espresso-6.1-Environ-1.0/Environ/tests/../..//pseudo/H.pbe-rrkjus.UPF
     MD5 check sum: 7cc9d459525c9a0585f487a71c3c9563
     Pseudo is Ultrasoft, Zval =  1.0
     Generated by new atomic code, or converted to UPF format
     Using radial grid of 1061 points,  2 beta functions with: 
                l(1) =   0
                l(2) =   0
     Q(r) pseudized with 0 coefficients 


     PseudoPot. # 3 for N  read from file:
     /Users/oliviero/PWSCF/espresso-6.1-Environ-1.0/Environ/tests/../..//pseudo/N.pbe-rrkjus.UPF
     MD5 check sum: 0c3fbe5807a93f9ba59d5a7019aa238b
     Pseudo is Ultrasoft, Zval =  5.0
     Generated by new atomic code, or converted to UPF format
     Using radial grid of 1257 points,  4 beta functions with: 
                l(1) =   0
                l(2) =   0
                l(3) =   1
                l(4) =   1
     Q(r) pseudized with 0 coefficients 


     PseudoPot. # 4 for O  read from file:
     /Users/oliviero/PWSCF/espresso-6.1-Environ-1.0/Environ/tests/../..//pseudo/O.pbe-rrkjus.UPF
     MD5 check sum: 390ba29e75625707450f3bd3f0eb6be9
     Pseudo is Ultrasoft, Zval =  6.0
     Generated by new atomic code, or converted to UPF format
     Using radial grid of 1269 points,  4 beta functions with: 
                l(1) =   0
                l(2) =   0
                l(3) =   1
                l(4) =   1
     Q(r) pseudized with 0 coefficients 


     atomic species   valence    mass     pseudopotential
        C              4.00    12.00000     C ( 1.00)
        H              1.00     1.00000     H ( 1.00)
        N              5.00    14.00000     N ( 1.00)
        O              6.00    16.00000     O ( 1.00)

     No symmetry found



   Cartesian axes

     site n.     atom                  positions (alat units)
         1           C   tau(   1) = (   0.0000000   0.0000000   0.0000000  )
         2           C   tau(   2) = (   0.0000000   0.0000000   0.1455089  )
         3           N   tau(   3) = (   0.1170969   0.0000000  -0.0545024  )
         4           H   tau(   4) = (   0.0476617  -0.0825466   0.1792090  )
         5           H   tau(   5) = (  -0.0953183  -0.0000030   0.1792090  )
         6           H   tau(   6) = (   0.0476566   0.0825496   0.1792090  )
         7           O   tau(   7) = (  -0.0984002  -0.0000019  -0.0641310  )
         8           H   tau(   8) = (   0.1263131  -0.0000015  -0.1475548  )
         9           H   tau(   9) = (   0.1944645   0.0000134  -0.0025716  )
        10           H   tau(  10) = (  -0.0770366  -0.0000045  -0.1522861  )

     number of k points=     1
                       cart. coord. in units 2pi/alat
        k(    1) = (   0.0000000   0.0000000   0.0000000), wk =   2.0000000

     Dense  grid:   350738 G-vectors     FFT dimensions: ( 120, 120, 120)

     Smooth grid:    88755 G-vectors     FFT dimensions: (  72,  72,  72)

     Estimated max dynamical RAM per process >     298.98MB

     Initial potential from superposition of free atoms
     Check: negative starting charge=   -0.000452

     starting charge   24.42266, renormalised to   24.00000

     negative rho (up, down):  4.438E-04 0.000E+00
     Starting wfc are   22 randomized atomic wfcs

     total cpu time spent up to now is       27.8 secs

     Self-consistent Calculation

     iteration #  1     ecut=    30.00 Ry     beta=0.70
     Davidson diagonalization with overlap
     ethr =  1.00E-02,  avg # of iterations =  2.0

     negative rho (up, down):  1.277E-04 0.000E+00

     add environment contribution to local potential
     polarization accuracy = 8.0E-05, # of iterations =  17

     total cpu time spent up to now is       41.8 secs

     total energy              =     -80.23903180 Ry
     Harris-Foulkes estimate   =     -83.01879009 Ry
     estimated scf accuracy    <       3.73442311 Ry
     electrostatic embedding   =       0.00000000 Ry
     correction to one-el term =       0.00000000 Ry

     iteration #  2     ecut=    30.00 Ry     beta=0.70
     Davidson diagonalization with overlap
     ethr =  1.00E-02,  avg # of iterations =  4.0

     negative rho (up, down):  6.917E-04 0.000E+00

     add environment contribution to local potential
     polarization accuracy = 9.7E-05, # of iterations =  15

     total cpu time spent up to now is       55.2 secs

     total energy              =     -80.98712279 Ry
     Harris-Foulkes estimate   =     -76.59919566 Ry
     estimated scf accuracy    <       1.54116215 Ry
     electrostatic embedding   =      -0.16170457 Ry
     correction to one-el term =      -5.05161921 Ry

     iteration #  3     ecut=    30.00 Ry     beta=0.70
     Davidson diagonalization with overlap
     ethr =  6.42E-03,  avg # of iterations =  3.0

     negative rho (up, down):  3.245E-04 0.000E+00

     add environment contribution to local potential
     polarization accuracy = 5.6E-05, # of iterations =  15

     total cpu time spent up to now is       68.2 secs

     total energy              =     -81.32894496 Ry
     Harris-Foulkes estimate   =     -77.02385418 Ry
     estimated scf accuracy    <       0.24319090 Ry
     electrostatic embedding   =      -0.13477830 Ry
     correction to one-el term =      -4.29991090 Ry

     iteration #  4     ecut=    30.00 Ry     beta=0.70
     Davidson diagonalization with overlap
     ethr =  1.01E-03,  avg # of iterations =  4.0

     negative rho (up, down):  8.611E-05 0.000E+00

     add environment contribution to local potential
     polarization accuracy = 6.6E-05, # of iterations =  15

     total cpu time spent up to now is       80.7 secs

     total energy              =     -81.37892949 Ry
     Harris-Foulkes estimate   =     -77.22335086 Ry
     estimated scf accuracy    <       0.02083824 Ry
     electrostatic embedding   =      -0.12182583 Ry
     correction to one-el term =      -4.04434018 Ry

     iteration #  5     ecut=    30.00 Ry     beta=0.70
     Davidson diagonalization with overlap
     ethr =  8.68E-05,  avg # of iterations =  4.0

     negative rho (up, down):  2.757E-04 0.000E+00

     total cpu time spent up to now is       85.7 secs

     End of self-consistent calculation

          k = 0.0000 0.0000 0.0000 ( 11060 PWs)   bands (ev):

   -28.9421 -23.2042 -18.6862 -16.0164 -14.7232 -13.4483 -11.7108 -10.9683
    -9.6109  -9.5959  -9.3591  -7.4448

     highest occupied level (ev):    -7.4448

!    total energy              =     -81.38344494 Ry
     Harris-Foulkes estimate   =     -77.45638930 Ry
     estimated scf accuracy    <       0.00248116 Ry

     The total energy is the sum of the following terms:

     one-electron contribution =    -241.95842466 Ry
     hartree contribution      =     123.14171254 Ry
     xc contribution           =     -22.94566702 Ry
     ewald contribution        =      64.30784006 Ry
     electrostatic embedding   =      -0.12147948 Ry
     correction to one-el term =      -3.80742638 Ry

     convergence has been achieved in   5 iterations

     Forces acting on atoms (cartesian axes, Ry/au):

     atom    1 type  1   force =     0.21841138    0.00001196    0.09998155
     atom    2 type  1   force =    -0.03314239   -0.00000470   -0.08123801
     atom    3 type  3   force =    -0.13992430   -0.00000075    0.04564841
     atom    4 type  2   force =     0.01761380   -0.02835617    0.00837145
     atom    5 type  2   force =    -0.03271399   -0.00000252    0.01170043
     atom    6 type  2   force =     0.01761723    0.02836189    0.00837278
     atom    7 type  4   force =    -0.08234990   -0.00002998   -0.00937179
     atom    8 type  2   force =     0.00500333    0.00000586   -0.04798114
     atom    9 type  2   force =     0.03809780    0.00001009    0.03887220
     atom   10 type  2   force =    -0.00861296    0.00000433   -0.07435588

     Total force =     0.329240     Total SCF correction =     0.121051
     SCF correction compared to forces is large: reduce conv_thr to get better values

     Writing output data file pwscf.save

     init_run     :     26.17s CPU     27.55s WALL (       1 calls)
     electrons    :     52.38s CPU     58.10s WALL (       1 calls)
     forces       :      3.10s CPU      3.55s WALL (       1 calls)

     Called by init_run:
     wfcinit      :      0.25s CPU      0.25s WALL (       1 calls)
     potinit      :      1.99s CPU      2.18s WALL (       1 calls)

     Called by electrons:
     c_bands      :      2.40s CPU      2.35s WALL (       5 calls)
     sum_band     :      7.30s CPU      7.73s WALL (       5 calls)
     v_of_rho     :      7.97s CPU      8.88s WALL (       6 calls)
     newd         :      3.76s CPU      5.49s WALL (       6 calls)
     mix_rho      :      0.68s CPU      0.79s WALL (       5 calls)

     Called by c_bands:
     init_us_2    :      0.09s CPU      0.11s WALL (      11 calls)
     regterg      :      2.27s CPU      2.21s WALL (       5 calls)

     Called by sum_band:
     sum_band:bec :      0.00s CPU      0.00s WALL (       5 calls)
     addusdens    :      5.77s CPU      6.12s WALL (       5 calls)

     Called by *egterg:
     h_psi        :      2.09s CPU      2.10s WALL (      23 calls)
     s_psi        :      0.11s CPU      0.04s WALL (      23 calls)
     g_psi        :      0.02s CPU      0.02s WALL (      17 calls)
     rdiaghg      :      0.01s CPU      0.01s WALL (      22 calls)

     Called by h_psi:
     h_psi:pot    :      2.07s CPU      2.08s WALL (      23 calls)
     h_psi:calbec :      0.06s CPU      0.06s WALL (      23 calls)
     vloc_psi     :      1.89s CPU      1.98s WALL (      23 calls)
     add_vuspsi   :      0.12s CPU      0.05s WALL (      23 calls)

     General routines
     calbec       :      0.08s CPU      0.08s WALL (      32 calls)
     fft          :     23.28s CPU     23.97s WALL (     395 calls)
     ffts         :      0.11s CPU      0.12s WALL (      11 calls)
     fftw         :      1.55s CPU      1.62s WALL (     244 calls)
     interpolate  :      0.91s CPU      1.01s WALL (      11 calls)
     davcio       :      0.01s CPU      0.01s WALL (       1 calls)


     Environ routines
     calc_eelect  :      0.02s CPU      0.02s WALL (      10 calls)
     calc_velect  :     25.60s CPU     27.95s WALL (       8 calls)
     dielectric   :      0.36s CPU      0.44s WALL (       6 calls)
     calc_felect  :      0.59s CPU      0.60s WALL (       1 calls)

     PWSCF        :  1m21.95s CPU     1m29.68s WALL


   This run was terminated on:  12:26:58   4Oct2017            

=------------------------------------------------------------------------------=
   JOB DONE.
=------------------------------------------------------------------------------=

%%%% IONS %%%%%%%%%%%%%%%%%%%%%%%%%%%%%%%%%%%%%%%%%%%%%%%%%%%%%%%%%%%%%%%%%%%%%%
 number of ions             =         10
 ionic center of charge     =      0.0095530    -0.0000002     0.0063981
 total ionic charge         =    -25.0000000
 ionic dipole               =      0.0000000     0.0000000     0.0000000
 ionic quadrupole (pc)      =    -79.0828058    -5.4513517  -105.8059629
 ionic quadrupole (gauss)   =    -82.2078058    -8.5763517  -108.9309629
 ion   1 type =  1 coordinates =      0.0000000     0.0000000     0.0000000
 ion   2 type =  1 coordinates =      0.0000000     0.0000000     2.9101782
 ion   3 type =  3 coordinates =      2.3419379     0.0000000    -1.0900479
 ion   4 type =  2 coordinates =      0.9532347    -1.6509323     3.5841800
 ion   5 type =  2 coordinates =     -1.9063663    -0.0000596     3.5841809
 ion   6 type =  2 coordinates =      0.9531315     1.6509919     3.5841800
 ion   7 type =  4 coordinates =     -1.9680045    -0.0000375    -1.2826193
 ion   8 type =  2 coordinates =      2.5262613    -0.0000303    -2.9510950
 ion   9 type =  2 coordinates =      3.8892907     0.0002681    -0.0514326
 ion  10 type =  2 coordinates =     -1.5407317    -0.0000890    -3.0457220

%%%% SYSTEM %%%%%%%%%%%%%%%%%%%%%%%%%%%%%%%%%%%%%%%%%%%%%%%%%%%%%%%%%%%%%%%%%%%%
 system is built from all present ionic types
 system defined dimension   =  0 
 system defined axis        =  3 
 system center              =      0.0095530    -0.0000002     0.0063981 
 system width               =      0.5223840 

%%%% ELECTRONS %%%%%%%%%%%%%%%%%%%%%%%%%%%%%%%%%%%%%%%%%%%%%%%%%%%%%%%%%%%%%%%%%
 number of electrons        =         24
 total electronic charge    =     24.0000000
 number of spin components  =  1

%%%% BOUNDARY %%%%%%%%%%%%%%%%%%%%%%%%%%%%%%%%%%%%%%%%%%%%%%%%%%%%%%%%%%%%%%%%%%
 boundary mode              = electronic           
 boundary is built as a function of a smooth density
 function type              =  2 
 using the modified SCCS function with parameters 
 rhomax                     =      0.0050000 
 rhomin                     =      0.0001000 

%%%% DIELECTRIC %%%%%%%%%%%%%%%%%%%%%%%%%%%%%%%%%%%%%%%%%%%%%%%%%%%%%%%%%%%%%%%%%
 dielectric build on homogeneous background
 environment bulk permitt.  =    100.0000000 
 dielectric flags
 need gradient              =  F 
 need factor depend. sqrt   =  F 
 need gradient of logarithm =  T 

%%%% COMPUTE ELECTROSTATIC POTENTIAL %%%%%%%%%%%%%%%%%%%%%%%%%%%%%%%%%%%%%%%%%%%
 Starting from polarization: rhoiter =      0.000000 jellium =      0.000000
 Iteration #          1
 delta_qm =   0.365417E-02 delta_en =   0.230740E+02 tol =   0.100000E-03
 Iteration #          2
 delta_qm =   0.150137E-02 delta_en =   0.389509E+01 tol =   0.100000E-03
 Iteration #          3
 delta_qm =   0.109221E-02 delta_en =   0.206138E+01 tol =   0.100000E-03
 Iteration #          4
 delta_qm =   0.816533E-03 delta_en =   0.115210E+01 tol =   0.100000E-03
 Iteration #          5
 delta_qm =   0.542738E-03 delta_en =   0.509007E+00 tol =   0.100000E-03
 Iteration #          6
 delta_qm =   0.351649E-03 delta_en =   0.213680E+00 tol =   0.100000E-03
 Iteration #          7
 delta_qm =   0.241498E-03 delta_en =   0.100779E+00 tol =   0.100000E-03
 Iteration #          8
 delta_qm =   0.173415E-03 delta_en =   0.519660E-01 tol =   0.100000E-03
 Iteration #          9
 delta_qm =   0.123103E-03 delta_en =   0.261866E-01 tol =   0.100000E-03
 Iteration #         10
 delta_qm =   0.846203E-04 delta_en =   0.123735E-01 tol =   0.100000E-03
 Iteration #         11
 delta_qm =   0.572098E-04 delta_en =   0.565568E-02 tol =   0.100000E-03
 Iteration #         12
 delta_qm =   0.391399E-04 delta_en =   0.264718E-02 tol =   0.100000E-03
 Iteration #         13
 delta_qm =   0.274789E-04 delta_en =   0.130480E-02 tol =   0.100000E-03
 Iteration #         14
 delta_qm =   0.195779E-04 delta_en =   0.662332E-03 tol =   0.100000E-03
 Iteration #         15
 delta_qm =   0.138934E-04 delta_en =   0.333551E-03 tol =   0.100000E-03
 Iteration #         16
 delta_qm =   0.974544E-05 delta_en =   0.164114E-03 tol =   0.100000E-03
 Iteration #         17
 delta_qm =   0.679981E-05 delta_en =   0.798982E-04 tol =   0.100000E-03
 Charges are converged, exit!

%%%% ELECTRONS %%%%%%%%%%%%%%%%%%%%%%%%%%%%%%%%%%%%%%%%%%%%%%%%%%%%%%%%%%%%%%%%%
 number of electrons        =         24
 total electronic charge    =     24.0000000
 number of spin components  =  1

%%%% BOUNDARY %%%%%%%%%%%%%%%%%%%%%%%%%%%%%%%%%%%%%%%%%%%%%%%%%%%%%%%%%%%%%%%%%%
 boundary mode              = electronic           
 boundary is built as a function of a smooth density
 function type              =  2 
 using the modified SCCS function with parameters 
 rhomax                     =      0.0050000 
 rhomin                     =      0.0001000 

%%%% DIELECTRIC %%%%%%%%%%%%%%%%%%%%%%%%%%%%%%%%%%%%%%%%%%%%%%%%%%%%%%%%%%%%%%%%%
 dielectric build on homogeneous background
 environment bulk permitt.  =    100.0000000 
 dielectric flags
 need gradient              =  F 
 need factor depend. sqrt   =  F 
 need gradient of logarithm =  T 

%%%% COMPUTE ELECTROSTATIC POTENTIAL %%%%%%%%%%%%%%%%%%%%%%%%%%%%%%%%%%%%%%%%%%%
 Starting from polarization: rhoiter =      1.775071 jellium =      0.000000
 Iteration #          1
 delta_qm =   0.890268E-03 delta_en =   0.136957E+01 tol =   0.100000E-03
 Iteration #          2
 delta_qm =   0.482027E-03 delta_en =   0.401501E+00 tol =   0.100000E-03
 Iteration #          3
 delta_qm =   0.364151E-03 delta_en =   0.229143E+00 tol =   0.100000E-03
 Iteration #          4
 delta_qm =   0.278192E-03 delta_en =   0.133731E+00 tol =   0.100000E-03
 Iteration #          5
 delta_qm =   0.204309E-03 delta_en =   0.721303E-01 tol =   0.100000E-03
 Iteration #          6
 delta_qm =   0.147910E-03 delta_en =   0.378039E-01 tol =   0.100000E-03
 Iteration #          7
 delta_qm =   0.107194E-03 delta_en =   0.198557E-01 tol =   0.100000E-03
 Iteration #          8
 delta_qm =   0.777860E-04 delta_en =   0.104555E-01 tol =   0.100000E-03
 Iteration #          9
 delta_qm =   0.561717E-04 delta_en =   0.545229E-02 tol =   0.100000E-03
 Iteration #         10
 delta_qm =   0.401969E-04 delta_en =   0.279208E-02 tol =   0.100000E-03
 Iteration #         11
 delta_qm =   0.285521E-04 delta_en =   0.140871E-02 tol =   0.100000E-03
 Iteration #         12
 delta_qm =   0.202644E-04 delta_en =   0.709593E-03 tol =   0.100000E-03
 Iteration #         13
 delta_qm =   0.144651E-04 delta_en =   0.361564E-03 tol =   0.100000E-03
 Iteration #         14
 delta_qm =   0.103949E-04 delta_en =   0.186717E-03 tol =   0.100000E-03
 Iteration #         15
 delta_qm =   0.748479E-05 delta_en =   0.968060E-04 tol =   0.100000E-03
 Charges are converged, exit!

%%%% ELECTRONS %%%%%%%%%%%%%%%%%%%%%%%%%%%%%%%%%%%%%%%%%%%%%%%%%%%%%%%%%%%%%%%%%
 number of electrons        =         24
 total electronic charge    =     24.0000000
 number of spin components  =  1

%%%% BOUNDARY %%%%%%%%%%%%%%%%%%%%%%%%%%%%%%%%%%%%%%%%%%%%%%%%%%%%%%%%%%%%%%%%%%
 boundary mode              = electronic           
 boundary is built as a function of a smooth density
 function type              =  2 
 using the modified SCCS function with parameters 
 rhomax                     =      0.0050000 
 rhomin                     =      0.0001000 

%%%% DIELECTRIC %%%%%%%%%%%%%%%%%%%%%%%%%%%%%%%%%%%%%%%%%%%%%%%%%%%%%%%%%%%%%%%%%
 dielectric build on homogeneous background
 environment bulk permitt.  =    100.0000000 
 dielectric flags
 need gradient              =  F 
 need factor depend. sqrt   =  F 
 need gradient of logarithm =  T 

%%%% COMPUTE ELECTROSTATIC POTENTIAL %%%%%%%%%%%%%%%%%%%%%%%%%%%%%%%%%%%%%%%%%%%
 Starting from polarization: rhoiter =      1.556642 jellium =      0.000000
 Iteration #          1
 delta_qm =   0.532051E-03 delta_en =   0.489160E+00 tol =   0.100000E-03
 Iteration #          2
 delta_qm =   0.315757E-03 delta_en =   0.172286E+00 tol =   0.100000E-03
 Iteration #          3
 delta_qm =   0.221927E-03 delta_en =   0.851070E-01 tol =   0.100000E-03
 Iteration #          4
 delta_qm =   0.169672E-03 delta_en =   0.497468E-01 tol =   0.100000E-03
 Iteration #          5
 delta_qm =   0.129466E-03 delta_en =   0.289637E-01 tol =   0.100000E-03
 Iteration #          6
 delta_qm =   0.962788E-04 delta_en =   0.160179E-01 tol =   0.100000E-03
 Iteration #          7
 delta_qm =   0.700968E-04 delta_en =   0.849064E-02 tol =   0.100000E-03
 Iteration #          8
 delta_qm =   0.506446E-04 delta_en =   0.443210E-02 tol =   0.100000E-03
 Iteration #          9
 delta_qm =   0.368225E-04 delta_en =   0.234299E-02 tol =   0.100000E-03
 Iteration #         10
 delta_qm =   0.271152E-04 delta_en =   0.127048E-02 tol =   0.100000E-03
 Iteration #         11
 delta_qm =   0.201192E-04 delta_en =   0.699464E-03 tol =   0.100000E-03
 Iteration #         12
 delta_qm =   0.148729E-04 delta_en =   0.382238E-03 tol =   0.100000E-03
 Iteration #         13
 delta_qm =   0.108640E-04 delta_en =   0.203949E-03 tol =   0.100000E-03
 Iteration #         14
 delta_qm =   0.784902E-05 delta_en =   0.106457E-03 tol =   0.100000E-03
 Iteration #         15
 delta_qm =   0.567177E-05 delta_en =   0.555880E-04 tol =   0.100000E-03
 Charges are converged, exit!

%%%% ELECTRONS %%%%%%%%%%%%%%%%%%%%%%%%%%%%%%%%%%%%%%%%%%%%%%%%%%%%%%%%%%%%%%%%%
 number of electrons        =         24
 total electronic charge    =     24.0000000
 number of spin components  =  1

%%%% BOUNDARY %%%%%%%%%%%%%%%%%%%%%%%%%%%%%%%%%%%%%%%%%%%%%%%%%%%%%%%%%%%%%%%%%%
 boundary mode              = electronic           
 boundary is built as a function of a smooth density
 function type              =  2 
 using the modified SCCS function with parameters 
 rhomax                     =      0.0050000 
 rhomin                     =      0.0001000 

%%%% DIELECTRIC %%%%%%%%%%%%%%%%%%%%%%%%%%%%%%%%%%%%%%%%%%%%%%%%%%%%%%%%%%%%%%%%%
 dielectric build on homogeneous background
 environment bulk permitt.  =    100.0000000 
 dielectric flags
 need gradient              =  F 
 need factor depend. sqrt   =  F 
 need gradient of logarithm =  T 

%%%% COMPUTE ELECTROSTATIC POTENTIAL %%%%%%%%%%%%%%%%%%%%%%%%%%%%%%%%%%%%%%%%%%%
 Starting from polarization: rhoiter =      1.396833 jellium =      0.000000
 Iteration #          1
 delta_qm =   0.429139E-03 delta_en =   0.318229E+00 tol =   0.100000E-03
 Iteration #          2
 delta_qm =   0.268388E-03 delta_en =   0.124471E+00 tol =   0.100000E-03
 Iteration #          3
 delta_qm =   0.210143E-03 delta_en =   0.763085E-01 tol =   0.100000E-03
 Iteration #          4
 delta_qm =   0.171697E-03 delta_en =   0.509412E-01 tol =   0.100000E-03
 Iteration #          5
 delta_qm =   0.133609E-03 delta_en =   0.308473E-01 tol =   0.100000E-03
 Iteration #          6
 delta_qm =   0.991588E-04 delta_en =   0.169905E-01 tol =   0.100000E-03
 Iteration #          7
 delta_qm =   0.722152E-04 delta_en =   0.901158E-02 tol =   0.100000E-03
 Iteration #          8
 delta_qm =   0.531696E-04 delta_en =   0.488507E-02 tol =   0.100000E-03
 Iteration #          9
 delta_qm =   0.399686E-04 delta_en =   0.276047E-02 tol =   0.100000E-03
 Iteration #         10
 delta_qm =   0.302238E-04 delta_en =   0.157849E-02 tol =   0.100000E-03
 Iteration #         11
 delta_qm =   0.225168E-04 delta_en =   0.876106E-03 tol =   0.100000E-03
 Iteration #         12
 delta_qm =   0.163731E-04 delta_en =   0.463242E-03 tol =   0.100000E-03
 Iteration #         13
 delta_qm =   0.117052E-04 delta_en =   0.236754E-03 tol =   0.100000E-03
 Iteration #         14
 delta_qm =   0.839879E-05 delta_en =   0.121893E-03 tol =   0.100000E-03
 Iteration #         15
 delta_qm =   0.617640E-05 delta_en =   0.659196E-04 tol =   0.100000E-03
 Charges are converged, exit!

%%%% ELECTRONS %%%%%%%%%%%%%%%%%%%%%%%%%%%%%%%%%%%%%%%%%%%%%%%%%%%%%%%%%%%%%%%%%
 number of electrons        =         24
 total electronic charge    =     24.0000000
 number of spin components  =  1

%%%% BOUNDARY %%%%%%%%%%%%%%%%%%%%%%%%%%%%%%%%%%%%%%%%%%%%%%%%%%%%%%%%%%%%%%%%%%
 boundary mode              = electronic           
 boundary is built as a function of a smooth density
 function type              =  2 
 using the modified SCCS function with parameters 
 rhomax                     =      0.0050000 
 rhomin                     =      0.0001000 

%%%% DIELECTRIC %%%%%%%%%%%%%%%%%%%%%%%%%%%%%%%%%%%%%%%%%%%%%%%%%%%%%%%%%%%%%%%%%
 dielectric build on homogeneous background
 environment bulk permitt.  =    100.0000000 
 dielectric flags
 need gradient              =  F 
 need factor depend. sqrt   =  F 
 need gradient of logarithm =  T 
