
     Program PWSCF v.6.1 (svn rev. 13369) starts on 14Nov2017 at 14:37: 2 

     This program is part of the open-source Quantum ESPRESSO suite
     for quantum simulation of materials; please cite
         "P. Giannozzi et al., J. Phys.:Condens. Matter 21 395502 (2009);
          URL http://www.quantum-espresso.org", 
     in publications or presentations arising from this work. More details at
     http://www.quantum-espresso.org/quote

     Parallel version (MPI), running on     1 processors
     Reading input from neutral.in

     Current dimensions of program PWSCF are:
     Max number of different atomic species (ntypx) = 10
     Max number of k-points (npk) =  40000
     Max angular momentum in pseudopotentials (lmaxx) =  3
               file H.pbe-rrkjus.UPF: wavefunction(s)  1S renormalized
               file O.pbe-rrkjus.UPF: wavefunction(s)  2S renormalized

     gamma-point specific algorithms are used

     Subspace diagonalization in iterative solution of the eigenvalue problem:
     a serial algorithm will be used

 
     G-vector sticks info
     --------------------
     sticks:   dense  smooth     PW     G-vecs:    dense   smooth      PW
     Sum        9549    3809    949               701475   177509   22119
 


     bravais-lattice index     =            1
     lattice parameter (alat)  =      20.0000  a.u.
     unit-cell volume          =    8000.0000 (a.u.)^3
     number of atoms/cell      =            3
     number of atomic types    =            2
     number of electrons       =         8.00
     number of Kohn-Sham states=            4
     kinetic-energy cutoff     =      30.0000  Ry
     charge density cutoff     =     300.0000  Ry
     convergence threshold     =      5.0E-03
     mixing beta               =       0.7000
     number of iterations used =            8  plain     mixing
     Exchange-correlation      =  SLA  PW   PBE  PBE ( 1  4  3  4 0 0)
 

     Environ Module
     ==============

     Plese cite
         O. Andreussi, I. Dabo and N. Marzari, J. Chem. Phys. 136, 064102 (2012)         
     in publications or presentations arising from this work.

     compensation onset threshold      =               0.1000E+03 
     switching function adopted        =                     SCCS 
     density limit for vacuum region   =               0.5000E-02 
     density limit for bulk solvent    =               0.1000E-03 
     static permittivity               =                   100.00 
     epsilon calculation mode          =               electronic 

     Electrostatic Setup
     -------------------
     electrostatic problem to solve    = generalized              
     numerical solver adopted          = cg                       
     type of auxiliary density adopted = none                     
     type of core tool for poisson     = fft                      
     type of core tool for s(r) deriv  = analytic                 



     celldm(1)=  20.000000  celldm(2)=   0.000000  celldm(3)=   0.000000
     celldm(4)=   0.000000  celldm(5)=   0.000000  celldm(6)=   0.000000

     crystal axes: (cart. coord. in units of alat)
               a(1) = (   1.000000   0.000000   0.000000 )  
               a(2) = (   0.000000   1.000000   0.000000 )  
               a(3) = (   0.000000   0.000000   1.000000 )  

     reciprocal axes: (cart. coord. in units 2 pi/alat)
               b(1) = (  1.000000  0.000000  0.000000 )  
               b(2) = (  0.000000  1.000000  0.000000 )  
               b(3) = (  0.000000  0.000000  1.000000 )  


     PseudoPot. # 1 for H  read from file:
     /home/andreo/PWSCF/espresso-6.1-Environ-1.0/Environ/tests/../..//pseudo/H.pbe-rrkjus.UPF
     MD5 check sum: 7cc9d459525c9a0585f487a71c3c9563
     Pseudo is Ultrasoft, Zval =  1.0
     Generated by new atomic code, or converted to UPF format
     Using radial grid of 1061 points,  2 beta functions with: 
                l(1) =   0
                l(2) =   0
     Q(r) pseudized with 0 coefficients 


     PseudoPot. # 2 for O  read from file:
     /home/andreo/PWSCF/espresso-6.1-Environ-1.0/Environ/tests/../..//pseudo/O.pbe-rrkjus.UPF
     MD5 check sum: 390ba29e75625707450f3bd3f0eb6be9
     Pseudo is Ultrasoft, Zval =  6.0
     Generated by new atomic code, or converted to UPF format
     Using radial grid of 1269 points,  4 beta functions with: 
                l(1) =   0
                l(2) =   0
                l(3) =   1
                l(4) =   1
     Q(r) pseudized with 0 coefficients 


     atomic species   valence    mass     pseudopotential
        H              1.00     1.00000     H ( 1.00)
        O              6.00    16.00000     O ( 1.00)

     No symmetry found



   Cartesian axes

     site n.     atom                  positions (alat units)
         1           O   tau(   1) = (   0.5895000   0.6025000   0.5750000  )
         2           H   tau(   2) = (   0.6725000   0.5610000   0.5750000  )
         3           H   tau(   3) = (   0.5280000   0.5330000   0.5750000  )

     number of k points=     1
                       cart. coord. in units 2pi/alat
        k(    1) = (   0.0000000   0.0000000   0.0000000), wk =   2.0000000

     Dense  grid:   350738 G-vectors     FFT dimensions: ( 120, 120, 120)

     Smooth grid:    88755 G-vectors     FFT dimensions: (  72,  72,  72)

     Estimated max dynamical RAM per process >     270.62MB

     Initial potential from superposition of free atoms
     Check: negative starting charge=   -0.000775

     starting charge    7.80759, renormalised to    8.00000

     negative rho (up, down):  7.936E-04 0.000E+00
     Starting wfc are    6 randomized atomic wfcs

     total cpu time spent up to now is        2.8 secs

     per-process dynamical memory:   562.2 Mb

     Self-consistent Calculation

     iteration #  1     ecut=    30.00 Ry     beta=0.70
     Davidson diagonalization with overlap
     ethr =  1.00E-02,  avg # of iterations =  2.0

     negative rho (up, down):  2.595E-04 0.000E+00

     add environment contribution to local potential
     polarization accuracy = 2.3E-06, # of iterations =  11

     total cpu time spent up to now is        7.7 secs

     total energy              =     -34.06236055 Ry
     Harris-Foulkes estimate   =     -34.58697711 Ry
     estimated scf accuracy    <       0.68458994 Ry
     electrostatic embedding   =       0.00000000 Ry
     correction to one-el term =       0.00000000 Ry

     iteration #  2     ecut=    30.00 Ry     beta=0.70
     Davidson diagonalization with overlap
     ethr =  8.56E-03,  avg # of iterations =  2.0

     negative rho (up, down):  2.656E-03 0.000E+00

     add environment contribution to local potential
     polarization accuracy = 5.4E-06, # of iterations =  12

     total cpu time spent up to now is       12.7 secs

     total energy              =     -34.21517594 Ry
     Harris-Foulkes estimate   =     -33.94013142 Ry
     estimated scf accuracy    <       0.35519133 Ry
     electrostatic embedding   =      -0.03412325 Ry
     correction to one-el term =      -0.42399213 Ry

     iteration #  3     ecut=    30.00 Ry     beta=0.70
     Davidson diagonalization with overlap
     ethr =  4.44E-03,  avg # of iterations =  2.0

     negative rho (up, down):  2.205E-04 0.000E+00

     add environment contribution to local potential
     polarization accuracy = 5.2E-06, # of iterations =  13

     total cpu time spent up to now is       17.6 secs

     total energy              =     -34.28765196 Ry
     Harris-Foulkes estimate   =     -33.97795053 Ry
     estimated scf accuracy    <       0.01537480 Ry
     electrostatic embedding   =      -0.02912176 Ry
     correction to one-el term =      -0.28922856 Ry

     iteration #  4     ecut=    30.00 Ry     beta=0.70
     Davidson diagonalization with overlap
     ethr =  1.92E-04,  avg # of iterations =  2.0

     negative rho (up, down):  2.142E-04 0.000E+00

     total cpu time spent up to now is       19.9 secs

     End of self-consistent calculation

          k = 0.0000 0.0000 0.0000 ( 11060 PWs)   bands (ev):

   -24.5417 -12.3152  -8.7692  -6.7994

     highest occupied level (ev):    -6.7994

!    total energy              =     -34.29562469 Ry
     Harris-Foulkes estimate   =     -34.17196653 Ry
     estimated scf accuracy    <       0.00017514 Ry

     The total energy is the sum of the following terms:

     one-electron contribution =     -63.79214484 Ry
     hartree contribution      =      33.45946664 Ry
     xc contribution           =      -8.39660685 Ry
     ewald contribution        =       4.55735774 Ry
     electrostatic embedding   =      -0.03350780 Ry
     correction to one-el term =      -0.09018959 Ry

     convergence has been achieved in   4 iterations

     Forces acting on atoms (cartesian axes, Ry/au):

     atom    1 type  2   force =     0.00237534   -0.01240007   -0.00001440
     atom    2 type  1   force =    -0.00871856    0.00471823    0.00000691
     atom    3 type  1   force =     0.00634322    0.00768184    0.00000749

     Total force =     0.018892     Total SCF correction =     0.022982
     SCF correction compared to forces is large: reduce conv_thr to get better values

     Writing output data file pwscf.save
 
     init_run     :      2.11s CPU      2.71s WALL (       1 calls)
     electrons    :     13.04s CPU     18.55s WALL (       1 calls)
     forces       :      0.73s CPU      0.95s WALL (       1 calls)

     Called by init_run:
     wfcinit      :      0.04s CPU      0.04s WALL (       1 calls)
     potinit      :      0.95s CPU      1.12s WALL (       1 calls)

     Called by electrons:
     c_bands      :      0.32s CPU      0.31s WALL (       4 calls)
     sum_band     :      1.55s CPU      2.15s WALL (       4 calls)
     v_of_rho     :      3.21s CPU      3.79s WALL (       5 calls)
     newd         :      0.76s CPU      1.39s WALL (       5 calls)
     mix_rho      :      0.30s CPU      0.31s WALL (       4 calls)

     Called by c_bands:
     init_us_2    :      0.02s CPU      0.02s WALL (       9 calls)
     regterg      :      0.29s CPU      0.29s WALL (       4 calls)

     Called by sum_band:
     sum_band:bec :      0.00s CPU      0.00s WALL (       4 calls)
     addusdens    :      0.97s CPU      1.56s WALL (       4 calls)

     Called by *egterg:
     h_psi        :      0.31s CPU      0.30s WALL (      13 calls)
     s_psi        :      0.00s CPU      0.00s WALL (      13 calls)
     g_psi        :      0.00s CPU      0.00s WALL (       8 calls)
     rdiaghg      :      0.00s CPU      0.00s WALL (      12 calls)

     Called by h_psi:
     h_psi:pot    :      0.31s CPU      0.30s WALL (      13 calls)
     h_psi:calbec :      0.00s CPU      0.01s WALL (      13 calls)
     vloc_psi     :      0.29s CPU      0.29s WALL (      13 calls)
     add_vuspsi   :      0.02s CPU      0.00s WALL (      13 calls)

     General routines
     calbec       :      0.01s CPU      0.01s WALL (      21 calls)
     fft          :      6.39s CPU      7.45s WALL (     201 calls)
     ffts         :      0.05s CPU      0.06s WALL (       9 calls)
     fftw         :      0.26s CPU      0.26s WALL (      62 calls)
     interpolate  :      0.43s CPU      0.50s WALL (       9 calls)
     davcio       :      0.00s CPU      0.00s WALL (       1 calls)
 
     Parallel routines
     fft_scatter  :      1.47s CPU      2.07s WALL (     272 calls)
 
     Environ routines
     calc_eelect  :      0.02s CPU      0.01s WALL (       8 calls)
     calc_velect  :      4.72s CPU      6.78s WALL (       6 calls)
     dielectric   :      0.40s CPU      0.40s WALL (       5 calls)
     calc_felect  :      0.28s CPU      0.33s WALL (       1 calls)
 
     PWSCF        :    16.03s CPU        24.45s WALL

 
   This run was terminated on:  14:37:27  14Nov2017            

=------------------------------------------------------------------------------=
   JOB DONE.
=------------------------------------------------------------------------------=

%%%% IONS %%%%%%%%%%%%%%%%%%%%%%%%%%%%%%%%%%%%%%%%%%%%%%%%%%%%%%%%%%%%%%%%%%%%%%
 number of ions             =          3
 ionic center of charge     =      0.5921875     0.5886250     0.5750000
 total ionic charge         =     -8.0000000
 ionic dipole               =      0.0000000     0.0000000     0.0000000
 ionic quadrupole (pc)      =     -4.2453875    -2.0049500     0.0000000
 ionic quadrupole (gauss)   =     -5.2453875    -3.0049500    -1.0000000
 ion   1 type =  2 coordinates =     11.7900000    12.0500000    11.5000000
 ion   2 type =  1 coordinates =     13.4500000    11.2200000    11.5000000
 ion   3 type =  1 coordinates =     10.5600000    10.6600000    11.5000000

%%%% SYSTEM %%%%%%%%%%%%%%%%%%%%%%%%%%%%%%%%%%%%%%%%%%%%%%%%%%%%%%%%%%%%%%%%%%%%
 system is built from all present ionic types
 system defined dimension   =  0 
 system defined axis        =  3 
 system center              =      0.5921875     0.5886250     0.5750000 
 system width               =      0.1209428 

%%%% ELECTRONS %%%%%%%%%%%%%%%%%%%%%%%%%%%%%%%%%%%%%%%%%%%%%%%%%%%%%%%%%%%%%%%%%
 number of electrons        =          8
 total electronic charge    =      8.0000000
 number of spin components  =  1

%%%% BOUNDARY %%%%%%%%%%%%%%%%%%%%%%%%%%%%%%%%%%%%%%%%%%%%%%%%%%%%%%%%%%%%%%%%%%
 boundary mode              = electronic           
 boundary is built as a function of a smooth density
 function type              =  1 
 using the optimal SCCS function with parameters 
 rhomax                     =      0.0050000 
 rhomin                     =      0.0001000 
 volume of the QM region    =    220.5941036 
 surface of the QM region   =    175.4344098 

%%%% DIELECTRIC %%%%%%%%%%%%%%%%%%%%%%%%%%%%%%%%%%%%%%%%%%%%%%%%%%%%%%%%%%%%%%%%%
 dielectric build on homogeneous background
 environment bulk permitt.  =    100.0000000 
 dielectric flags
 need gradient              =  F 
 need factor depend. sqrt   =  T 
 need gradient of logarithm =  T 

%%%% COMPUTE ELECTROSTATIC POTENTIAL %%%%%%%%%%%%%%%%%%%%%%%%%%%%%%%%%%%%%%%%%%%
 Iteration #          1
  pAp =    26.7240113349752       rzold =    26.1622024736743       alpha = 
  0.978977375280276     
 delta_qm =   0.832724E-02 delta_en =   0.119825E+03 tol =   0.100000E-04
 Iteration #          2
  pAp =    26.7070375634116       rzold =    3.36932118260705       alpha = 
  0.126158551827665     
 delta_qm =   0.276282E-02 delta_en =   0.131901E+02 tol =   0.100000E-04
 Iteration #          3
  pAp =    1.66084871118290       rzold =   0.235698291288113       alpha = 
  0.141914365649983     
 delta_qm =   0.788670E-03 delta_en =   0.107482E+01 tol =   0.100000E-04
 Iteration #          4
  pAp =   3.307114949230005E-002  rzold =   8.575399290714042E-003  alpha = 
  0.259301518766702     
 delta_qm =   0.436589E-03 delta_en =   0.329375E+00 tol =   0.100000E-04
 Iteration #          5
  pAp =   1.208055238306742E-003  rzold =   7.160170679441820E-004  alpha = 
  0.592702258340256     
 delta_qm =   0.126505E-03 delta_en =   0.276541E-01 tol =   0.100000E-04
 Iteration #          6
  pAp =   2.196878463506990E-004  rzold =   8.600578801404815E-005  alpha = 
  0.391490878729598     
 delta_qm =   0.716146E-04 delta_en =   0.886232E-02 tol =   0.100000E-04
 Iteration #          7
  pAp =   6.787982503923815E-006  rzold =   7.230075961586066E-006  alpha = 
   1.06512884460246     
 delta_qm =   0.330558E-04 delta_en =   0.188816E-02 tol =   0.100000E-04
 Iteration #          8
  pAp =   9.694934973277051E-006  rzold =   4.265639619333155E-006  alpha = 
  0.439986408479365     
 delta_qm =   0.176526E-04 delta_en =   0.538472E-03 tol =   0.100000E-04
 Iteration #          9
  pAp =   6.747667009082197E-006  rzold =   1.942166141528346E-006  alpha = 
  0.287827798691642     
 delta_qm =   0.957677E-05 delta_en =   0.158483E-03 tol =   0.100000E-04
 Iteration #         10
  pAp =   1.207006713901646E-006  rzold =   3.878621633890918E-007  alpha = 
  0.321342175583538     
 delta_qm =   0.502009E-05 delta_en =   0.435479E-04 tol =   0.100000E-04
 Iteration #         11
  pAp =   1.176056321788616E-007  rzold =   7.273621442601128E-008  alpha = 
  0.618475604258389     
 delta_qm =   0.115808E-05 delta_en =   0.231752E-05 tol =   0.100000E-04
 Charges are converged, EXIT

%%%% ELECTRONS %%%%%%%%%%%%%%%%%%%%%%%%%%%%%%%%%%%%%%%%%%%%%%%%%%%%%%%%%%%%%%%%%
 number of electrons        =          8
 total electronic charge    =      8.0000000
 number of spin components  =  1

%%%% BOUNDARY %%%%%%%%%%%%%%%%%%%%%%%%%%%%%%%%%%%%%%%%%%%%%%%%%%%%%%%%%%%%%%%%%%
 boundary mode              = electronic           
 boundary is built as a function of a smooth density
 function type              =  1 
 using the optimal SCCS function with parameters 
 rhomax                     =      0.0050000 
 rhomin                     =      0.0001000 
 volume of the QM region    =    247.0039566 
 surface of the QM region   =    189.1847353 

%%%% DIELECTRIC %%%%%%%%%%%%%%%%%%%%%%%%%%%%%%%%%%%%%%%%%%%%%%%%%%%%%%%%%%%%%%%%%
 dielectric build on homogeneous background
 environment bulk permitt.  =    100.0000000 
 dielectric flags
 need gradient              =  F 
 need factor depend. sqrt   =  T 
 need gradient of logarithm =  T 

%%%% COMPUTE ELECTROSTATIC POTENTIAL %%%%%%%%%%%%%%%%%%%%%%%%%%%%%%%%%%%%%%%%%%%
 Warning: bad guess with residual norm =   0.454906E+02, reset to no guess
 Iteration #          1
  pAp =    28.9426707396200       rzold =    28.5284844294754       alpha = 
  0.985689423278495     
 delta_qm =   0.102050E-01 delta_en =   0.179958E+03 tol =   0.100000E-04
 Iteration #          2
  pAp =    19.8540074476257       rzold =    2.50856777637377       alpha = 
  0.126350701891863     
 delta_qm =   0.321020E-02 delta_en =   0.178077E+02 tol =   0.100000E-04
 Iteration #          3
  pAp =    1.15882078786400       rzold =   0.165128659481937       alpha = 
  0.142497149871044     
 delta_qm =   0.100495E-02 delta_en =   0.174515E+01 tol =   0.100000E-04
 Iteration #          4
  pAp =   2.955095129347385E-002  rzold =   7.208355095095207E-003  alpha = 
  0.243929713920483     
 delta_qm =   0.590694E-03 delta_en =   0.602933E+00 tol =   0.100000E-04
 Iteration #          5
  pAp =   9.751005775833865E-004  rzold =   5.919384389662561E-004  alpha = 
  0.607053726122561     
 delta_qm =   0.208460E-03 delta_en =   0.750914E-01 tol =   0.100000E-04
 Iteration #          6
  pAp =   1.789966167432364E-004  rzold =   6.809094401539154E-005  alpha = 
  0.380403525241292     
 delta_qm =   0.146215E-03 delta_en =   0.369424E-01 tol =   0.100000E-04
 Iteration #          7
  pAp =   1.165998948352681E-005  rzold =   1.033757310219644E-005  alpha = 
  0.886585113717411     
 delta_qm =   0.750026E-04 delta_en =   0.972068E-02 tol =   0.100000E-04
 Iteration #          8
  pAp =   1.879910543543444E-005  rzold =   8.790886630744730E-006  alpha = 
  0.467622603689151     
 delta_qm =   0.282831E-04 delta_en =   0.138229E-02 tol =   0.100000E-04
 Iteration #          9
  pAp =   3.313662476645780E-006  rzold =   1.458998019420499E-006  alpha = 
  0.440297715806395     
 delta_qm =   0.145635E-04 delta_en =   0.366503E-03 tol =   0.100000E-04
 Iteration #         10
  pAp =   2.427849579592330E-006  rzold =   5.467683507853661E-007  alpha = 
  0.225206847813519     
 delta_qm =   0.919085E-05 delta_en =   0.145967E-03 tol =   0.100000E-04
 Iteration #         11
  pAp =   1.506305283769435E-007  rzold =   9.244607253309594E-008  alpha = 
  0.613727333557215     
 delta_qm =   0.268045E-05 delta_en =   0.124153E-04 tol =   0.100000E-04
 Iteration #         12
  pAp =   1.281974371541119E-008  rzold =   6.093027121417285E-009  alpha = 
  0.475284627889447     
 delta_qm =   0.177037E-05 delta_en =   0.541594E-05 tol =   0.100000E-04
 Charges are converged, EXIT

%%%% ELECTRONS %%%%%%%%%%%%%%%%%%%%%%%%%%%%%%%%%%%%%%%%%%%%%%%%%%%%%%%%%%%%%%%%%
 number of electrons        =          8
 total electronic charge    =      8.0000000
 number of spin components  =  1

%%%% BOUNDARY %%%%%%%%%%%%%%%%%%%%%%%%%%%%%%%%%%%%%%%%%%%%%%%%%%%%%%%%%%%%%%%%%%
 boundary mode              = electronic           
 boundary is built as a function of a smooth density
 function type              =  1 
 using the optimal SCCS function with parameters 
 rhomax                     =      0.0050000 
 rhomin                     =      0.0001000 
 volume of the QM region    =    228.7979911 
 surface of the QM region   =    180.1317868 

%%%% DIELECTRIC %%%%%%%%%%%%%%%%%%%%%%%%%%%%%%%%%%%%%%%%%%%%%%%%%%%%%%%%%%%%%%%%%
 dielectric build on homogeneous background
 environment bulk permitt.  =    100.0000000 
 dielectric flags
 need gradient              =  F 
 need factor depend. sqrt   =  T 
 need gradient of logarithm =  T 

%%%% COMPUTE ELECTROSTATIC POTENTIAL %%%%%%%%%%%%%%%%%%%%%%%%%%%%%%%%%%%%%%%%%%%
 Warning: bad guess with residual norm =   0.265175E+02, reset to no guess
 Iteration #          1
  pAp =    28.8382696996130       rzold =    28.4041423666062       alpha = 
  0.984946137978151     
 delta_qm =   0.106345E-01 delta_en =   0.195426E+03 tol =   0.100000E-04
 Iteration #          2
  pAp =    19.4713562004401       rzold =    2.55647855845731       alpha = 
  0.131294324449754     
 delta_qm =   0.257407E-02 delta_en =   0.114495E+02 tol =   0.100000E-04
 Iteration #          3
  pAp =    1.53269393705845       rzold =   0.177438428873466       alpha = 
  0.115768989870219     
 delta_qm =   0.921760E-03 delta_en =   0.146818E+01 tol =   0.100000E-04
 Iteration #          4
  pAp =   5.371364364275327E-002  rzold =   1.104033228440897E-002  alpha = 
  0.205540557960239     
 delta_qm =   0.538563E-03 delta_en =   0.501206E+00 tol =   0.100000E-04
 Iteration #          5
  pAp =   1.189937876059991E-003  rzold =   7.000849133810893E-004  alpha = 
  0.588337364047225     
 delta_qm =   0.190546E-03 delta_en =   0.627401E-01 tol =   0.100000E-04
 Iteration #          6
  pAp =   4.247210013699371E-004  rzold =   1.403017725998096E-004  alpha = 
  0.330338674441025     
 delta_qm =   0.132110E-03 delta_en =   0.301591E-01 tol =   0.100000E-04
 Iteration #          7
  pAp =   2.156053845111904E-005  rzold =   1.387888317953925E-005  alpha = 
  0.643716909529173     
 delta_qm =   0.897996E-04 delta_en =   0.139345E-01 tol =   0.100000E-04
 Iteration #          8
  pAp =   1.975971875673127E-005  rzold =   1.242377295864981E-005  alpha = 
  0.628742398189123     
 delta_qm =   0.350283E-04 delta_en =   0.212023E-02 tol =   0.100000E-04
 Iteration #          9
  pAp =   1.132981828984981E-005  rzold =   3.988090553299534E-006  alpha = 
  0.351999515903304     
 delta_qm =   0.224321E-04 delta_en =   0.869532E-03 tol =   0.100000E-04
 Iteration #         10
  pAp =   9.119238533199415E-006  rzold =   2.029267709888692E-006  alpha = 
  0.222526003953176     
 delta_qm =   0.148705E-04 delta_en =   0.382115E-03 tol =   0.100000E-04
 Iteration #         11
  pAp =   3.060552400678737E-007  rzold =   2.160368472755290E-007  alpha = 
  0.705875342070989     
 delta_qm =   0.463527E-05 delta_en =   0.371274E-04 tol =   0.100000E-04
 Iteration #         12
  pAp =   7.731040128702395E-008  rzold =   3.258161101849545E-008  alpha = 
  0.421438907004665     
 delta_qm =   0.298377E-05 delta_en =   0.153842E-04 tol =   0.100000E-04
 Iteration #         13
  pAp =   1.229956915113548E-008  rzold =   7.386392668674830E-009  alpha = 
  0.600540765120454     
 delta_qm =   0.172879E-05 delta_en =   0.516448E-05 tol =   0.100000E-04
 Charges are converged, EXIT

%%%% ELECTRONS %%%%%%%%%%%%%%%%%%%%%%%%%%%%%%%%%%%%%%%%%%%%%%%%%%%%%%%%%%%%%%%%%
 number of electrons        =          8
 total electronic charge    =      8.0000000
 number of spin components  =  1

%%%% BOUNDARY %%%%%%%%%%%%%%%%%%%%%%%%%%%%%%%%%%%%%%%%%%%%%%%%%%%%%%%%%%%%%%%%%%
 boundary mode              = electronic           
 boundary is built as a function of a smooth density
 function type              =  1 
 using the optimal SCCS function with parameters 
 rhomax                     =      0.0050000 
 rhomin                     =      0.0001000 
 volume of the QM region    =    228.7979911 
 surface of the QM region   =    180.1317868 

%%%% DIELECTRIC %%%%%%%%%%%%%%%%%%%%%%%%%%%%%%%%%%%%%%%%%%%%%%%%%%%%%%%%%%%%%%%%%
 dielectric build on homogeneous background
 environment bulk permitt.  =    100.0000000 
 dielectric flags
 need gradient              =  F 
 need factor depend. sqrt   =  T 
 need gradient of logarithm =  T 
