
     Program PWSCF v.6.1 (svn rev. 13369) starts on  1Feb2018 at 12:13:38 

     This program is part of the open-source Quantum ESPRESSO suite
     for quantum simulation of materials; please cite
         "P. Giannozzi et al., J. Phys.:Condens. Matter 21 395502 (2009);
          URL http://www.quantum-espresso.org", 
     in publications or presentations arising from this work. More details at
     http://www.quantum-espresso.org/quote

     Parallel version (MPI), running on     1 processors
     Reading input from neutral.in

     Current dimensions of program PWSCF are:
     Max number of different atomic species (ntypx) = 10
     Max number of k-points (npk) =  40000
     Max angular momentum in pseudopotentials (lmaxx) =  3
               file H.pbe-rrkjus.UPF: wavefunction(s)  1S renormalized
               file O.pbe-rrkjus.UPF: wavefunction(s)  2S renormalized

     gamma-point specific algorithms are used

     Subspace diagonalization in iterative solution of the eigenvalue problem:
     a serial algorithm will be used

 
     G-vector sticks info
     --------------------
     sticks:   dense  smooth     PW     G-vecs:    dense   smooth      PW
     Sum        9549    3809    949               701475   177509   22119
 


     bravais-lattice index     =            1
     lattice parameter (alat)  =      20.0000  a.u.
     unit-cell volume          =    8000.0000 (a.u.)^3
     number of atoms/cell      =            3
     number of atomic types    =            2
     number of electrons       =         8.00
     number of Kohn-Sham states=            4
     kinetic-energy cutoff     =      30.0000  Ry
     charge density cutoff     =     300.0000  Ry
     convergence threshold     =      5.0E-03
     mixing beta               =       0.7000
     number of iterations used =            8  plain     mixing
     Exchange-correlation      =  SLA  PW   PBE  PBE ( 1  4  3  4 0 0)
 

     Environ Module
     ==============

     Plese cite
         O. Andreussi, I. Dabo and N. Marzari, J. Chem. Phys. 136, 064102 (2012)         
     in publications or presentations arising from this work.

     compensation onset threshold      =               0.1000E+03 
     static permittivity               =                   100.00 
     epsilon calculation mode          =                    ionic 

     Electrostatic Setup
     -------------------
     electrostatic problem to solve    = generalized              
     numerical solver adopted          = cg                       
     type of auxiliary density adopted = none                     
     type of core tool for poisson     = fft                      
     type of core tool for s(r) deriv  = analytic                 



     celldm(1)=  20.000000  celldm(2)=   0.000000  celldm(3)=   0.000000
     celldm(4)=   0.000000  celldm(5)=   0.000000  celldm(6)=   0.000000

     crystal axes: (cart. coord. in units of alat)
               a(1) = (   1.000000   0.000000   0.000000 )  
               a(2) = (   0.000000   1.000000   0.000000 )  
               a(3) = (   0.000000   0.000000   1.000000 )  

     reciprocal axes: (cart. coord. in units 2 pi/alat)
               b(1) = (  1.000000  0.000000  0.000000 )  
               b(2) = (  0.000000  1.000000  0.000000 )  
               b(3) = (  0.000000  0.000000  1.000000 )  


     PseudoPot. # 1 for H  read from file:
     /home/fnattino/Programs/qe-6.1/Environ/tests/../..//pseudo/H.pbe-rrkjus.UPF
     MD5 check sum: 7cc9d459525c9a0585f487a71c3c9563
     Pseudo is Ultrasoft, Zval =  1.0
     Generated by new atomic code, or converted to UPF format
     Using radial grid of 1061 points,  2 beta functions with: 
                l(1) =   0
                l(2) =   0
     Q(r) pseudized with 0 coefficients 


     PseudoPot. # 2 for O  read from file:
     /home/fnattino/Programs/qe-6.1/Environ/tests/../..//pseudo/O.pbe-rrkjus.UPF
     MD5 check sum: 390ba29e75625707450f3bd3f0eb6be9
     Pseudo is Ultrasoft, Zval =  6.0
     Generated by new atomic code, or converted to UPF format
     Using radial grid of 1269 points,  4 beta functions with: 
                l(1) =   0
                l(2) =   0
                l(3) =   1
                l(4) =   1
     Q(r) pseudized with 0 coefficients 


     atomic species   valence    mass     pseudopotential
        H              1.00     1.00000     H ( 1.00)
        O              6.00    16.00000     O ( 1.00)

     No symmetry found



   Cartesian axes

     site n.     atom                  positions (alat units)
         1           O   tau(   1) = (   0.5895000   0.6025000   0.5750000  )
         2           H   tau(   2) = (   0.6725000   0.5610000   0.5750000  )
         3           H   tau(   3) = (   0.5280000   0.5330000   0.5750000  )

     number of k points=     1
                       cart. coord. in units 2pi/alat
        k(    1) = (   0.0000000   0.0000000   0.0000000), wk =   2.0000000

     Dense  grid:   350738 G-vectors     FFT dimensions: ( 120, 120, 120)

     Smooth grid:    88755 G-vectors     FFT dimensions: (  72,  72,  72)

     Estimated max dynamical RAM per process >     270.62MB

     Initial potential from superposition of free atoms
     Check: negative starting charge=   -0.000775

     starting charge    7.80759, renormalised to    8.00000

     negative rho (up, down):  7.936E-04 0.000E+00
     Starting wfc are    6 randomized atomic wfcs

     total cpu time spent up to now is        3.9 secs

     per-process dynamical memory:   531.9 Mb

     Self-consistent Calculation

     iteration #  1     ecut=    30.00 Ry     beta=0.70
     Davidson diagonalization with overlap
     ethr =  1.00E-02,  avg # of iterations =  2.0

     negative rho (up, down):  2.595E-04 0.000E+00

     add environment contribution to local potential
     polarization accuracy = 5.5E-06, # of iterations =  11

     total cpu time spent up to now is        6.2 secs

     total energy              =     -34.06236055 Ry
     Harris-Foulkes estimate   =     -34.58697711 Ry
     estimated scf accuracy    <       0.68458994 Ry
     electrostatic embedding   =       0.00000000 Ry
     correction to one-el term =       0.00000000 Ry

     iteration #  2     ecut=    30.00 Ry     beta=0.70
     Davidson diagonalization with overlap
     ethr =  8.56E-03,  avg # of iterations =  2.0

     negative rho (up, down):  2.759E-03 0.000E+00

     add environment contribution to local potential
     polarization accuracy = 6.0E-06, # of iterations =  11

     total cpu time spent up to now is        8.7 secs

     total energy              =     -34.21447011 Ry
     Harris-Foulkes estimate   =     -33.92300706 Ry
     estimated scf accuracy    <       0.37529611 Ry
     electrostatic embedding   =      -0.05053508 Ry
     correction to one-el term =      -0.43363659 Ry

     iteration #  3     ecut=    30.00 Ry     beta=0.70
     Davidson diagonalization with overlap
     ethr =  4.69E-03,  avg # of iterations =  2.0

     negative rho (up, down):  2.250E-04 0.000E+00

     add environment contribution to local potential
     polarization accuracy = 6.4E-06, # of iterations =  11

     total cpu time spent up to now is       11.0 secs

     total energy              =     -34.30136280 Ry
     Harris-Foulkes estimate   =     -33.90808098 Ry
     estimated scf accuracy    <       0.01713793 Ry
     electrostatic embedding   =      -0.04208478 Ry
     correction to one-el term =      -0.36076054 Ry

     iteration #  4     ecut=    30.00 Ry     beta=0.70
     Davidson diagonalization with overlap
     ethr =  2.14E-04,  avg # of iterations =  2.0

     negative rho (up, down):  2.169E-04 0.000E+00

     total cpu time spent up to now is       11.9 secs

     End of self-consistent calculation

          k = 0.0000 0.0000 0.0000 ( 11060 PWs)   bands (ev):

   -24.7766 -12.5197  -9.1211  -7.1354

     highest occupied level (ev):    -7.1354

!    total energy              =     -34.30871537 Ry
     Harris-Foulkes estimate   =     -34.26288470 Ry
     estimated scf accuracy    <       0.00017562 Ry

     The total energy is the sum of the following terms:

     one-electron contribution =     -63.88577747 Ry
     hartree contribution      =      33.46100047 Ry
     xc contribution           =      -8.39544187 Ry
     ewald contribution        =       4.55735774 Ry
     electrostatic embedding   =      -0.04697223 Ry
     correction to one-el term =       0.00111798 Ry

     convergence has been achieved in   4 iterations

     Forces acting on atoms (cartesian axes, Ry/au):

     atom    1 type  2   force =     0.00023227   -0.00151837   -0.00000089
     atom    2 type  1   force =    -0.00363296    0.00004981    0.00000021
     atom    3 type  1   force =     0.00340069    0.00146857    0.00000068

     Total force =     0.005411     Total SCF correction =     0.031152
     SCF correction compared to forces is large: reduce conv_thr to get better values

     Writing output data file pwscf.save
 
     init_run     :      3.63s CPU      3.82s WALL (       1 calls)
     electrons    :      7.41s CPU      8.09s WALL (       1 calls)
     forces       :      1.84s CPU      1.89s WALL (       1 calls)

     Called by init_run:
     wfcinit      :      0.02s CPU      0.03s WALL (       1 calls)
     potinit      :      0.84s CPU      0.89s WALL (       1 calls)

     Called by electrons:
     c_bands      :      0.19s CPU      0.20s WALL (       4 calls)
     sum_band     :      0.94s CPU      1.02s WALL (       4 calls)
     v_of_rho     :      2.54s CPU      2.66s WALL (       5 calls)
     newd         :      0.54s CPU      0.61s WALL (       5 calls)
     mix_rho      :      0.20s CPU      0.19s WALL (       4 calls)

     Called by c_bands:
     init_us_2    :      0.01s CPU      0.02s WALL (       9 calls)
     regterg      :      0.18s CPU      0.19s WALL (       4 calls)

     Called by sum_band:
     sum_band:bec :      0.00s CPU      0.00s WALL (       4 calls)
     addusdens    :      0.55s CPU      0.62s WALL (       4 calls)

     Called by *egterg:
     h_psi        :      0.19s CPU      0.19s WALL (      13 calls)
     s_psi        :      0.00s CPU      0.00s WALL (      13 calls)
     g_psi        :      0.00s CPU      0.00s WALL (       8 calls)
     rdiaghg      :      0.00s CPU      0.00s WALL (      12 calls)

     Called by h_psi:
     h_psi:pot    :      0.18s CPU      0.19s WALL (      13 calls)
     h_psi:calbec :      0.00s CPU      0.00s WALL (      13 calls)
     vloc_psi     :      0.18s CPU      0.18s WALL (      13 calls)
     add_vuspsi   :      0.00s CPU      0.00s WALL (      13 calls)

     General routines
     calbec       :      0.00s CPU      0.01s WALL (      21 calls)
     fft          :      3.52s CPU      3.86s WALL (     171 calls)
     ffts         :      0.02s CPU      0.03s WALL (       9 calls)
     fftw         :      0.16s CPU      0.14s WALL (      62 calls)
     interpolate  :      0.27s CPU      0.29s WALL (       9 calls)
     davcio       :      0.00s CPU      0.00s WALL (       1 calls)
 
     Parallel routines
     fft_scatter  :      0.88s CPU      1.03s WALL (     242 calls)
 
     Environ routines
     calc_eelect  :      0.01s CPU      0.01s WALL (       8 calls)
     calc_velect  :      3.00s CPU      3.39s WALL (       6 calls)
     dielectric   :      0.10s CPU      0.11s WALL (       2 calls)
     calc_felect  :      0.04s CPU      0.05s WALL (       1 calls)
 
     PWSCF        :    13.03s CPU        13.96s WALL

 
   This run was terminated on:  12:13:52   1Feb2018            

=------------------------------------------------------------------------------=
   JOB DONE.
=------------------------------------------------------------------------------=

%%%% IONS %%%%%%%%%%%%%%%%%%%%%%%%%%%%%%%%%%%%%%%%%%%%%%%%%%%%%%%%%%%%%%%%%%%%%%
 number of ions             =          3
 ionic center of charge     =      0.5921875     0.5886250     0.5750000
 total ionic charge         =     -8.0000000
 ionic dipole               =      0.0000000     0.0000000     0.0000000
 ionic quadrupole (pc)      =     -4.2453875    -2.0049500     0.0000000
 ionic quadrupole (gauss)   =     -5.2453875    -3.0049500    -1.0000000
 ion   1 type =  2 coordinates =     11.7900000    12.0500000    11.5000000
 ion   2 type =  1 coordinates =     13.4500000    11.2200000    11.5000000
 ion   3 type =  1 coordinates =     10.5600000    10.6600000    11.5000000

%%%% SYSTEM %%%%%%%%%%%%%%%%%%%%%%%%%%%%%%%%%%%%%%%%%%%%%%%%%%%%%%%%%%%%%%%%%%%%
 system is built from all present ionic types
 system defined dimension   =  0 
 system defined axis        =  3 
 system center              =      0.5921875     0.5886250     0.5750000 
 system width               =      0.0849363 

%%%% BOUNDARY %%%%%%%%%%%%%%%%%%%%%%%%%%%%%%%%%%%%%%%%%%%%%%%%%%%%%%%%%%%%%%%%%%
 boundary mode              = ionic                
 boundary is built from soft-spheres centered on ionic positions
 solvent-dependent scaling  =      1.0000000 
 softness parameter         =      0.5000000 
 volume of the QM region    =    211.8920528 
 surface of the QM region   =    173.6178424 

%%%% DIELECTRIC %%%%%%%%%%%%%%%%%%%%%%%%%%%%%%%%%%%%%%%%%%%%%%%%%%%%%%%%%%%%%%%%%
 dielectric build on homogeneous background
 environment bulk permitt.  =    100.0000000 
 dielectric flags
 need gradient              =  F 
 need factor depend. sqrt   =  T 
 total dielectric charge    =      0.0000000

%%%% ELECTRONS %%%%%%%%%%%%%%%%%%%%%%%%%%%%%%%%%%%%%%%%%%%%%%%%%%%%%%%%%%%%%%%%%
 number of electrons        =          7
 total electronic charge    =      8.0000000
 number of spin components  =  1

%%%% ELECTRONS %%%%%%%%%%%%%%%%%%%%%%%%%%%%%%%%%%%%%%%%%%%%%%%%%%%%%%%%%%%%%%%%%
 number of electrons        =          7
 total electronic charge    =      8.0000000
 number of spin components  =  1

%%%% COMPUTE ELECTROSTATIC POTENTIAL %%%%%%%%%%%%%%%%%%%%%%%%%%%%%%%%%%%%%%%%%%%
 Iteration #          1
  pAp =    27.1738151017504       rzold =    26.1747685376463       alpha = 
  0.963234953930346     
 delta_qm =   0.129966E-01 delta_en =   0.291878E+03 tol =   0.100000E-04
 Iteration #          2
  pAp =    74.9611053116997       rzold =    7.63223801276090       alpha = 
  0.101815974844887     
 delta_qm =   0.339747E-02 delta_en =   0.199460E+02 tol =   0.100000E-04
 Iteration #          3
  pAp =    2.07081134465027       rzold =   0.339465635666320       alpha = 
  0.163928808166565     
 delta_qm =   0.915432E-03 delta_en =   0.144809E+01 tol =   0.100000E-04
 Iteration #          4
  pAp =   4.077424792976179E-002  rzold =   9.745076770119697E-003  alpha = 
  0.239000772912027     
 delta_qm =   0.516273E-03 delta_en =   0.460578E+00 tol =   0.100000E-04
 Iteration #          5
  pAp =   1.283371384247403E-003  rzold =   7.972917483076776E-004  alpha = 
  0.621247877343959     
 delta_qm =   0.129595E-03 delta_en =   0.290214E-01 tol =   0.100000E-04
 Iteration #          6
  pAp =   3.016042809696416E-004  rzold =   1.046124236668378E-004  alpha = 
  0.346853245353529     
 delta_qm =   0.747084E-04 delta_en =   0.964457E-02 tol =   0.100000E-04
 Iteration #          7
  pAp =   1.597747233943393E-005  rzold =   1.054069677276889E-005  alpha = 
  0.659722423474547     
 delta_qm =   0.462189E-04 delta_en =   0.369134E-02 tol =   0.100000E-04
 Iteration #          8
  pAp =   9.527966890229921E-006  rzold =   6.328629008888008E-006  alpha = 
  0.664216100013682     
 delta_qm =   0.221767E-04 delta_en =   0.849840E-03 tol =   0.100000E-04
 Iteration #          9
  pAp =   8.200273788573370E-006  rzold =   2.174080817199317E-006  alpha = 
  0.265122954824847     
 delta_qm =   0.154924E-04 delta_en =   0.414744E-03 tol =   0.100000E-04
 Iteration #         10
  pAp =   2.351744138727040E-006  rzold =   7.839772733969566E-007  alpha = 
  0.333359935074106     
 delta_qm =   0.827136E-05 delta_en =   0.118222E-03 tol =   0.100000E-04
 Iteration #         11
  pAp =   2.161029131309222E-007  rzold =   1.316697487695750E-007  alpha = 
  0.609291873311329     
 delta_qm =   0.178427E-05 delta_en =   0.550131E-05 tol =   0.100000E-04
 Charges are converged, EXIT

%%%% ELECTRONS %%%%%%%%%%%%%%%%%%%%%%%%%%%%%%%%%%%%%%%%%%%%%%%%%%%%%%%%%%%%%%%%%
 number of electrons        =          7
 total electronic charge    =      8.0000000
 number of spin components  =  1

%%%% COMPUTE ELECTROSTATIC POTENTIAL %%%%%%%%%%%%%%%%%%%%%%%%%%%%%%%%%%%%%%%%%%%
 Warning: bad guess with residual norm =   0.294098E+03, reset to no guess
 Iteration #          1
  pAp =    29.5386790854785       rzold =    28.5932281085686       alpha = 
  0.967992780781632     
 delta_qm =   0.126989E-01 delta_en =   0.278662E+03 tol =   0.100000E-04
 Iteration #          2
  pAp =    78.5307761821434       rzold =    7.72791062865324       alpha = 
  9.840614093421435E-002
 delta_qm =   0.297355E-02 delta_en =   0.152790E+02 tol =   0.100000E-04
 Iteration #          3
  pAp =    1.37668408525901       rzold =   0.235032592853310       alpha = 
  0.170723694251968     
 delta_qm =   0.869510E-03 delta_en =   0.130645E+01 tol =   0.100000E-04
 Iteration #          4
  pAp =   3.081723863450212E-002  rzold =   7.449625219622814E-003  alpha = 
  0.241735650230596     
 delta_qm =   0.520715E-03 delta_en =   0.468537E+00 tol =   0.100000E-04
 Iteration #          5
  pAp =   1.158594109588083E-003  rzold =   7.325756173468829E-004  alpha = 
  0.632297032484773     
 delta_qm =   0.132452E-03 delta_en =   0.303151E-01 tol =   0.100000E-04
 Iteration #          6
  pAp =   2.456897208741034E-004  rzold =   8.580847031138717E-005  alpha = 
  0.349255434887963     
 delta_qm =   0.864504E-04 delta_en =   0.129145E-01 tol =   0.100000E-04
 Iteration #          7
  pAp =   1.562849462825887E-005  rzold =   1.329614701286429E-005  alpha = 
  0.850763130367187     
 delta_qm =   0.471296E-04 delta_en =   0.383824E-02 tol =   0.100000E-04
 Iteration #          8
  pAp =   1.730110057224589E-005  rzold =   9.184503201540014E-006  alpha = 
  0.530862367003035     
 delta_qm =   0.223683E-04 delta_en =   0.864592E-03 tol =   0.100000E-04
 Iteration #          9
  pAp =   8.598335227280616E-006  rzold =   2.068211448754951E-006  alpha = 
  0.240536265926568     
 delta_qm =   0.158731E-04 delta_en =   0.435377E-03 tol =   0.100000E-04
 Iteration #         10
  pAp =   1.699989216569915E-006  rzold =   6.695313017499704E-007  alpha = 
  0.393844440437623     
 delta_qm =   0.722803E-05 delta_en =   0.902783E-04 tol =   0.100000E-04
 Iteration #         11
  pAp =   2.170162993244093E-007  rzold =   1.186436557736732E-007  alpha = 
  0.546703893408104     
 delta_qm =   0.185610E-05 delta_en =   0.595314E-05 tol =   0.100000E-04
 Charges are converged, EXIT

%%%% ELECTRONS %%%%%%%%%%%%%%%%%%%%%%%%%%%%%%%%%%%%%%%%%%%%%%%%%%%%%%%%%%%%%%%%%
 number of electrons        =          7
 total electronic charge    =      8.0000000
 number of spin components  =  1

%%%% COMPUTE ELECTROSTATIC POTENTIAL %%%%%%%%%%%%%%%%%%%%%%%%%%%%%%%%%%%%%%%%%%%
 Warning: bad guess with residual norm =   0.208428E+03, reset to no guess
 Iteration #          1
  pAp =    29.1327027873433       rzold =    28.4454924958068       alpha = 
  0.976411035510405     
 delta_qm =   0.107675E-01 delta_en =   0.200341E+03 tol =   0.100000E-04
 Iteration #          2
  pAp =    46.9954904451443       rzold =    4.95885991661977       alpha = 
  0.105517782018001     
 delta_qm =   0.329107E-02 delta_en =   0.187162E+02 tol =   0.100000E-04
 Iteration #          3
  pAp =    2.02232105376696       rzold =   0.316435077912839       alpha = 
  0.156471237503768     
 delta_qm =   0.863316E-03 delta_en =   0.128790E+01 tol =   0.100000E-04
 Iteration #          4
  pAp =   3.882142719783227E-002  rzold =   9.087879321660167E-003  alpha = 
  0.234094415832492     
 delta_qm =   0.488127E-03 delta_en =   0.411727E+00 tol =   0.100000E-04
 Iteration #          5
  pAp =   1.008728327697356E-003  rzold =   6.528989747355639E-004  alpha = 
  0.647249568400592     
 delta_qm =   0.136402E-03 delta_en =   0.321503E-01 tol =   0.100000E-04
 Iteration #          6
  pAp =   2.589462533324370E-004  rzold =   9.161367928451659E-005  alpha = 
  0.353794187425073     
 delta_qm =   0.893259E-04 delta_en =   0.137879E-01 tol =   0.100000E-04
 Iteration #          7
  pAp =   1.750118733683628E-005  rzold =   1.366354188973881E-005  alpha = 
  0.780720852063560     
 delta_qm =   0.495865E-04 delta_en =   0.424885E-02 tol =   0.100000E-04
 Iteration #          8
  pAp =   1.779123351921182E-005  rzold =   9.506453459810322E-006  alpha = 
  0.534333577800820     
 delta_qm =   0.231164E-04 delta_en =   0.923384E-03 tol =   0.100000E-04
 Iteration #          9
  pAp =   1.953466166770592E-005  rzold =   3.985531063753615E-006  alpha = 
  0.204023552163300     
 delta_qm =   0.159688E-04 delta_en =   0.440646E-03 tol =   0.100000E-04
 Iteration #         10
  pAp =   1.036774006728754E-006  rzold =   5.243760914399321E-007  alpha = 
  0.505776657243223     
 delta_qm =   0.700604E-05 delta_en =   0.848181E-04 tol =   0.100000E-04
 Iteration #         11
  pAp =   1.998280897955438E-007  rzold =   1.078107448743714E-007  alpha = 
  0.539517467162295     
 delta_qm =   0.191755E-05 delta_en =   0.635386E-05 tol =   0.100000E-04
 Charges are converged, EXIT

%%%% ELECTRONS %%%%%%%%%%%%%%%%%%%%%%%%%%%%%%%%%%%%%%%%%%%%%%%%%%%%%%%%%%%%%%%%%
 number of electrons        =          7
 total electronic charge    =      8.0000000
 number of spin components  =  1
