
     Program PWSCF v.6.1 (svn rev. 13369) starts on 10Oct2017 at 11:36:38 

     This program is part of the open-source Quantum ESPRESSO suite
     for quantum simulation of materials; please cite
         "P. Giannozzi et al., J. Phys.:Condens. Matter 21 395502 (2009);
          URL http://www.quantum-espresso.org", 
     in publications or presentations arising from this work. More details at
     http://www.quantum-espresso.org/quote

     Serial version
     Reading input from charged.in

     Current dimensions of program PWSCF are:
     Max number of different atomic species (ntypx) = 10
     Max number of k-points (npk) =  40000
     Max angular momentum in pseudopotentials (lmaxx) =  3
               file C.pbe-rrkjus.UPF: wavefunction(s)  2S 2P renormalized
               file H.pbe-rrkjus.UPF: wavefunction(s)  1S renormalized
               file N.pbe-rrkjus.UPF: wavefunction(s)  2S renormalized
               file O.pbe-rrkjus.UPF: wavefunction(s)  2S renormalized

     gamma-point specific algorithms are used

     G-vector sticks info
     --------------------
     sticks:   dense  smooth     PW     G-vecs:    dense   smooth      PW
     Sum        9549    3809    949               701475   177509   22119



     bravais-lattice index     =            1
     lattice parameter (alat)  =      20.0000  a.u.
     unit-cell volume          =    8000.0000 (a.u.)^3
     number of atoms/cell      =           10
     number of atomic types    =            4
     number of electrons       =        24.00
     number of Kohn-Sham states=           12
     kinetic-energy cutoff     =      30.0000  Ry
     charge density cutoff     =     300.0000  Ry
     convergence threshold     =      5.0E-03
     mixing beta               =       0.7000
     number of iterations used =            8  plain     mixing
     Exchange-correlation      =  SLA  PW   PBE  PBE ( 1  4  3  4 0 0)


     Environ Module
     ==============

     Plese cite
         O. Andreussi, I. Dabo and N. Marzari, J. Chem. Phys. 136, 064102 (2012)         
     in publications or presentations arising from this work.

     compensation onset threshold      =               0.1000E+03 
     static permittivity               =                   100.00 
     epsilon calculation mode          =                    ionic 

     Electrostatic Setup
     -------------------
     electrostatic problem to solve    = generalized              
     numerical solver adopted          = iterative                
     type of auxiliary density adopted = full                     
     type of core tool for poisson     = fft                      
     type of core tool for s(r) deriv  = analytic                 



     celldm(1)=  20.000000  celldm(2)=   0.000000  celldm(3)=   0.000000
     celldm(4)=   0.000000  celldm(5)=   0.000000  celldm(6)=   0.000000

     crystal axes: (cart. coord. in units of alat)
               a(1) = (   1.000000   0.000000   0.000000 )  
               a(2) = (   0.000000   1.000000   0.000000 )  
               a(3) = (   0.000000   0.000000   1.000000 )  

     reciprocal axes: (cart. coord. in units 2 pi/alat)
               b(1) = (  1.000000  0.000000  0.000000 )  
               b(2) = (  0.000000  1.000000  0.000000 )  
               b(3) = (  0.000000  0.000000  1.000000 )  


     PseudoPot. # 1 for C  read from file:
     /Users/oliviero/PWSCF/espresso-6.1-Environ-1.0/Environ/tests/../..//pseudo/C.pbe-rrkjus.UPF
     MD5 check sum: 00fb224312de0c5b6853bd333518df6f
     Pseudo is Ultrasoft, Zval =  4.0
     Generated by new atomic code, or converted to UPF format
     Using radial grid of  627 points,  4 beta functions with: 
                l(1) =   0
                l(2) =   0
                l(3) =   1
                l(4) =   1
     Q(r) pseudized with 0 coefficients 


     PseudoPot. # 2 for H  read from file:
     /Users/oliviero/PWSCF/espresso-6.1-Environ-1.0/Environ/tests/../..//pseudo/H.pbe-rrkjus.UPF
     MD5 check sum: 7cc9d459525c9a0585f487a71c3c9563
     Pseudo is Ultrasoft, Zval =  1.0
     Generated by new atomic code, or converted to UPF format
     Using radial grid of 1061 points,  2 beta functions with: 
                l(1) =   0
                l(2) =   0
     Q(r) pseudized with 0 coefficients 


     PseudoPot. # 3 for N  read from file:
     /Users/oliviero/PWSCF/espresso-6.1-Environ-1.0/Environ/tests/../..//pseudo/N.pbe-rrkjus.UPF
     MD5 check sum: 0c3fbe5807a93f9ba59d5a7019aa238b
     Pseudo is Ultrasoft, Zval =  5.0
     Generated by new atomic code, or converted to UPF format
     Using radial grid of 1257 points,  4 beta functions with: 
                l(1) =   0
                l(2) =   0
                l(3) =   1
                l(4) =   1
     Q(r) pseudized with 0 coefficients 


     PseudoPot. # 4 for O  read from file:
     /Users/oliviero/PWSCF/espresso-6.1-Environ-1.0/Environ/tests/../..//pseudo/O.pbe-rrkjus.UPF
     MD5 check sum: 390ba29e75625707450f3bd3f0eb6be9
     Pseudo is Ultrasoft, Zval =  6.0
     Generated by new atomic code, or converted to UPF format
     Using radial grid of 1269 points,  4 beta functions with: 
                l(1) =   0
                l(2) =   0
                l(3) =   1
                l(4) =   1
     Q(r) pseudized with 0 coefficients 


     atomic species   valence    mass     pseudopotential
        C              4.00    12.00000     C ( 1.00)
        H              1.00     1.00000     H ( 1.00)
        N              5.00    14.00000     N ( 1.00)
        O              6.00    16.00000     O ( 1.00)

     No symmetry found



   Cartesian axes

     site n.     atom                  positions (alat units)
         1           C   tau(   1) = (   0.0000000   0.0000000   0.0000000  )
         2           C   tau(   2) = (   0.0000000   0.0000000   0.1455089  )
         3           N   tau(   3) = (   0.1170969   0.0000000  -0.0545024  )
         4           H   tau(   4) = (   0.0476617  -0.0825466   0.1792090  )
         5           H   tau(   5) = (  -0.0953183  -0.0000030   0.1792090  )
         6           H   tau(   6) = (   0.0476566   0.0825496   0.1792090  )
         7           O   tau(   7) = (  -0.0984002  -0.0000019  -0.0641310  )
         8           H   tau(   8) = (   0.1263131  -0.0000015  -0.1475548  )
         9           H   tau(   9) = (   0.1944645   0.0000134  -0.0025716  )
        10           H   tau(  10) = (  -0.0770366  -0.0000045  -0.1522861  )

     number of k points=     1
                       cart. coord. in units 2pi/alat
        k(    1) = (   0.0000000   0.0000000   0.0000000), wk =   2.0000000

     Dense  grid:   350738 G-vectors     FFT dimensions: ( 120, 120, 120)

     Smooth grid:    88755 G-vectors     FFT dimensions: (  72,  72,  72)

     Estimated max dynamical RAM per process >     298.98MB

     Initial potential from superposition of free atoms
     Check: negative starting charge=   -0.000452

     starting charge   24.42266, renormalised to   24.00000

     negative rho (up, down):  4.438E-04 0.000E+00
     Starting wfc are   22 randomized atomic wfcs

     total cpu time spent up to now is       82.8 secs

     Self-consistent Calculation

     iteration #  1     ecut=    30.00 Ry     beta=0.70
     Davidson diagonalization with overlap
     ethr =  1.00E-02,  avg # of iterations =  2.0

     negative rho (up, down):  1.277E-04 0.000E+00

     add environment contribution to local potential
     polarization accuracy = 9.7E-05, # of iterations =  19

     total cpu time spent up to now is       96.4 secs

     total energy              =     -80.23903180 Ry
     Harris-Foulkes estimate   =     -83.01879009 Ry
     estimated scf accuracy    <       3.73442311 Ry
     electrostatic embedding   =       0.00000000 Ry
     correction to one-el term =       0.00000000 Ry

     iteration #  2     ecut=    30.00 Ry     beta=0.70
     Davidson diagonalization with overlap
     ethr =  1.00E-02,  avg # of iterations =  4.0

     negative rho (up, down):  7.187E-04 0.000E+00

     add environment contribution to local potential
     polarization accuracy = 7.7E-05, # of iterations =  16

     total cpu time spent up to now is      109.2 secs

     total energy              =     -81.01421861 Ry
     Harris-Foulkes estimate   =     -75.68954515 Ry
     estimated scf accuracy    <       1.57942216 Ry
     electrostatic embedding   =      -0.20219806 Ry
     correction to one-el term =      -5.96152089 Ry

     iteration #  3     ecut=    30.00 Ry     beta=0.70
     Davidson diagonalization with overlap
     ethr =  6.58E-03,  avg # of iterations =  3.0

     negative rho (up, down):  2.645E-04 0.000E+00

     add environment contribution to local potential
     polarization accuracy = 8.7E-05, # of iterations =  14

     total cpu time spent up to now is      120.9 secs

     total energy              =     -81.36913424 Ry
     Harris-Foulkes estimate   =     -75.94260134 Ry
     estimated scf accuracy    <       0.18947872 Ry
     electrostatic embedding   =      -0.16953514 Ry
     correction to one-el term =      -5.36078340 Ry

     iteration #  4     ecut=    30.00 Ry     beta=0.70
     Davidson diagonalization with overlap
     ethr =  7.89E-04,  avg # of iterations =  4.0

     negative rho (up, down):  1.165E-04 0.000E+00

     add environment contribution to local potential
     polarization accuracy = 6.6E-05, # of iterations =  11

     total cpu time spent up to now is      130.7 secs

     total energy              =     -81.40791834 Ry
     Harris-Foulkes estimate   =     -76.37312512 Ry
     estimated scf accuracy    <       0.02177015 Ry
     electrostatic embedding   =      -0.14414037 Ry
     correction to one-el term =      -4.90186347 Ry

     iteration #  5     ecut=    30.00 Ry     beta=0.70
     Davidson diagonalization with overlap
     ethr =  9.07E-05,  avg # of iterations =  4.0

     negative rho (up, down):  2.673E-04 0.000E+00

     total cpu time spent up to now is      134.9 secs

     End of self-consistent calculation

          k = 0.0000 0.0000 0.0000 ( 11060 PWs)   bands (ev):

   -28.8791 -23.0557 -18.5040 -15.9443 -14.6125 -13.3312 -11.5614 -10.8656
    -9.3999  -9.3926  -9.2524  -7.3052

     highest occupied level (ev):    -7.3052

!    total energy              =     -81.40548627 Ry
     Harris-Foulkes estimate   =     -76.79508983 Ry
     estimated scf accuracy    <       0.00173129 Ry

     The total energy is the sum of the following terms:

     one-electron contribution =    -240.92680309 Ry
     hartree contribution      =     122.71695462 Ry
     xc contribution           =     -22.89178283 Ry
     ewald contribution        =      64.30784006 Ry
     electrostatic embedding   =      -0.13684248 Ry
     correction to one-el term =      -4.47485254 Ry

     convergence has been achieved in   5 iterations

     Forces acting on atoms (cartesian axes, Ry/au):

     atom    1 type  1   force =     0.22558368    0.00000765    0.10486205
     atom    2 type  1   force =    -0.03364437   -0.00000444   -0.08476836
     atom    3 type  3   force =    -0.14474638   -0.00000637    0.04773176
     atom    4 type  2   force =     0.01975477   -0.03097350    0.00823988
     atom    5 type  2   force =    -0.03513386   -0.00000257    0.01182123
     atom    6 type  2   force =     0.01975828    0.03098258    0.00824407
     atom    7 type  4   force =    -0.09357399   -0.00002568   -0.00638533
     atom    8 type  2   force =     0.00638729    0.00000728   -0.05469123
     atom    9 type  2   force =     0.04224290    0.00000964    0.04042502
     atom   10 type  2   force =    -0.00662832    0.00000541   -0.07547908

     Total force =     0.344427     Total SCF correction =     0.098480
     SCF correction compared to forces is large: reduce conv_thr to get better values

     Writing output data file pwscf.save

     init_run     :     80.34s CPU     82.53s WALL (       1 calls)
     electrons    :     48.24s CPU     52.20s WALL (       1 calls)
     forces       :    291.64s CPU    301.95s WALL (       1 calls)

     Called by init_run:
     wfcinit      :      0.26s CPU      0.26s WALL (       1 calls)
     potinit      :      1.99s CPU      2.12s WALL (       1 calls)

     Called by electrons:
     c_bands      :      2.37s CPU      2.24s WALL (       5 calls)
     sum_band     :      7.28s CPU      7.39s WALL (       5 calls)
     v_of_rho     :      7.98s CPU      8.60s WALL (       6 calls)
     newd         :      3.86s CPU      5.52s WALL (       6 calls)
     mix_rho      :      0.66s CPU      0.74s WALL (       5 calls)

     Called by c_bands:
     init_us_2    :      0.10s CPU      0.13s WALL (      11 calls)
     regterg      :      2.23s CPU      2.08s WALL (       5 calls)

     Called by sum_band:
     sum_band:bec :      0.00s CPU      0.00s WALL (       5 calls)
     addusdens    :      5.74s CPU      5.78s WALL (       5 calls)

     Called by *egterg:
     h_psi        :      2.06s CPU      2.01s WALL (      23 calls)
     s_psi        :      0.11s CPU      0.04s WALL (      23 calls)
     g_psi        :      0.02s CPU      0.02s WALL (      17 calls)
     rdiaghg      :      0.01s CPU      0.01s WALL (      22 calls)

     Called by h_psi:
     h_psi:pot    :      2.03s CPU      1.99s WALL (      23 calls)
     h_psi:calbec :      0.05s CPU      0.05s WALL (      23 calls)
     vloc_psi     :      1.85s CPU      1.89s WALL (      23 calls)
     add_vuspsi   :      0.13s CPU      0.04s WALL (      23 calls)

     General routines
     calbec       :      0.08s CPU      0.08s WALL (      32 calls)
     fft          :     21.30s CPU     21.59s WALL (     355 calls)
     ffts         :      0.11s CPU      0.11s WALL (      11 calls)
     fftw         :      1.53s CPU      1.55s WALL (     244 calls)
     interpolate  :      0.93s CPU      1.02s WALL (      11 calls)
     davcio       :      0.01s CPU      0.01s WALL (       1 calls)


     Environ routines
     calc_eelect  :      0.02s CPU      0.02s WALL (      10 calls)
     calc_velect  :     27.18s CPU     29.07s WALL (       8 calls)
     dielectric   :      0.25s CPU      0.28s WALL (       2 calls)
     calc_felect  :      0.58s CPU      0.59s WALL (       1 calls)

     PWSCF        :  7m 0.51s CPU     7m17.15s WALL


   This run was terminated on:  11:43:55  10Oct2017            

=------------------------------------------------------------------------------=
   JOB DONE.
=------------------------------------------------------------------------------=

%%%% IONS %%%%%%%%%%%%%%%%%%%%%%%%%%%%%%%%%%%%%%%%%%%%%%%%%%%%%%%%%%%%%%%%%%%%%%
 number of ions             =         10
 ionic center of charge     =      0.0095530    -0.0000002     0.0063981
 total ionic charge         =    -25.0000000
 ionic dipole               =      0.0000000     0.0000000     0.0000000
 ionic quadrupole (pc)      =    -79.0828058    -5.4513517  -105.8059629
 ionic quadrupole (gauss)   =    -82.2078058    -8.5763517  -108.9309629
 ion   1 type =  1 coordinates =      0.0000000     0.0000000     0.0000000
 ion   2 type =  1 coordinates =      0.0000000     0.0000000     2.9101782
 ion   3 type =  3 coordinates =      2.3419379     0.0000000    -1.0900479
 ion   4 type =  2 coordinates =      0.9532347    -1.6509323     3.5841800
 ion   5 type =  2 coordinates =     -1.9063663    -0.0000596     3.5841809
 ion   6 type =  2 coordinates =      0.9531315     1.6509919     3.5841800
 ion   7 type =  4 coordinates =     -1.9680045    -0.0000375    -1.2826193
 ion   8 type =  2 coordinates =      2.5262613    -0.0000303    -2.9510950
 ion   9 type =  2 coordinates =      3.8892907     0.0002681    -0.0514326
 ion  10 type =  2 coordinates =     -1.5407317    -0.0000890    -3.0457220

%%%% SYSTEM %%%%%%%%%%%%%%%%%%%%%%%%%%%%%%%%%%%%%%%%%%%%%%%%%%%%%%%%%%%%%%%%%%%%
 system is built from all present ionic types
 system defined dimension   =  0 
 system defined axis        =  3 
 system center              =      0.0095530    -0.0000002     0.0063981 
 system width               =      0.5223840 

%%%% BOUNDARY %%%%%%%%%%%%%%%%%%%%%%%%%%%%%%%%%%%%%%%%%%%%%%%%%%%%%%%%%%%%%%%%%%
 boundary mode              = ionic                
 boundary is built from soft-spheres centered on ionic positions
 solvent-dependent scaling  =      1.0000000 
 softness parameter         =      0.5000000 

%%%% DIELECTRIC %%%%%%%%%%%%%%%%%%%%%%%%%%%%%%%%%%%%%%%%%%%%%%%%%%%%%%%%%%%%%%%%%
 dielectric build on homogeneous background
 environment bulk permitt.  =    100.0000000 
 dielectric flags
 need gradient              =  F 
 need factor depend. sqrt   =  F 
 need gradient of logarithm =  T 

%%%% ELECTRONS %%%%%%%%%%%%%%%%%%%%%%%%%%%%%%%%%%%%%%%%%%%%%%%%%%%%%%%%%%%%%%%%%
 number of electrons        =         24
 total electronic charge    =     24.0000000
 number of spin components  =  1

%%%% COMPUTE ELECTROSTATIC POTENTIAL %%%%%%%%%%%%%%%%%%%%%%%%%%%%%%%%%%%%%%%%%%%
 Starting from polarization: rhoiter =      0.000000 jellium =      0.000000
 Iteration #          1
 delta_qm =   0.540136E-02 delta_en =   0.504138E+02 tol =   0.100000E-03
 Iteration #          2
 delta_qm =   0.208029E-02 delta_en =   0.747814E+01 tol =   0.100000E-03
 Iteration #          3
 delta_qm =   0.161648E-02 delta_en =   0.451529E+01 tol =   0.100000E-03
 Iteration #          4
 delta_qm =   0.117485E-02 delta_en =   0.238510E+01 tol =   0.100000E-03
 Iteration #          5
 delta_qm =   0.757136E-03 delta_en =   0.990584E+00 tol =   0.100000E-03
 Iteration #          6
 delta_qm =   0.496871E-03 delta_en =   0.426609E+00 tol =   0.100000E-03
 Iteration #          7
 delta_qm =   0.354671E-03 delta_en =   0.217368E+00 tol =   0.100000E-03
 Iteration #          8
 delta_qm =   0.259423E-03 delta_en =   0.116295E+00 tol =   0.100000E-03
 Iteration #          9
 delta_qm =   0.184013E-03 delta_en =   0.585117E-01 tol =   0.100000E-03
 Iteration #         10
 delta_qm =   0.126712E-03 delta_en =   0.277447E-01 tol =   0.100000E-03
 Iteration #         11
 delta_qm =   0.876702E-04 delta_en =   0.132815E-01 tol =   0.100000E-03
 Iteration #         12
 delta_qm =   0.629271E-04 delta_en =   0.684256E-02 tol =   0.100000E-03
 Iteration #         13
 delta_qm =   0.467050E-04 delta_en =   0.376939E-02 tol =   0.100000E-03
 Iteration #         14
 delta_qm =   0.348540E-04 delta_en =   0.209917E-02 tol =   0.100000E-03
 Iteration #         15
 delta_qm =   0.256316E-04 delta_en =   0.113526E-02 tol =   0.100000E-03
 Iteration #         16
 delta_qm =   0.185774E-04 delta_en =   0.596370E-03 tol =   0.100000E-03
 Iteration #         17
 delta_qm =   0.134748E-04 delta_en =   0.313754E-03 tol =   0.100000E-03
 Iteration #         18
 delta_qm =   0.994904E-05 delta_en =   0.171043E-03 tol =   0.100000E-03
 Iteration #         19
 delta_qm =   0.750704E-05 delta_en =   0.973827E-04 tol =   0.100000E-03
 Charges are converged, EXIT

%%%% ELECTRONS %%%%%%%%%%%%%%%%%%%%%%%%%%%%%%%%%%%%%%%%%%%%%%%%%%%%%%%%%%%%%%%%%
 number of electrons        =         24
 total electronic charge    =     24.0000000
 number of spin components  =  1

%%%% COMPUTE ELECTROSTATIC POTENTIAL %%%%%%%%%%%%%%%%%%%%%%%%%%%%%%%%%%%%%%%%%%%
 Starting from polarization: rhoiter =      1.986707 jellium =      0.000000
 Iteration #          1
 delta_qm =   0.962903E-03 delta_en =   0.160217E+01 tol =   0.100000E-03
 Iteration #          2
 delta_qm =   0.538026E-03 delta_en =   0.500207E+00 tol =   0.100000E-03
 Iteration #          3
 delta_qm =   0.354617E-03 delta_en =   0.217301E+00 tol =   0.100000E-03
 Iteration #          4
 delta_qm =   0.261369E-03 delta_en =   0.118046E+00 tol =   0.100000E-03
 Iteration #          5
 delta_qm =   0.197795E-03 delta_en =   0.676046E-01 tol =   0.100000E-03
 Iteration #          6
 delta_qm =   0.149682E-03 delta_en =   0.387152E-01 tol =   0.100000E-03
 Iteration #          7
 delta_qm =   0.112592E-03 delta_en =   0.219059E-01 tol =   0.100000E-03
 Iteration #          8
 delta_qm =   0.834535E-04 delta_en =   0.120346E-01 tol =   0.100000E-03
 Iteration #          9
 delta_qm =   0.605941E-04 delta_en =   0.634460E-02 tol =   0.100000E-03
 Iteration #         10
 delta_qm =   0.433863E-04 delta_en =   0.325274E-02 tol =   0.100000E-03
 Iteration #         11
 delta_qm =   0.312243E-04 delta_en =   0.168473E-02 tol =   0.100000E-03
 Iteration #         12
 delta_qm =   0.229645E-04 delta_en =   0.911295E-03 tol =   0.100000E-03
 Iteration #         13
 delta_qm =   0.171872E-04 delta_en =   0.510451E-03 tol =   0.100000E-03
 Iteration #         14
 delta_qm =   0.128123E-04 delta_en =   0.283660E-03 tol =   0.100000E-03
 Iteration #         15
 delta_qm =   0.934156E-05 delta_en =   0.150793E-03 tol =   0.100000E-03
 Iteration #         16
 delta_qm =   0.665517E-05 delta_en =   0.765353E-04 tol =   0.100000E-03
 Charges are converged, EXIT

%%%% ELECTRONS %%%%%%%%%%%%%%%%%%%%%%%%%%%%%%%%%%%%%%%%%%%%%%%%%%%%%%%%%%%%%%%%%
 number of electrons        =         24
 total electronic charge    =     24.0000000
 number of spin components  =  1

%%%% COMPUTE ELECTROSTATIC POTENTIAL %%%%%%%%%%%%%%%%%%%%%%%%%%%%%%%%%%%%%%%%%%%
 Starting from polarization: rhoiter =      1.886550 jellium =      0.000000
 Iteration #          1
 delta_qm =   0.671459E-03 delta_en =   0.779082E+00 tol =   0.100000E-03
 Iteration #          2
 delta_qm =   0.318783E-03 delta_en =   0.175604E+00 tol =   0.100000E-03
 Iteration #          3
 delta_qm =   0.221083E-03 delta_en =   0.844603E-01 tol =   0.100000E-03
 Iteration #          4
 delta_qm =   0.164700E-03 delta_en =   0.468737E-01 tol =   0.100000E-03
 Iteration #          5
 delta_qm =   0.118975E-03 delta_en =   0.244598E-01 tol =   0.100000E-03
 Iteration #          6
 delta_qm =   0.860923E-04 delta_en =   0.128077E-01 tol =   0.100000E-03
 Iteration #          7
 delta_qm =   0.635058E-04 delta_en =   0.696901E-02 tol =   0.100000E-03
 Iteration #          8
 delta_qm =   0.469441E-04 delta_en =   0.380808E-02 tol =   0.100000E-03
 Iteration #          9
 delta_qm =   0.340637E-04 delta_en =   0.200506E-02 tol =   0.100000E-03
 Iteration #         10
 delta_qm =   0.242215E-04 delta_en =   0.101378E-02 tol =   0.100000E-03
 Iteration #         11
 delta_qm =   0.172043E-04 delta_en =   0.511468E-03 tol =   0.100000E-03
 Iteration #         12
 delta_qm =   0.125201E-04 delta_en =   0.270870E-03 tol =   0.100000E-03
 Iteration #         13
 delta_qm =   0.938136E-05 delta_en =   0.152081E-03 tol =   0.100000E-03
 Iteration #         14
 delta_qm =   0.707976E-05 delta_en =   0.866125E-04 tol =   0.100000E-03
 Charges are converged, EXIT

%%%% ELECTRONS %%%%%%%%%%%%%%%%%%%%%%%%%%%%%%%%%%%%%%%%%%%%%%%%%%%%%%%%%%%%%%%%%
 number of electrons        =         24
 total electronic charge    =     24.0000000
 number of spin components  =  1

%%%% COMPUTE ELECTROSTATIC POTENTIAL %%%%%%%%%%%%%%%%%%%%%%%%%%%%%%%%%%%%%%%%%%%
 Starting from polarization: rhoiter =      1.712559 jellium =      0.000000
 Iteration #          1
 delta_qm =   0.341243E-03 delta_en =   0.201220E+00 tol =   0.100000E-03
 Iteration #          2
 delta_qm =   0.137200E-03 delta_en =   0.325276E-01 tol =   0.100000E-03
 Iteration #          3
 delta_qm =   0.103764E-03 delta_en =   0.186055E-01 tol =   0.100000E-03
 Iteration #          4
 delta_qm =   0.758729E-04 delta_en =   0.994757E-02 tol =   0.100000E-03
 Iteration #          5
 delta_qm =   0.503742E-04 delta_en =   0.438490E-02 tol =   0.100000E-03
 Iteration #          6
 delta_qm =   0.339717E-04 delta_en =   0.199425E-02 tol =   0.100000E-03
 Iteration #          7
 delta_qm =   0.243233E-04 delta_en =   0.102233E-02 tol =   0.100000E-03
 Iteration #          8
 delta_qm =   0.177020E-04 delta_en =   0.541487E-03 tol =   0.100000E-03
 Iteration #          9
 delta_qm =   0.126188E-04 delta_en =   0.275155E-03 tol =   0.100000E-03
 Iteration #         10
 delta_qm =   0.882829E-05 delta_en =   0.134678E-03 tol =   0.100000E-03
 Iteration #         11
 delta_qm =   0.619822E-05 delta_en =   0.663863E-04 tol =   0.100000E-03
 Charges are converged, EXIT

%%%% ELECTRONS %%%%%%%%%%%%%%%%%%%%%%%%%%%%%%%%%%%%%%%%%%%%%%%%%%%%%%%%%%%%%%%%%
 number of electrons        =         24
 total electronic charge    =     24.0000000
 number of spin components  =  1
