
     Program PWSCF v.6.4.1 starts on 24Apr2019 at 15:11:28 

     This program is part of the open-source Quantum ESPRESSO suite
     for quantum simulation of materials; please cite
         "P. Giannozzi et al., J. Phys.:Condens. Matter 21 395502 (2009);
         "P. Giannozzi et al., J. Phys.:Condens. Matter 29 465901 (2017);
          URL http://www.quantum-espresso.org", 
     in publications or presentations arising from this work. More details at
     http://www.quantum-espresso.org/quote

     Parallel version (MPI), running on     1 processors

     MPI processes distributed on     1 nodes
     Reading input from charged.in

     Current dimensions of program PWSCF are:
     Max number of different atomic species (ntypx) = 10
     Max number of k-points (npk) =  40000
     Max angular momentum in pseudopotentials (lmaxx) =  3
               file C.pbe-rrkjus.UPF: wavefunction(s)  2S 2P renormalized
               file H.pbe-rrkjus.UPF: wavefunction(s)  1S renormalized
               file N.pbe-rrkjus.UPF: wavefunction(s)  2S renormalized
               file O.pbe-rrkjus.UPF: wavefunction(s)  2S renormalized

     gamma-point specific algorithms are used

     Subspace diagonalization in iterative solution of the eigenvalue problem:
     a serial algorithm will be used

 
     G-vector sticks info
     --------------------
     sticks:   dense  smooth     PW     G-vecs:    dense   smooth      PW
     Sum        9549    3809    949               701475   177509   22119
 


     bravais-lattice index     =            1
     lattice parameter (alat)  =      20.0000  a.u.
     unit-cell volume          =    8000.0000 (a.u.)^3
     number of atoms/cell      =           10
     number of atomic types    =            4
     number of electrons       =        24.00
     number of Kohn-Sham states=           12
     kinetic-energy cutoff     =      30.0000  Ry
     charge density cutoff     =     300.0000  Ry
     convergence threshold     =      5.0E-06
     mixing beta               =       0.7000
     number of iterations used =            8  plain     mixing
     Exchange-correlation      = SLA PW PBE PBE ( 1  4  3  4 0 0)
 

     Environ Module
     ==============

     Plese cite
         O. Andreussi, I. Dabo and N. Marzari, J. Chem. Phys. 136, 064102 (2012)         
     in publications or presentations arising from this work.

     compensation onset threshold      =               0.1000E+03 
     switching function adopted        =                     SCCS 
     density limit for vacuum region   =               0.5000E-02 
     density limit for bulk solvent    =               0.1000E-03 
     static permittivity               =                   100.00 
     epsilon calculation mode          =               electronic 

     Electrostatic Setup
     -------------------
     electrostatic problem to solve    = generalized              
     numerical solver adopted          = cg                       
     type of auxiliary density adopted = none                     
     type of core tool for poisson     = fft                      
     type of core tool for s(r) deriv  = analytic                 



     celldm(1)=  20.000000  celldm(2)=   0.000000  celldm(3)=   0.000000
     celldm(4)=   0.000000  celldm(5)=   0.000000  celldm(6)=   0.000000

     crystal axes: (cart. coord. in units of alat)
               a(1) = (   1.000000   0.000000   0.000000 )  
               a(2) = (   0.000000   1.000000   0.000000 )  
               a(3) = (   0.000000   0.000000   1.000000 )  

     reciprocal axes: (cart. coord. in units 2 pi/alat)
               b(1) = (  1.000000  0.000000  0.000000 )  
               b(2) = (  0.000000  1.000000  0.000000 )  
               b(3) = (  0.000000  0.000000  1.000000 )  


     PseudoPot. # 1 for C  read from file:
     /home/fnattino/Programs/quantumespresso/q-e-qe-6.4.1-develop/Environ/tests/../..//pseudo/C.pbe-rrkjus.UPF
     MD5 check sum: c9ac5a99bc85b198593446162950cd17
     Pseudo is Ultrasoft, Zval =  4.0
     Generated by new atomic code, or converted to UPF format
     Using radial grid of  627 points,  4 beta functions with: 
                l(1) =   0
                l(2) =   0
                l(3) =   1
                l(4) =   1
     Q(r) pseudized with 0 coefficients 


     PseudoPot. # 2 for H  read from file:
     /home/fnattino/Programs/quantumespresso/q-e-qe-6.4.1-develop/Environ/tests/../..//pseudo/H.pbe-rrkjus.UPF
     MD5 check sum: 2d52a7f45632fd764c17cc6affed14c8
     Pseudo is Ultrasoft, Zval =  1.0
     Generated by new atomic code, or converted to UPF format
     Using radial grid of 1061 points,  2 beta functions with: 
                l(1) =   0
                l(2) =   0
     Q(r) pseudized with 0 coefficients 


     PseudoPot. # 3 for N  read from file:
     /home/fnattino/Programs/quantumespresso/q-e-qe-6.4.1-develop/Environ/tests/../..//pseudo/N.pbe-rrkjus.UPF
     MD5 check sum: 28c76d763763edb36c62a6ca2be9aebd
     Pseudo is Ultrasoft, Zval =  5.0
     Generated by new atomic code, or converted to UPF format
     Using radial grid of 1257 points,  4 beta functions with: 
                l(1) =   0
                l(2) =   0
                l(3) =   1
                l(4) =   1
     Q(r) pseudized with 0 coefficients 


     PseudoPot. # 4 for O  read from file:
     /home/fnattino/Programs/quantumespresso/q-e-qe-6.4.1-develop/Environ/tests/../..//pseudo/O.pbe-rrkjus.UPF
     MD5 check sum: fadcf19ee70a498d3030e2e79cf929a4
     Pseudo is Ultrasoft, Zval =  6.0
     Generated by new atomic code, or converted to UPF format
     Using radial grid of 1269 points,  4 beta functions with: 
                l(1) =   0
                l(2) =   0
                l(3) =   1
                l(4) =   1
     Q(r) pseudized with 0 coefficients 


     atomic species   valence    mass     pseudopotential
        C              4.00    12.00000     C ( 1.00)
        H              1.00     1.00000     H ( 1.00)
        N              5.00    14.00000     N ( 1.00)
        O              6.00    16.00000     O ( 1.00)

     No symmetry found



   Cartesian axes

     site n.     atom                  positions (alat units)
         1           C   tau(   1) = (   0.0000000   0.0000000   0.0000000  )
         2           C   tau(   2) = (   0.0000000   0.0000000   0.1455089  )
         3           N   tau(   3) = (   0.1170969   0.0000000  -0.0545024  )
         4           H   tau(   4) = (   0.0476617  -0.0825466   0.1792090  )
         5           H   tau(   5) = (  -0.0953183  -0.0000030   0.1792090  )
         6           H   tau(   6) = (   0.0476566   0.0825496   0.1792090  )
         7           O   tau(   7) = (  -0.0984002  -0.0000019  -0.0641310  )
         8           H   tau(   8) = (   0.1263131  -0.0000015  -0.1475548  )
         9           H   tau(   9) = (   0.1944645   0.0000134  -0.0025716  )
        10           H   tau(  10) = (  -0.0770366  -0.0000045  -0.1522861  )

     number of k points=     1
                       cart. coord. in units 2pi/alat
        k(    1) = (   0.0000000   0.0000000   0.0000000), wk =   2.0000000

     Dense  grid:   350738 G-vectors     FFT dimensions: ( 120, 120, 120)

     Smooth grid:    88755 G-vectors     FFT dimensions: (  72,  72,  72)

     Estimated max dynamical RAM per process >     691.80 MB

     Initial potential from superposition of free atoms

     starting charge   24.42266, renormalised to   24.00000

     negative rho (up, down):  4.438E-04 0.000E+00
     Starting wfcs are   22 randomized atomic wfcs

     total cpu time spent up to now is        4.6 secs

     Self-consistent Calculation

     iteration #  1     ecut=    30.00 Ry     beta= 0.70
     Davidson diagonalization with overlap
     ethr =  1.00E-02,  avg # of iterations =  2.0

     negative rho (up, down):  1.277E-04 0.000E+00

     add environment contribution to local potential
     polarization accuracy = 4.2E-06, # of iterations =  14

     total cpu time spent up to now is        8.7 secs

     total energy              =     -80.23905785 Ry
     Harris-Foulkes estimate   =     -83.01882218 Ry
     estimated scf accuracy    <       3.73443027 Ry
     electrostatic embedding   =       0.00000000 Ry
     correction to one-el term =       0.00000000 Ry

     iteration #  2     ecut=    30.00 Ry     beta= 0.70
     Davidson diagonalization with overlap
     ethr =  1.00E-02,  avg # of iterations =  4.0

     negative rho (up, down):  6.920E-04 0.000E+00

     add environment contribution to local potential
     polarization accuracy = 6.0E-06, # of iterations =  16

     total cpu time spent up to now is       13.2 secs

     total energy              =     -80.96153357 Ry
     Harris-Foulkes estimate   =     -76.58378496 Ry
     estimated scf accuracy    <       1.54143805 Ry
     electrostatic embedding   =      -0.18539263 Ry
     correction to one-el term =      -5.01778238 Ry

     iteration #  3     ecut=    30.00 Ry     beta= 0.70
     Davidson diagonalization with overlap
     ethr =  6.42E-03,  avg # of iterations =  3.0

     negative rho (up, down):  3.243E-04 0.000E+00

     add environment contribution to local potential
     polarization accuracy = 4.4E-06, # of iterations =  17

     total cpu time spent up to now is       17.9 secs

     total energy              =     -81.32007724 Ry
     Harris-Foulkes estimate   =     -77.00551763 Ry
     estimated scf accuracy    <       0.24273961 Ry
     electrostatic embedding   =      -0.15279980 Ry
     correction to one-el term =      -4.29116165 Ry

     iteration #  4     ecut=    30.00 Ry     beta= 0.70
     Davidson diagonalization with overlap
     ethr =  1.01E-03,  avg # of iterations =  4.0

     negative rho (up, down):  8.667E-05 0.000E+00

     add environment contribution to local potential
     polarization accuracy = 4.6E-06, # of iterations =  19

     total cpu time spent up to now is       22.2 secs

     total energy              =     -81.37925148 Ry
     Harris-Foulkes estimate   =     -77.20731628 Ry
     estimated scf accuracy    <       0.02093666 Ry
     electrostatic embedding   =      -0.12841008 Ry
     correction to one-el term =      -4.05415945 Ry

     iteration #  5     ecut=    30.00 Ry     beta= 0.70
     Davidson diagonalization with overlap
     ethr =  8.72E-05,  avg # of iterations =  4.0

     negative rho (up, down):  9.646E-05 0.000E+00

     add environment contribution to local potential
     polarization accuracy = 5.5E-06, # of iterations =  19

     total cpu time spent up to now is       26.9 secs

     total energy              =     -81.38532065 Ry
     Harris-Foulkes estimate   =     -77.44083835 Ry
     estimated scf accuracy    <       0.00247579 Ry
     electrostatic embedding   =      -0.12263012 Ry
     correction to one-el term =      -3.82309308 Ry

     iteration #  6     ecut=    30.00 Ry     beta= 0.70
     Davidson diagonalization with overlap
     ethr =  1.03E-05,  avg # of iterations =  3.0

     negative rho (up, down):  1.093E-04 0.000E+00

     add environment contribution to local potential
     polarization accuracy = 9.5E-06, # of iterations =  18

     total cpu time spent up to now is       31.4 secs

     total energy              =     -81.38623681 Ry
     Harris-Foulkes estimate   =     -77.48151845 Ry
     estimated scf accuracy    <       0.00027451 Ry
     electrostatic embedding   =      -0.12278906 Ry
     correction to one-el term =      -3.78201403 Ry

     iteration #  7     ecut=    30.00 Ry     beta= 0.70
     Davidson diagonalization with overlap
     ethr =  1.14E-06,  avg # of iterations =  3.0

     negative rho (up, down):  2.805E-04 0.000E+00

     add environment contribution to local potential
     polarization accuracy = 9.0E-06, # of iterations =  18

     total cpu time spent up to now is       35.7 secs

     total energy              =     -81.38650811 Ry
     Harris-Foulkes estimate   =     -77.49012823 Ry
     estimated scf accuracy    <       0.00003968 Ry
     electrostatic embedding   =      -0.12424696 Ry
     correction to one-el term =      -3.77214484 Ry

     iteration #  8     ecut=    30.00 Ry     beta= 0.70
     Davidson diagonalization with overlap
     ethr =  1.65E-07,  avg # of iterations =  3.0

     negative rho (up, down):  3.907E-04 0.000E+00

     add environment contribution to local potential
     polarization accuracy = 6.8E-06, # of iterations =  19

     total cpu time spent up to now is       40.1 secs

     total energy              =     -81.38661149 Ry
     Harris-Foulkes estimate   =     -77.48778383 Ry
     estimated scf accuracy    <       0.00001141 Ry
     electrostatic embedding   =      -0.12562809 Ry
     correction to one-el term =      -3.77320506 Ry

     iteration #  9     ecut=    30.00 Ry     beta= 0.70
     Davidson diagonalization with overlap
     ethr =  4.76E-08,  avg # of iterations =  4.0

     negative rho (up, down):  2.791E-04 0.000E+00

     the potential shift due to the Gaussian-smeared nuclei is    -0.0668 ev

     total cpu time spent up to now is       42.4 secs

     End of self-consistent calculation

          k = 0.0000 0.0000 0.0000 ( 11060 PWs)   bands (ev):

   -28.9254 -23.0835 -18.6405 -16.0090 -14.6258 -13.3807 -11.6751 -10.9522
    -9.6306  -9.6242  -9.3206  -7.3746

     highest occupied level (ev):    -7.3746

!    total energy              =     -81.38667388 Ry
     Harris-Foulkes estimate   =     -77.47860664 Ry
     estimated scf accuracy    <       0.00000425 Ry

     The total energy is the sum of the following terms:

     one-electron contribution =    -241.98275795 Ry
     hartree contribution      =     123.15979231 Ry
     xc contribution           =     -22.96347964 Ry
     ewald contribution        =      64.30784006 Ry
     electrostatic embedding   =      -0.12728983 Ry
     correction to one-el term =      -3.78077883 Ry

     convergence has been achieved in   9 iterations

     Forces acting on atoms (cartesian axes, Ry/au):

     atom    1 type  1   force =     0.21862656   -0.00000078    0.09551983
     atom    2 type  1   force =    -0.03077046   -0.00000184   -0.07942459
     atom    3 type  3   force =    -0.13910954   -0.00000783    0.04303896
     atom    4 type  2   force =     0.01849724   -0.02816515    0.00876054
     atom    5 type  2   force =    -0.03115002    0.00000288    0.01157959
     atom    6 type  2   force =     0.01849561    0.02817364    0.00876212
     atom    7 type  4   force =    -0.09349767   -0.00001472   -0.00191414
     atom    8 type  2   force =     0.00709024    0.00000426   -0.05294846
     atom    9 type  2   force =     0.04335852    0.00000608    0.03733967
     atom   10 type  2   force =    -0.01154048    0.00000344   -0.07071352

     Total force =     0.330025     Total SCF correction =     0.003246

     Writing output data file pwscf.save/
 
     init_run     :      3.56s CPU      3.99s WALL (       1 calls)
     electrons    :     30.87s CPU     37.74s WALL (       1 calls)
     forces       :      0.78s CPU      1.04s WALL (       1 calls)

     Called by init_run:
     wfcinit      :      0.14s CPU      0.14s WALL (       1 calls)
     potinit      :      1.14s CPU      1.22s WALL (       1 calls)
     hinit0       :      1.92s CPU      1.96s WALL (       1 calls)

     Called by electrons:
     c_bands      :      2.22s CPU      2.24s WALL (       9 calls)
     sum_band     :      3.78s CPU      5.20s WALL (       9 calls)
     v_of_rho     :      4.44s CPU      4.85s WALL (      10 calls)
     newd         :      2.62s CPU      4.55s WALL (      10 calls)
     mix_rho      :      0.50s CPU      0.51s WALL (       9 calls)

     Called by c_bands:
     init_us_2    :      0.08s CPU      0.09s WALL (      19 calls)
     regterg      :      2.08s CPU      2.11s WALL (       9 calls)

     Called by sum_band:
     sum_band:bec :      0.00s CPU      0.00s WALL (       9 calls)
     addusdens    :      3.09s CPU      4.48s WALL (       9 calls)

     Called by *egterg:
     h_psi        :      2.03s CPU      2.05s WALL (      40 calls)
     s_psi        :      0.01s CPU      0.03s WALL (      40 calls)
     g_psi        :      0.01s CPU      0.02s WALL (      30 calls)
     rdiaghg      :      0.02s CPU      0.01s WALL (      39 calls)

     Called by h_psi:
     h_psi:pot    :      2.02s CPU      2.04s WALL (      40 calls)
     h_psi:calbec :      0.07s CPU      0.04s WALL (      40 calls)
     vloc_psi     :      1.92s CPU      1.96s WALL (      40 calls)
     add_vuspsi   :      0.03s CPU      0.04s WALL (      40 calls)

     General routines
     calbec       :      0.08s CPU      0.06s WALL (      53 calls)
     fft          :      9.68s CPU      9.95s WALL (     545 calls)
     ffts         :      0.05s CPU      0.06s WALL (      19 calls)
     fftw         :      1.77s CPU      1.79s WALL (     424 calls)
     interpolate  :      0.26s CPU      0.31s WALL (      10 calls)
 
     Parallel routines
 
     Environ routines
     calc_eelect  :      0.03s CPU      0.03s WALL (      18 calls)
     calc_velect  :     11.89s CPU     14.49s WALL (      16 calls)
     dielectric   :      0.99s CPU      1.03s WALL (      11 calls)
     calc_felect  :      0.08s CPU      0.08s WALL (       1 calls)
 
     PWSCF        :     35.84s CPU     43.45s WALL

 
   This run was terminated on:  15:12:11  24Apr2019            

=------------------------------------------------------------------------------=
   JOB DONE.
=------------------------------------------------------------------------------=

%%%% IONS %%%%%%%%%%%%%%%%%%%%%%%%%%%%%%%%%%%%%%%%%%%%%%%%%%%%%%%%%%%%%%%%%%%%%%
 number of ions             =         10
 ionic center of charge     =      0.0095530    -0.0000002     0.0063981
 total ionic charge         =    -25.0000000
 ionic dipole               =      0.0000000     0.0000000     0.0000000
 ionic quadrupole (pc)      =    -79.0828058    -5.4513517  -105.8059629
 ionic quadrupole (gauss)   =    -82.2078058    -8.5763517  -108.9309629
 ion   1 type =  1 coordinates =      0.0000000     0.0000000     0.0000000
 ion   2 type =  1 coordinates =      0.0000000     0.0000000     2.9101782
 ion   3 type =  3 coordinates =      2.3419379     0.0000000    -1.0900479
 ion   4 type =  2 coordinates =      0.9532347    -1.6509323     3.5841800
 ion   5 type =  2 coordinates =     -1.9063663    -0.0000596     3.5841809
 ion   6 type =  2 coordinates =      0.9531315     1.6509919     3.5841800
 ion   7 type =  4 coordinates =     -1.9680045    -0.0000375    -1.2826193
 ion   8 type =  2 coordinates =      2.5262613    -0.0000303    -2.9510950
 ion   9 type =  2 coordinates =      3.8892907     0.0002681    -0.0514326
 ion  10 type =  2 coordinates =     -1.5407317    -0.0000890    -3.0457220

%%%% SYSTEM %%%%%%%%%%%%%%%%%%%%%%%%%%%%%%%%%%%%%%%%%%%%%%%%%%%%%%%%%%%%%%%%%%%%
 system is built from all present ionic types
 system defined dimension   =  0 
 system defined axis        =  3 
 system center              =      0.0095530    -0.0000002     0.0063981 
 system width               =      0.2021425 

%%%% ELECTRONS %%%%%%%%%%%%%%%%%%%%%%%%%%%%%%%%%%%%%%%%%%%%%%%%%%%%%%%%%%%%%%%%%
 number of electrons        =         24
 total electronic charge    =     24.0000000

%%%% BOUNDARY %%%%%%%%%%%%%%%%%%%%%%%%%%%%%%%%%%%%%%%%%%%%%%%%%%%%%%%%%%%%%%%%%%
 boundary label             = solvent              
 boundary mode              = electronic           
 boundary is built as a function of a smooth density
 function type              =  1 
 using the optimal SCCS function with parameters 
 rhomax                     =      0.0050000 
 rhomin                     =      0.0001000 
 volume of the QM region    =   1611.6286959 
 surface of the QM region   =    641.7174089 

%%%% DIELECTRIC %%%%%%%%%%%%%%%%%%%%%%%%%%%%%%%%%%%%%%%%%%%%%%%%%%%%%%%%%%%%%%%%%
 dielectric build on homogeneous background
 environment bulk permitt.  =    100.0000000 
 dielectric flags
 need gradient              =  F 
 need factor depend. sqrt   =  T 
 total dielectric charge    =      0.0000000

%%%% DENSITY %%%%%%%%%%%%%%%%%%%%%%%%%%%%%%%%%%%%%%%%%%%%%%%%%%%%%%%%%%%%%%%%%%%
 density label              = vreference                                                                      
 integral of density        =      0.000000000    

%%%% DENSITY %%%%%%%%%%%%%%%%%%%%%%%%%%%%%%%%%%%%%%%%%%%%%%%%%%%%%%%%%%%%%%%%%%%
 density label              = velectrostatic                                                                  
 integral of density        =      0.000000000    

%%%% CHARGES %%%%%%%%%%%%%%%%%%%%%%%%%%%%%%%%%%%%%%%%%%%%%%%%%%%%%%%%%%%%%%%%%%%
 total number of charges    =         34
 total charge               =     -1.0000000

%%%% DENSITY %%%%%%%%%%%%%%%%%%%%%%%%%%%%%%%%%%%%%%%%%%%%%%%%%%%%%%%%%%%%%%%%%%%
 density label              = vsoftcavity                                                                     
 integral of density        =      0.000000000    

%%%% ELECTRONS %%%%%%%%%%%%%%%%%%%%%%%%%%%%%%%%%%%%%%%%%%%%%%%%%%%%%%%%%%%%%%%%%
 number of electrons        =         24
 total electronic charge    =     24.0000000

%%%% BOUNDARY %%%%%%%%%%%%%%%%%%%%%%%%%%%%%%%%%%%%%%%%%%%%%%%%%%%%%%%%%%%%%%%%%%
 boundary label             = solvent              
 boundary mode              = electronic           
 boundary is built as a function of a smooth density
 function type              =  1 
 using the optimal SCCS function with parameters 
 rhomax                     =      0.0050000 
 rhomin                     =      0.0001000 
 volume of the QM region    =    682.9173959 
 surface of the QM region   =    390.3246238 

%%%% DIELECTRIC %%%%%%%%%%%%%%%%%%%%%%%%%%%%%%%%%%%%%%%%%%%%%%%%%%%%%%%%%%%%%%%%%
 dielectric build on homogeneous background
 environment bulk permitt.  =    100.0000000 
 dielectric flags
 need gradient              =  F 
 need factor depend. sqrt   =  T 
 total dielectric charge    =      0.0000000

%%%% DENSITY %%%%%%%%%%%%%%%%%%%%%%%%%%%%%%%%%%%%%%%%%%%%%%%%%%%%%%%%%%%%%%%%%%%
 density label              = vreference                                                                      
 integral of density        =    -0.2329659099E-12

%%%% COMPUTE ELECTROSTATIC POTENTIAL %%%%%%%%%%%%%%%%%%%%%%%%%%%%%%%%%%%%%%%%%%%
 Iteration #          1
  pAp =    92.0128131107394       rzold =    89.1167871489848       alpha = 
  0.968525840436275     
 delta_qm =   0.144051E-01 delta_en =   0.358571E+03 tol =   0.100000E-04
 Iteration #          2
  pAp =    132.520657640119       rzold =    17.6132548542912       alpha = 
  0.132909503830888     
 delta_qm =   0.289070E-02 delta_en =   0.144394E+02 tol =   0.100000E-04
 Iteration #          3
  pAp =   0.875210726639450       rzold =   0.189580626128078       alpha = 
  0.216611406096463     
 delta_qm =   0.145902E-02 delta_en =   0.367844E+01 tol =   0.100000E-04
 Iteration #          4
  pAp =   0.108685012690477       rzold =   2.398392293269061E-002  alpha = 
  0.220673691238314     
 delta_qm =   0.104063E-02 delta_en =   0.187125E+01 tol =   0.100000E-04
 Iteration #          5
  pAp =   1.103448460193144E-002  rzold =   4.016261756553794E-003  alpha = 
  0.363973660885874     
 delta_qm =   0.560004E-03 delta_en =   0.541909E+00 tol =   0.100000E-04
 Iteration #          6
  pAp =   3.161772893740540E-003  rzold =   1.244401414874743E-003  alpha = 
  0.393577102687648     
 delta_qm =   0.250805E-03 delta_en =   0.108697E+00 tol =   0.100000E-04
 Iteration #          7
  pAp =   4.557029479957323E-004  rzold =   1.852514338078359E-004  alpha = 
  0.406517962244060     
 delta_qm =   0.150204E-03 delta_en =   0.389857E-01 tol =   0.100000E-04
 Iteration #          8
  pAp =   3.340931944857333E-004  rzold =   9.997319056183423E-005  alpha = 
  0.299237434978950     
 delta_qm =   0.862175E-04 delta_en =   0.128450E-01 tol =   0.100000E-04
 Iteration #          9
  pAp =   1.111757498479956E-004  rzold =   4.483629786977098E-005  alpha = 
  0.403292066220135     
 delta_qm =   0.370895E-04 delta_en =   0.237709E-02 tol =   0.100000E-04
 Iteration #         10
  pAp =   2.443675294536403E-005  rzold =   1.025899628262602E-005  alpha = 
  0.419818308331029     
 delta_qm =   0.181116E-04 delta_en =   0.566834E-03 tol =   0.100000E-04
 Iteration #         11
  pAp =   1.752100488235994E-006  rzold =   9.356876123718351E-007  alpha = 
  0.534037641479046     
 delta_qm =   0.992077E-05 delta_en =   0.170073E-03 tol =   0.100000E-04
 Iteration #         12
  pAp =   3.088983757374482E-007  rzold =   1.998189316465069E-007  alpha = 
  0.646875954493025     
 delta_qm =   0.472194E-05 delta_en =   0.385287E-04 tol =   0.100000E-04
 Iteration #         13
  pAp =   2.177341845552588E-007  rzold =   9.265342143857722E-008  alpha = 
  0.425534564670357     
 delta_qm =   0.253130E-05 delta_en =   0.110721E-04 tol =   0.100000E-04
 Iteration #         14
  pAp =   1.078851822183558E-007  rzold =   3.692860480779664E-008  alpha = 
  0.342295429719481     
 delta_qm =   0.156053E-05 delta_en =   0.420813E-05 tol =   0.100000E-04
 Charges are converged, EXIT

%%%% DENSITY %%%%%%%%%%%%%%%%%%%%%%%%%%%%%%%%%%%%%%%%%%%%%%%%%%%%%%%%%%%%%%%%%%%
 density label              = velectrostatic                                                                  
 integral of density        =    -0.1938860595E-12

%%%% CHARGES %%%%%%%%%%%%%%%%%%%%%%%%%%%%%%%%%%%%%%%%%%%%%%%%%%%%%%%%%%%%%%%%%%%
 total number of charges    =         34
 total charge               =     -1.0000000

%%%% DENSITY %%%%%%%%%%%%%%%%%%%%%%%%%%%%%%%%%%%%%%%%%%%%%%%%%%%%%%%%%%%%%%%%%%%
 density label              = vsoftcavity                                                                     
 integral of density        =      71.22167855    

%%%% ELECTRONS %%%%%%%%%%%%%%%%%%%%%%%%%%%%%%%%%%%%%%%%%%%%%%%%%%%%%%%%%%%%%%%%%
 number of electrons        =         24
 total electronic charge    =     24.0000000

%%%% BOUNDARY %%%%%%%%%%%%%%%%%%%%%%%%%%%%%%%%%%%%%%%%%%%%%%%%%%%%%%%%%%%%%%%%%%
 boundary label             = solvent              
 boundary mode              = electronic           
 boundary is built as a function of a smooth density
 function type              =  1 
 using the optimal SCCS function with parameters 
 rhomax                     =      0.0050000 
 rhomin                     =      0.0001000 
 volume of the QM region    =    643.1601346 
 surface of the QM region   =    381.7915111 

%%%% DIELECTRIC %%%%%%%%%%%%%%%%%%%%%%%%%%%%%%%%%%%%%%%%%%%%%%%%%%%%%%%%%%%%%%%%%
 dielectric build on homogeneous background
 environment bulk permitt.  =    100.0000000 
 dielectric flags
 need gradient              =  F 
 need factor depend. sqrt   =  T 
 total dielectric charge    =      0.9813172

%%%% DENSITY %%%%%%%%%%%%%%%%%%%%%%%%%%%%%%%%%%%%%%%%%%%%%%%%%%%%%%%%%%%%%%%%%%%
 density label              = vreference                                                                      
 integral of density        =    -0.3595477825E-12

%%%% COMPUTE ELECTROSTATIC POTENTIAL %%%%%%%%%%%%%%%%%%%%%%%%%%%%%%%%%%%%%%%%%%%
 Warning: bad guess with residual norm =   0.739954E+03, reset to no guess
 Iteration #          1
  pAp =    95.4532541409169       rzold =    92.7270004928729       alpha = 
  0.971438861120238     
 delta_qm =   0.202002E-01 delta_en =   0.705107E+03 tol =   0.100000E-04
 Iteration #          2
  pAp =    168.376786624000       rzold =    19.5453955973694       alpha = 
  0.116081295939065     
 delta_qm =   0.404439E-02 delta_en =   0.282650E+02 tol =   0.100000E-04
 Iteration #          3
  pAp =    1.14307351734698       rzold =   0.200859142911578       alpha = 
  0.175718481675407     
 delta_qm =   0.218211E-02 delta_en =   0.822808E+01 tol =   0.100000E-04
 Iteration #          4
  pAp =   0.120334625663276       rzold =   2.338432251243661E-002  alpha = 
  0.194327462968733     
 delta_qm =   0.161698E-02 delta_en =   0.451808E+01 tol =   0.100000E-04
 Iteration #          5
  pAp =   1.203994780240519E-002  rzold =   4.619582002292954E-003  alpha = 
  0.383687876235652     
 delta_qm =   0.908470E-03 delta_en =   0.142615E+01 tol =   0.100000E-04
 Iteration #          6
  pAp =   5.230817468926669E-003  rzold =   1.849800894740738E-003  alpha = 
  0.353635145123943     
 delta_qm =   0.473634E-03 delta_en =   0.387641E+00 tol =   0.100000E-04
 Iteration #          7
  pAp =   8.397839500989584E-004  rzold =   3.992906034814415E-004  alpha = 
  0.475468248034974     
 delta_qm =   0.288919E-03 delta_en =   0.144243E+00 tol =   0.100000E-04
 Iteration #          8
  pAp =   5.688129178652336E-004  rzold =   2.356311842864332E-004  alpha = 
  0.414250761341289     
 delta_qm =   0.139604E-03 delta_en =   0.336776E-01 tol =   0.100000E-04
 Iteration #          9
  pAp =   7.502644140883105E-004  rzold =   1.729041843444301E-004  alpha = 
  0.230457664121703     
 delta_qm =   0.789328E-04 delta_en =   0.107661E-01 tol =   0.100000E-04
 Iteration #         10
  pAp =   1.309131264588445E-004  rzold =   4.485681116982435E-005  alpha = 
  0.342645633659403     
 delta_qm =   0.362182E-04 delta_en =   0.226672E-02 tol =   0.100000E-04
 Iteration #         11
  pAp =   7.465095097883773E-006  rzold =   3.285963496618139E-006  alpha = 
  0.440177044435730     
 delta_qm =   0.207697E-04 delta_en =   0.745428E-03 tol =   0.100000E-04
 Iteration #         12
  pAp =   1.861412285221828E-006  rzold =   7.622019033233563E-007  alpha = 
  0.409475057930287     
 delta_qm =   0.135942E-04 delta_en =   0.319339E-03 tol =   0.100000E-04
 Iteration #         13
  pAp =   6.061881692362764E-007  rzold =   3.000988679625804E-007  alpha = 
  0.495058932510459     
 delta_qm =   0.796247E-05 delta_en =   0.109557E-03 tol =   0.100000E-04
 Iteration #         14
  pAp =   3.783487811947174E-007  rzold =   1.499830283897332E-007  alpha = 
  0.396414725894265     
 delta_qm =   0.542340E-05 delta_en =   0.508262E-04 tol =   0.100000E-04
 Iteration #         15
  pAp =   1.523815016568961E-007  rzold =   5.997261994304302E-008  alpha = 
  0.393568899708562     
 delta_qm =   0.342533E-05 delta_en =   0.202744E-04 tol =   0.100000E-04
 Iteration #         16
  pAp =   6.744234775060218E-008  rzold =   2.539843771731957E-008  alpha = 
  0.376594803775834     
 delta_qm =   0.186024E-05 delta_en =   0.597971E-05 tol =   0.100000E-04
 Charges are converged, EXIT

%%%% DENSITY %%%%%%%%%%%%%%%%%%%%%%%%%%%%%%%%%%%%%%%%%%%%%%%%%%%%%%%%%%%%%%%%%%%
 density label              = velectrostatic                                                                  
 integral of density        =    -0.1095025305E-11

%%%% CHARGES %%%%%%%%%%%%%%%%%%%%%%%%%%%%%%%%%%%%%%%%%%%%%%%%%%%%%%%%%%%%%%%%%%%
 total number of charges    =         34
 total charge               =     -1.0000000

%%%% DENSITY %%%%%%%%%%%%%%%%%%%%%%%%%%%%%%%%%%%%%%%%%%%%%%%%%%%%%%%%%%%%%%%%%%%
 density label              = vsoftcavity                                                                     
 integral of density        =      49.60039014    

%%%% ELECTRONS %%%%%%%%%%%%%%%%%%%%%%%%%%%%%%%%%%%%%%%%%%%%%%%%%%%%%%%%%%%%%%%%%
 number of electrons        =         24
 total electronic charge    =     24.0000000

%%%% BOUNDARY %%%%%%%%%%%%%%%%%%%%%%%%%%%%%%%%%%%%%%%%%%%%%%%%%%%%%%%%%%%%%%%%%%
 boundary label             = solvent              
 boundary mode              = electronic           
 boundary is built as a function of a smooth density
 function type              =  1 
 using the optimal SCCS function with parameters 
 rhomax                     =      0.0050000 
 rhomin                     =      0.0001000 
 volume of the QM region    =    608.8662573 
 surface of the QM region   =    371.8565936 

%%%% DIELECTRIC %%%%%%%%%%%%%%%%%%%%%%%%%%%%%%%%%%%%%%%%%%%%%%%%%%%%%%%%%%%%%%%%%
 dielectric build on homogeneous background
 environment bulk permitt.  =    100.0000000 
 dielectric flags
 need gradient              =  F 
 need factor depend. sqrt   =  T 
 total dielectric charge    =      0.9822638

%%%% DENSITY %%%%%%%%%%%%%%%%%%%%%%%%%%%%%%%%%%%%%%%%%%%%%%%%%%%%%%%%%%%%%%%%%%%
 density label              = vreference                                                                      
 integral of density        =    -0.4856691181E-12

%%%% COMPUTE ELECTROSTATIC POTENTIAL %%%%%%%%%%%%%%%%%%%%%%%%%%%%%%%%%%%%%%%%%%%
 Warning: bad guess with residual norm =   0.919184E+03, reset to no guess
 Iteration #          1
  pAp =    95.9547098636070       rzold =    93.3874254792730       alpha = 
  0.973244831983931     
 delta_qm =   0.225243E-01 delta_en =   0.876693E+03 tol =   0.100000E-04
 Iteration #          2
  pAp =    211.476298404743       rzold =    21.4225607332737       alpha = 
  0.101300055348393     
 delta_qm =   0.423465E-02 delta_en =   0.309870E+02 tol =   0.100000E-04
 Iteration #          3
  pAp =    1.22639043117642       rzold =   0.223409080001121       alpha = 
  0.182167990161840     
 delta_qm =   0.203974E-02 delta_en =   0.718943E+01 tol =   0.100000E-04
 Iteration #          4
  pAp =   0.105213229616719       rzold =   1.939353320836337E-002  alpha = 
  0.184325994734806     
 delta_qm =   0.159181E-02 delta_en =   0.437851E+01 tol =   0.100000E-04
 Iteration #          5
  pAp =   1.927504196916026E-002  rzold =   5.459539720390937E-003  alpha = 
  0.283243986141566     
 delta_qm =   0.103603E-02 delta_en =   0.185476E+01 tol =   0.100000E-04
 Iteration #          6
  pAp =   7.054794427698190E-003  rzold =   2.376778376136848E-003  alpha = 
  0.336902570371896     
 delta_qm =   0.569971E-03 delta_en =   0.561370E+00 tol =   0.100000E-04
 Iteration #          7
  pAp =   1.575539575675811E-003  rzold =   6.635488532180679E-004  alpha = 
  0.421156576110407     
 delta_qm =   0.371149E-03 delta_en =   0.238034E+00 tol =   0.100000E-04
 Iteration #          8
  pAp =   7.290659618178931E-004  rzold =   3.498499234174494E-004  alpha = 
  0.479860453977462     
 delta_qm =   0.191487E-03 delta_en =   0.633611E-01 tol =   0.100000E-04
 Iteration #          9
  pAp =   1.077006289647892E-003  rzold =   2.727210991247904E-004  alpha = 
  0.253221454457756     
 delta_qm =   0.136317E-03 delta_en =   0.321101E-01 tol =   0.100000E-04
 Iteration #         10
  pAp =   6.050818221518569E-004  rzold =   1.531851208444815E-004  alpha = 
  0.253164308092595     
 delta_qm =   0.583262E-04 delta_en =   0.587857E-02 tol =   0.100000E-04
 Iteration #         11
  pAp =   4.566946150299477E-005  rzold =   1.553155218598065E-005  alpha = 
  0.340086168630698     
 delta_qm =   0.349018E-04 delta_en =   0.210494E-02 tol =   0.100000E-04
 Iteration #         12
  pAp =   1.437005101810344E-005  rzold =   3.982079042021173E-006  alpha = 
  0.277109596688595     
 delta_qm =   0.232666E-04 delta_en =   0.935429E-03 tol =   0.100000E-04
 Iteration #         13
  pAp =   1.961639512992600E-006  rzold =   8.530808066545557E-007  alpha = 
  0.434881537104200     
 delta_qm =   0.136220E-04 delta_en =   0.320647E-03 tol =   0.100000E-04
 Iteration #         14
  pAp =   9.183012760220232E-007  rzold =   3.868021237419851E-007  alpha = 
  0.421214838574077     
 delta_qm =   0.924595E-05 delta_en =   0.147722E-03 tol =   0.100000E-04
 Iteration #         15
  pAp =   2.951696506902427E-007  rzold =   1.377698586773447E-007  alpha = 
  0.466748049317317     
 delta_qm =   0.529389E-05 delta_en =   0.484276E-04 tol =   0.100000E-04
 Iteration #         16
  pAp =   1.218299251703127E-007  rzold =   5.620257894300372E-008  alpha = 
  0.461319982462725     
 delta_qm =   0.298345E-05 delta_en =   0.153809E-04 tol =   0.100000E-04
 Iteration #         17
  pAp =   3.788673004783044E-008  rzold =   1.736588654323024E-008  alpha = 
  0.458363298213029     
 delta_qm =   0.160172E-05 delta_en =   0.443319E-05 tol =   0.100000E-04
 Charges are converged, EXIT

%%%% DENSITY %%%%%%%%%%%%%%%%%%%%%%%%%%%%%%%%%%%%%%%%%%%%%%%%%%%%%%%%%%%%%%%%%%%
 density label              = velectrostatic                                                                  
 integral of density        =     0.9330478776E-12

%%%% CHARGES %%%%%%%%%%%%%%%%%%%%%%%%%%%%%%%%%%%%%%%%%%%%%%%%%%%%%%%%%%%%%%%%%%%
 total number of charges    =         34
 total charge               =     -1.0000000

%%%% DENSITY %%%%%%%%%%%%%%%%%%%%%%%%%%%%%%%%%%%%%%%%%%%%%%%%%%%%%%%%%%%%%%%%%%%
 density label              = vsoftcavity                                                                     
 integral of density        =      37.81267105    

%%%% ELECTRONS %%%%%%%%%%%%%%%%%%%%%%%%%%%%%%%%%%%%%%%%%%%%%%%%%%%%%%%%%%%%%%%%%
 number of electrons        =         24
 total electronic charge    =     24.0000000

%%%% BOUNDARY %%%%%%%%%%%%%%%%%%%%%%%%%%%%%%%%%%%%%%%%%%%%%%%%%%%%%%%%%%%%%%%%%%
 boundary label             = solvent              
 boundary mode              = electronic           
 boundary is built as a function of a smooth density
 function type              =  1 
 using the optimal SCCS function with parameters 
 rhomax                     =      0.0050000 
 rhomin                     =      0.0001000 
 volume of the QM region    =    589.8323181 
 surface of the QM region   =    366.6417135 

%%%% DIELECTRIC %%%%%%%%%%%%%%%%%%%%%%%%%%%%%%%%%%%%%%%%%%%%%%%%%%%%%%%%%%%%%%%%%
 dielectric build on homogeneous background
 environment bulk permitt.  =    100.0000000 
 dielectric flags
 need gradient              =  F 
 need factor depend. sqrt   =  T 
 total dielectric charge    =      0.9824215

%%%% DENSITY %%%%%%%%%%%%%%%%%%%%%%%%%%%%%%%%%%%%%%%%%%%%%%%%%%%%%%%%%%%%%%%%%%%
 density label              = vreference                                                                      
 integral of density        =     0.5261963704E-12

%%%% COMPUTE ELECTROSTATIC POTENTIAL %%%%%%%%%%%%%%%%%%%%%%%%%%%%%%%%%%%%%%%%%%%
 Warning: bad guess with residual norm =   0.139383E+04, reset to no guess
 Iteration #          1
  pAp =    95.8691089321460       rzold =    93.2739930176169       alpha = 
  0.972930634868361     
 delta_qm =   0.276968E-01 delta_en =   0.132557E+04 tol =   0.100000E-04
 Iteration #          2
  pAp =    251.297062523035       rzold =    23.5291115110765       alpha = 
  9.363066672902190E-002
 delta_qm =   0.507391E-02 delta_en =   0.444866E+02 tol =   0.100000E-04
 Iteration #          3
  pAp =    1.73945476151071       rzold =   0.290084524198306       alpha = 
  0.166767501298148     
 delta_qm =   0.235968E-02 delta_en =   0.962163E+01 tol =   0.100000E-04
 Iteration #          4
  pAp =   0.139146983417606       rzold =   2.384137440399583E-002  alpha = 
  0.171339498840901     
 delta_qm =   0.188097E-02 delta_en =   0.611378E+01 tol =   0.100000E-04
 Iteration #          5
  pAp =   2.560766562816377E-002  rzold =   6.443460987899450E-003  alpha = 
  0.251622349395753     
 delta_qm =   0.128332E-02 delta_en =   0.284587E+01 tol =   0.100000E-04
 Iteration #          6
  pAp =   8.422309908875596E-003  rzold =   2.729245806756398E-003  alpha = 
  0.324049558409180     
 delta_qm =   0.748391E-03 delta_en =   0.967833E+00 tol =   0.100000E-04
 Iteration #          7
  pAp =   2.328842721837083E-003  rzold =   8.714829294287634E-004  alpha = 
  0.374212874599494     
 delta_qm =   0.527007E-03 delta_en =   0.479928E+00 tol =   0.100000E-04
 Iteration #          8
  pAp =   1.176149132316664E-003  rzold =   4.529229439674545E-004  alpha = 
  0.385089723337491     
 delta_qm =   0.307284E-03 delta_en =   0.163163E+00 tol =   0.100000E-04
 Iteration #          9
  pAp =   1.999110868270032E-003  rzold =   4.912016037202346E-004  alpha = 
  0.245710036154876     
 delta_qm =   0.235208E-03 delta_en =   0.955980E-01 tol =   0.100000E-04
 Iteration #         10
  pAp =   7.679342994179895E-004  rzold =   2.570262065717686E-004  alpha = 
  0.334698172443354     
 delta_qm =   0.982210E-04 delta_en =   0.166706E-01 tol =   0.100000E-04
 Iteration #         11
  pAp =   1.199189325485483E-004  rzold =   3.955606479255439E-005  alpha = 
  0.329856711962812     
 delta_qm =   0.616226E-04 delta_en =   0.656182E-02 tol =   0.100000E-04
 Iteration #         12
  pAp =   3.890747135282266E-005  rzold =   1.026965568079053E-005  alpha = 
  0.263950735519734     
 delta_qm =   0.435183E-04 delta_en =   0.327256E-02 tol =   0.100000E-04
 Iteration #         13
  pAp =   5.786519913403748E-006  rzold =   2.294778427674687E-006  alpha = 
  0.396573149667924     
 delta_qm =   0.275606E-04 delta_en =   0.131257E-02 tol =   0.100000E-04
 Iteration #         14
  pAp =   2.890741592710965E-006  rzold =   1.180309037234966E-006  alpha = 
  0.408306657437361     
 delta_qm =   0.192884E-04 delta_en =   0.642887E-03 tol =   0.100000E-04
 Iteration #         15
  pAp =   1.064089809532170E-006  rzold =   4.767996083494738E-007  alpha = 
  0.448082111188623     
 delta_qm =   0.109204E-04 delta_en =   0.206071E-03 tol =   0.100000E-04
 Iteration #         16
  pAp =   4.831847159689912E-007  rzold =   2.062701019945404E-007  alpha = 
  0.426896992345631     
 delta_qm =   0.656102E-05 delta_en =   0.743852E-04 tol =   0.100000E-04
 Iteration #         17
  pAp =   1.581847102742762E-007  rzold =   6.428252687574166E-008  alpha = 
  0.406376360675329     
 delta_qm =   0.373774E-05 delta_en =   0.241414E-04 tol =   0.100000E-04
 Iteration #         18
  pAp =   1.711427261330141E-007  rzold =   3.652336883274318E-008  alpha = 
  0.213408829332056     
 delta_qm =   0.250155E-05 delta_en =   0.108134E-04 tol =   0.100000E-04
 Iteration #         19
  pAp =   2.121516743581181E-008  rzold =   9.036020744071401E-009  alpha = 
  0.425922669307730     
 delta_qm =   0.163940E-05 delta_en =   0.464423E-05 tol =   0.100000E-04
 Charges are converged, EXIT

%%%% DENSITY %%%%%%%%%%%%%%%%%%%%%%%%%%%%%%%%%%%%%%%%%%%%%%%%%%%%%%%%%%%%%%%%%%%
 density label              = velectrostatic                                                                  
 integral of density        =    -0.1099630675E-11

%%%% CHARGES %%%%%%%%%%%%%%%%%%%%%%%%%%%%%%%%%%%%%%%%%%%%%%%%%%%%%%%%%%%%%%%%%%%
 total number of charges    =         34
 total charge               =     -1.0000000

%%%% DENSITY %%%%%%%%%%%%%%%%%%%%%%%%%%%%%%%%%%%%%%%%%%%%%%%%%%%%%%%%%%%%%%%%%%%
 density label              = vsoftcavity                                                                     
 integral of density        =      33.74494385    

%%%% ELECTRONS %%%%%%%%%%%%%%%%%%%%%%%%%%%%%%%%%%%%%%%%%%%%%%%%%%%%%%%%%%%%%%%%%
 number of electrons        =         24
 total electronic charge    =     24.0000000

%%%% BOUNDARY %%%%%%%%%%%%%%%%%%%%%%%%%%%%%%%%%%%%%%%%%%%%%%%%%%%%%%%%%%%%%%%%%%
 boundary label             = solvent              
 boundary mode              = electronic           
 boundary is built as a function of a smooth density
 function type              =  1 
 using the optimal SCCS function with parameters 
 rhomax                     =      0.0050000 
 rhomin                     =      0.0001000 
 volume of the QM region    =    590.3289018 
 surface of the QM region   =    367.1650772 

%%%% DIELECTRIC %%%%%%%%%%%%%%%%%%%%%%%%%%%%%%%%%%%%%%%%%%%%%%%%%%%%%%%%%%%%%%%%%
 dielectric build on homogeneous background
 environment bulk permitt.  =    100.0000000 
 dielectric flags
 need gradient              =  F 
 need factor depend. sqrt   =  T 
 total dielectric charge    =      0.9824044

%%%% DENSITY %%%%%%%%%%%%%%%%%%%%%%%%%%%%%%%%%%%%%%%%%%%%%%%%%%%%%%%%%%%%%%%%%%%
 density label              = vreference                                                                      
 integral of density        =     0.1339504639E-12

%%%% COMPUTE ELECTROSTATIC POTENTIAL %%%%%%%%%%%%%%%%%%%%%%%%%%%%%%%%%%%%%%%%%%%
 Warning: bad guess with residual norm =   0.147596E+04, reset to no guess
 Iteration #          1
  pAp =    95.9508852238492       rzold =    93.3544803841310       alpha = 
  0.972940272164651     
 delta_qm =   0.284977E-01 delta_en =   0.140334E+04 tol =   0.100000E-04
 Iteration #          2
  pAp =    254.086057721711       rzold =    23.6496712138654       alpha = 
  9.307740623756607E-002
 delta_qm =   0.528937E-02 delta_en =   0.483449E+02 tol =   0.100000E-04
 Iteration #          3
  pAp =    1.86501803786128       rzold =   0.310024156338023       alpha = 
  0.166231183851469     
 delta_qm =   0.241754E-02 delta_en =   0.100993E+02 tol =   0.100000E-04
 Iteration #          4
  pAp =   0.138066579761633       rzold =   2.389176790687061E-002  alpha = 
  0.173045265176547     
 delta_qm =   0.192242E-02 delta_en =   0.638617E+01 tol =   0.100000E-04
 Iteration #          5
  pAp =   2.691274376181488E-002  rzold =   6.580842504709430E-003  alpha = 
  0.244525142547771     
 delta_qm =   0.132382E-02 delta_en =   0.302833E+01 tol =   0.100000E-04
 Iteration #          6
  pAp =   8.788488518147668E-003  rzold =   2.819872777975145E-003  alpha = 
  0.320859812486787     
 delta_qm =   0.774327E-03 delta_en =   0.103608E+01 tol =   0.100000E-04
 Iteration #          7
  pAp =   2.424602320490776E-003  rzold =   8.956010372051384E-004  alpha = 
  0.369380590637996     
 delta_qm =   0.549133E-03 delta_en =   0.521074E+00 tol =   0.100000E-04
 Iteration #          8
  pAp =   1.152854287049586E-003  rzold =   4.585345562078724E-004  alpha = 
  0.397738518526366     
 delta_qm =   0.318380E-03 delta_en =   0.175160E+00 tol =   0.100000E-04
 Iteration #          9
  pAp =   2.062490988177602E-003  rzold =   5.000952307374923E-004  alpha = 
  0.242471474350233     
 delta_qm =   0.250133E-03 delta_en =   0.108115E+00 tol =   0.100000E-04
 Iteration #         10
  pAp =   8.375458814882925E-004  rzold =   2.763753744990358E-004  alpha = 
  0.329982369452913     
 delta_qm =   0.104966E-03 delta_en =   0.190390E-01 tol =   0.100000E-04
 Iteration #         11
  pAp =   1.325362746574296E-004  rzold =   4.359997496288051E-005  alpha = 
  0.328966353366840     
 delta_qm =   0.664649E-04 delta_en =   0.763357E-02 tol =   0.100000E-04
 Iteration #         12
  pAp =   4.309617228976986E-005  rzold =   1.141292903445552E-005  alpha = 
  0.264824656763420     
 delta_qm =   0.468929E-04 delta_en =   0.379977E-02 tol =   0.100000E-04
 Iteration #         13
  pAp =   6.573777696303631E-006  rzold =   2.564360679725276E-006  alpha = 
  0.390089351693044     
 delta_qm =   0.300203E-04 delta_en =   0.155731E-02 tol =   0.100000E-04
 Iteration #         14
  pAp =   3.291034045804637E-006  rzold =   1.338890707177660E-006  alpha = 
  0.406829795299279     
 delta_qm =   0.211875E-04 delta_en =   0.775720E-03 tol =   0.100000E-04
 Iteration #         15
  pAp =   1.219102344177123E-006  rzold =   5.446081293912415E-007  alpha = 
  0.446728801722422     
 delta_qm =   0.119255E-04 delta_en =   0.245753E-03 tol =   0.100000E-04
 Iteration #         16
  pAp =   5.482199526930782E-007  rzold =   2.370793427374706E-007  alpha = 
  0.432452962670988     
 delta_qm =   0.715567E-05 delta_en =   0.884799E-04 tol =   0.100000E-04
 Iteration #         17
  pAp =   1.431803884522356E-007  rzold =   6.869714730717622E-008  alpha = 
  0.479794391185727     
 delta_qm =   0.359656E-05 delta_en =   0.223521E-04 tol =   0.100000E-04
 Iteration #         18
  pAp =   8.520869976411831E-008  rzold =   2.261441834875866E-008  alpha = 
  0.265400345403248     
 delta_qm =   0.254233E-05 delta_en =   0.111688E-04 tol =   0.100000E-04
 Iteration #         19
  pAp =   4.180314477873732E-008  rzold =   1.206958947150591E-008  alpha = 
  0.288724437728067     
 delta_qm =   0.178773E-05 delta_en =   0.552267E-05 tol =   0.100000E-04
 Charges are converged, EXIT

%%%% DENSITY %%%%%%%%%%%%%%%%%%%%%%%%%%%%%%%%%%%%%%%%%%%%%%%%%%%%%%%%%%%%%%%%%%%
 density label              = velectrostatic                                                                  
 integral of density        =    -0.4476419235E-12

%%%% CHARGES %%%%%%%%%%%%%%%%%%%%%%%%%%%%%%%%%%%%%%%%%%%%%%%%%%%%%%%%%%%%%%%%%%%
 total number of charges    =         34
 total charge               =     -1.0000000

%%%% DENSITY %%%%%%%%%%%%%%%%%%%%%%%%%%%%%%%%%%%%%%%%%%%%%%%%%%%%%%%%%%%%%%%%%%%
 density label              = vsoftcavity                                                                     
 integral of density        =      33.72700752    

%%%% ELECTRONS %%%%%%%%%%%%%%%%%%%%%%%%%%%%%%%%%%%%%%%%%%%%%%%%%%%%%%%%%%%%%%%%%
 number of electrons        =         24
 total electronic charge    =     24.0000000

%%%% BOUNDARY %%%%%%%%%%%%%%%%%%%%%%%%%%%%%%%%%%%%%%%%%%%%%%%%%%%%%%%%%%%%%%%%%%
 boundary label             = solvent              
 boundary mode              = electronic           
 boundary is built as a function of a smooth density
 function type              =  1 
 using the optimal SCCS function with parameters 
 rhomax                     =      0.0050000 
 rhomin                     =      0.0001000 
 volume of the QM region    =    591.6072702 
 surface of the QM region   =    367.8600965 

%%%% DIELECTRIC %%%%%%%%%%%%%%%%%%%%%%%%%%%%%%%%%%%%%%%%%%%%%%%%%%%%%%%%%%%%%%%%%
 dielectric build on homogeneous background
 environment bulk permitt.  =    100.0000000 
 dielectric flags
 need gradient              =  F 
 need factor depend. sqrt   =  T 
 total dielectric charge    =      0.9823246

%%%% DENSITY %%%%%%%%%%%%%%%%%%%%%%%%%%%%%%%%%%%%%%%%%%%%%%%%%%%%%%%%%%%%%%%%%%%
 density label              = vreference                                                                      
 integral of density        =    -0.8815993203E-13

%%%% COMPUTE ELECTROSTATIC POTENTIAL %%%%%%%%%%%%%%%%%%%%%%%%%%%%%%%%%%%%%%%%%%%
 Warning: bad guess with residual norm =   0.153483E+04, reset to no guess
 Iteration #          1
  pAp =    95.9899957387629       rzold =    93.3759953386814       alpha = 
  0.972767991289473     
 delta_qm =   0.290537E-01 delta_en =   0.145864E+04 tol =   0.100000E-04
 Iteration #          2
  pAp =    255.789541272779       rzold =    23.7852504981614       alpha = 
  9.298758025761648E-002
 delta_qm =   0.548214E-02 delta_en =   0.519330E+02 tol =   0.100000E-04
 Iteration #          3
  pAp =    2.00256430961346       rzold =   0.331263128540802       alpha = 
  0.165419470900659     
 delta_qm =   0.246698E-02 delta_en =   0.105166E+02 tol =   0.100000E-04
 Iteration #          4
  pAp =   0.146347755464433       rzold =   2.514410885092505E-002  alpha = 
  0.171810690031634     
 delta_qm =   0.195778E-02 delta_en =   0.662323E+01 tol =   0.100000E-04
 Iteration #          5
  pAp =   2.806346098088897E-002  rzold =   6.780442633825685E-003  alpha = 
  0.241611062813782     
 delta_qm =   0.135727E-02 delta_en =   0.318329E+01 tol =   0.100000E-04
 Iteration #          6
  pAp =   8.958151155207221E-003  rzold =   2.881576057768352E-003  alpha = 
  0.321670845673701     
 delta_qm =   0.796810E-03 delta_en =   0.109712E+01 tol =   0.100000E-04
 Iteration #          7
  pAp =   2.507750951739312E-003  rzold =   9.217736016063683E-004  alpha = 
  0.367569834224188     
 delta_qm =   0.567289E-03 delta_en =   0.556100E+00 tol =   0.100000E-04
 Iteration #          8
  pAp =   1.168431348092515E-003  rzold =   4.664934629602787E-004  alpha = 
  0.399247644050151     
 delta_qm =   0.329624E-03 delta_en =   0.187750E+00 tol =   0.100000E-04
 Iteration #          9
  pAp =   2.113226323004790E-003  rzold =   5.113888170586425E-004  alpha = 
  0.241994343668548     
 delta_qm =   0.261073E-03 delta_en =   0.117779E+00 tol =   0.100000E-04
 Iteration #         10
  pAp =   8.640682968827406E-004  rzold =   2.868143277998952E-004  alpha = 
  0.331934788991359     
 delta_qm =   0.109586E-03 delta_en =   0.207516E-01 tol =   0.100000E-04
 Iteration #         11
  pAp =   1.399726206395885E-004  rzold =   4.654716115461187E-005  alpha = 
  0.332544757266957     
 delta_qm =   0.694802E-04 delta_en =   0.834192E-02 tol =   0.100000E-04
 Iteration #         12
  pAp =   4.533627827507773E-005  rzold =   1.204227535181573E-005  alpha = 
  0.265621171608954     
 delta_qm =   0.489863E-04 delta_en =   0.414660E-02 tol =   0.100000E-04
 Iteration #         13
  pAp =   7.068519827439354E-006  rzold =   2.743148794448756E-006  alpha = 
  0.388079663269826     
 delta_qm =   0.317586E-04 delta_en =   0.174288E-02 tol =   0.100000E-04
 Iteration #         14
  pAp =   3.615481226843495E-006  rzold =   1.455718048836884E-006  alpha = 
  0.402634658431847     
 delta_qm =   0.225650E-04 delta_en =   0.879858E-03 tol =   0.100000E-04
 Iteration #         15
  pAp =   1.350817079105478E-006  rzold =   6.015691159863172E-007  alpha = 
  0.445337215002257     
 delta_qm =   0.125695E-04 delta_en =   0.273012E-03 tol =   0.100000E-04
 Iteration #         16
  pAp =   6.076144435774570E-007  rzold =   2.629509116391229E-007  alpha = 
  0.432759481639285     
 delta_qm =   0.759822E-05 delta_en =   0.997625E-04 tol =   0.100000E-04
 Iteration #         17
  pAp =   1.513944386143181E-007  rzold =   7.492155627897594E-008  alpha = 
  0.494876542128743     
 delta_qm =   0.372290E-05 delta_en =   0.239501E-04 tol =   0.100000E-04
 Iteration #         18
  pAp =   4.429615589304241E-008  rzold =   1.851884454057171E-008  alpha = 
  0.418068885825834     
 delta_qm =   0.234343E-05 delta_en =   0.948962E-05 tol =   0.100000E-04
 Charges are converged, EXIT

%%%% DENSITY %%%%%%%%%%%%%%%%%%%%%%%%%%%%%%%%%%%%%%%%%%%%%%%%%%%%%%%%%%%%%%%%%%%
 density label              = velectrostatic                                                                  
 integral of density        =     0.5898820527E-12

%%%% CHARGES %%%%%%%%%%%%%%%%%%%%%%%%%%%%%%%%%%%%%%%%%%%%%%%%%%%%%%%%%%%%%%%%%%%
 total number of charges    =         34
 total charge               =     -1.0000000

%%%% DENSITY %%%%%%%%%%%%%%%%%%%%%%%%%%%%%%%%%%%%%%%%%%%%%%%%%%%%%%%%%%%%%%%%%%%
 density label              = vsoftcavity                                                                     
 integral of density        =      34.20558161    

%%%% ELECTRONS %%%%%%%%%%%%%%%%%%%%%%%%%%%%%%%%%%%%%%%%%%%%%%%%%%%%%%%%%%%%%%%%%
 number of electrons        =         24
 total electronic charge    =     24.0000000

%%%% BOUNDARY %%%%%%%%%%%%%%%%%%%%%%%%%%%%%%%%%%%%%%%%%%%%%%%%%%%%%%%%%%%%%%%%%%
 boundary label             = solvent              
 boundary mode              = electronic           
 boundary is built as a function of a smooth density
 function type              =  1 
 using the optimal SCCS function with parameters 
 rhomax                     =      0.0050000 
 rhomin                     =      0.0001000 
 volume of the QM region    =    591.8205797 
 surface of the QM region   =    368.0531539 

%%%% DIELECTRIC %%%%%%%%%%%%%%%%%%%%%%%%%%%%%%%%%%%%%%%%%%%%%%%%%%%%%%%%%%%%%%%%%
 dielectric build on homogeneous background
 environment bulk permitt.  =    100.0000000 
 dielectric flags
 need gradient              =  F 
 need factor depend. sqrt   =  T 
 total dielectric charge    =      0.9824914

%%%% DENSITY %%%%%%%%%%%%%%%%%%%%%%%%%%%%%%%%%%%%%%%%%%%%%%%%%%%%%%%%%%%%%%%%%%%
 density label              = vreference                                                                      
 integral of density        =     0.7954131181E-13

%%%% COMPUTE ELECTROSTATIC POTENTIAL %%%%%%%%%%%%%%%%%%%%%%%%%%%%%%%%%%%%%%%%%%%
 Warning: bad guess with residual norm =   0.158617E+04, reset to no guess
 Iteration #          1
  pAp =    96.0403443268441       rzold =    93.4010343356640       alpha = 
  0.972518736686345     
 delta_qm =   0.295271E-01 delta_en =   0.150656E+04 tol =   0.100000E-04
 Iteration #          2
  pAp =    258.670523307876       rzold =    24.0230321749293       alpha = 
  9.287116238728324E-002
 delta_qm =   0.559588E-02 delta_en =   0.541104E+02 tol =   0.100000E-04
 Iteration #          3
  pAp =    2.08351188726740       rzold =   0.343696595668712       alpha = 
  0.164960227858111     
 delta_qm =   0.248884E-02 delta_en =   0.107038E+02 tol =   0.100000E-04
 Iteration #          4
  pAp =   0.149355002375001       rzold =   2.563472017037494E-002  alpha = 
  0.171636167270857     
 delta_qm =   0.197292E-02 delta_en =   0.672611E+01 tol =   0.100000E-04
 Iteration #          5
  pAp =   2.864432946287523E-002  rzold =   6.865530900469766E-003  alpha = 
  0.239682025350529     
 delta_qm =   0.137232E-02 delta_en =   0.325429E+01 tol =   0.100000E-04
 Iteration #          6
  pAp =   9.060418376040458E-003  rzold =   2.911856663161223E-003  alpha = 
  0.321382141785129     
 delta_qm =   0.807017E-03 delta_en =   0.112541E+01 tol =   0.100000E-04
 Iteration #          7
  pAp =   2.561749333842805E-003  rzold =   9.370174631140284E-004  alpha = 
  0.365772501913150     
 delta_qm =   0.576308E-03 delta_en =   0.573922E+00 tol =   0.100000E-04
 Iteration #          8
  pAp =   1.177356994032553E-003  rzold =   4.694358556874576E-004  alpha = 
  0.398720063724765     
 delta_qm =   0.335661E-03 delta_en =   0.194691E+00 tol =   0.100000E-04
 Iteration #          9
  pAp =   2.137333313628491E-003  rzold =   5.169562087343687E-004  alpha = 
  0.241869719354510     
 delta_qm =   0.267205E-03 delta_en =   0.123376E+00 tol =   0.100000E-04
 Iteration #         10
  pAp =   8.748059813656334E-004  rzold =   2.918372226983096E-004  alpha = 
  0.333602225996136     
 delta_qm =   0.112001E-03 delta_en =   0.216765E-01 tol =   0.100000E-04
 Iteration #         11
  pAp =   1.439000356109739E-004  rzold =   4.807393936315361E-005  alpha = 
  0.334078717625331     
 delta_qm =   0.711124E-04 delta_en =   0.873845E-02 tol =   0.100000E-04
 Iteration #         12
  pAp =   4.681634832736782E-005  rzold =   1.244179875521430E-005  alpha = 
  0.265757565460121     
 delta_qm =   0.501553E-04 delta_en =   0.434688E-02 tol =   0.100000E-04
 Iteration #         13
  pAp =   7.342095199855693E-006  rzold =   2.839147463680106E-006  alpha = 
  0.386694449799004     
 delta_qm =   0.327265E-04 delta_en =   0.185073E-02 tol =   0.100000E-04
 Iteration #         14
  pAp =   3.787401013403959E-006  rzold =   1.520291379032972E-006  alpha = 
  0.401407554587571     
 delta_qm =   0.232769E-04 delta_en =   0.936257E-03 tol =   0.100000E-04
 Iteration #         15
  pAp =   1.423394131187210E-006  rzold =   6.323765726824628E-007  alpha = 
  0.444273696811590     
 delta_qm =   0.129257E-04 delta_en =   0.288703E-03 tol =   0.100000E-04
 Iteration #         16
  pAp =   6.404247139538623E-007  rzold =   2.769638279303977E-007  alpha = 
  0.432468987994662     
 delta_qm =   0.782142E-05 delta_en =   0.105710E-03 tol =   0.100000E-04
 Iteration #         17
  pAp =   1.581295329513091E-007  rzold =   7.828058407117360E-008  alpha = 
  0.495040885849436     
 delta_qm =   0.382821E-05 delta_en =   0.253242E-04 tol =   0.100000E-04
 Iteration #         18
  pAp =   3.922468135622844E-008  rzold =   1.858428668279981E-008  alpha = 
  0.473790634881699     
 delta_qm =   0.228298E-05 delta_en =   0.900634E-05 tol =   0.100000E-04
 Charges are converged, EXIT

%%%% DENSITY %%%%%%%%%%%%%%%%%%%%%%%%%%%%%%%%%%%%%%%%%%%%%%%%%%%%%%%%%%%%%%%%%%%
 density label              = velectrostatic                                                                  
 integral of density        =     0.8250190654E-13

%%%% CHARGES %%%%%%%%%%%%%%%%%%%%%%%%%%%%%%%%%%%%%%%%%%%%%%%%%%%%%%%%%%%%%%%%%%%
 total number of charges    =         34
 total charge               =     -1.0000000

%%%% DENSITY %%%%%%%%%%%%%%%%%%%%%%%%%%%%%%%%%%%%%%%%%%%%%%%%%%%%%%%%%%%%%%%%%%%
 density label              = vsoftcavity                                                                     
 integral of density        =      34.52316535    

%%%% ELECTRONS %%%%%%%%%%%%%%%%%%%%%%%%%%%%%%%%%%%%%%%%%%%%%%%%%%%%%%%%%%%%%%%%%
 number of electrons        =         24
 total electronic charge    =     24.0000000

%%%% BOUNDARY %%%%%%%%%%%%%%%%%%%%%%%%%%%%%%%%%%%%%%%%%%%%%%%%%%%%%%%%%%%%%%%%%%
 boundary label             = solvent              
 boundary mode              = electronic           
 boundary is built as a function of a smooth density
 function type              =  1 
 using the optimal SCCS function with parameters 
 rhomax                     =      0.0050000 
 rhomin                     =      0.0001000 
 volume of the QM region    =    591.6698100 
 surface of the QM region   =    368.0486562 

%%%% DIELECTRIC %%%%%%%%%%%%%%%%%%%%%%%%%%%%%%%%%%%%%%%%%%%%%%%%%%%%%%%%%%%%%%%%%
 dielectric build on homogeneous background
 environment bulk permitt.  =    100.0000000 
 dielectric flags
 need gradient              =  F 
 need factor depend. sqrt   =  T 
 total dielectric charge    =      0.9826598

%%%% DENSITY %%%%%%%%%%%%%%%%%%%%%%%%%%%%%%%%%%%%%%%%%%%%%%%%%%%%%%%%%%%%%%%%%%%
 density label              = vreference                                                                      
 integral of density        =     0.4802742566E-14

%%%% COMPUTE ELECTROSTATIC POTENTIAL %%%%%%%%%%%%%%%%%%%%%%%%%%%%%%%%%%%%%%%%%%%
 Warning: bad guess with residual norm =   0.163681E+04, reset to no guess
 Iteration #          1
  pAp =    96.0662062244693       rzold =    93.3940255942926       alpha = 
  0.972183968377674     
 delta_qm =   0.299840E-01 delta_en =   0.155354E+04 tol =   0.100000E-04
 Iteration #          2
  pAp =    262.168195962250       rzold =    24.3252710584030       alpha = 
  9.278498091319068E-002
 delta_qm =   0.569158E-02 delta_en =   0.559769E+02 tol =   0.100000E-04
 Iteration #          3
  pAp =    2.16037854449094       rzold =   0.355309726720416       alpha = 
  0.164466420769856     
 delta_qm =   0.250021E-02 delta_en =   0.108018E+02 tol =   0.100000E-04
 Iteration #          4
  pAp =   0.151589001319659       rzold =   2.599187762515633E-002  alpha = 
  0.171462819854237     
 delta_qm =   0.197897E-02 delta_en =   0.676741E+01 tol =   0.100000E-04
 Iteration #          5
  pAp =   2.903396850820681E-002  rzold =   6.919314747910334E-003  alpha = 
  0.238317911860878     
 delta_qm =   0.138014E-02 delta_en =   0.329145E+01 tol =   0.100000E-04
 Iteration #          6
  pAp =   9.114459417550720E-003  rzold =   2.931220421163405E-003  alpha = 
  0.321601127053029     
 delta_qm =   0.810543E-03 delta_en =   0.113526E+01 tol =   0.100000E-04
 Iteration #          7
  pAp =   2.604088872012054E-003  rzold =   9.473163470134124E-004  alpha = 
  0.363780344516993     
 delta_qm =   0.580964E-03 delta_en =   0.583233E+00 tol =   0.100000E-04
 Iteration #          8
  pAp =   1.180219748409464E-003  rzold =   4.694899743757711E-004  alpha = 
  0.397798778582111     
 delta_qm =   0.339360E-03 delta_en =   0.199006E+00 tol =   0.100000E-04
 Iteration #          9
  pAp =   2.141265688957931E-003  rzold =   5.186868492549582E-004  alpha = 
  0.242233764791413     
 delta_qm =   0.270776E-03 delta_en =   0.126697E+00 tol =   0.100000E-04
 Iteration #         10
  pAp =   8.759318457450324E-004  rzold =   2.936738061762515E-004  alpha = 
  0.335270155552416     
 delta_qm =   0.113119E-03 delta_en =   0.221112E-01 tol =   0.100000E-04
 Iteration #         11
  pAp =   1.461860626860134E-004  rzold =   4.880620837775919E-005  alpha = 
  0.333863622023858     
 delta_qm =   0.719566E-04 delta_en =   0.894715E-02 tol =   0.100000E-04
 Iteration #         12
  pAp =   4.814963050900282E-005  rzold =   1.277114381445838E-005  alpha = 
  0.265238667035472     
 delta_qm =   0.508177E-04 delta_en =   0.446245E-02 tol =   0.100000E-04
 Iteration #         13
  pAp =   7.492025192288396E-006  rzold =   2.891614137613114E-006  alpha = 
  0.385958944797660     
 delta_qm =   0.332467E-04 delta_en =   0.191004E-02 tol =   0.100000E-04
 Iteration #         14
  pAp =   3.852002271092812E-006  rzold =   1.552251046394032E-006  alpha = 
  0.402972515889421     
 delta_qm =   0.236343E-04 delta_en =   0.965230E-03 tol =   0.100000E-04
 Iteration #         15
  pAp =   1.456954483868041E-006  rzold =   6.477049872685992E-007  alpha = 
  0.444560893590182     
 delta_qm =   0.131156E-04 delta_en =   0.297248E-03 tol =   0.100000E-04
 Iteration #         16
  pAp =   6.563681010493569E-007  rzold =   2.839528319714886E-007  alpha = 
  0.432612175268000     
 delta_qm =   0.792068E-05 delta_en =   0.108410E-03 tol =   0.100000E-04
 Iteration #         17
  pAp =   1.651512485591710E-007  rzold =   8.026961518806639E-008  alpha = 
  0.486036986631119     
 delta_qm =   0.393367E-05 delta_en =   0.267386E-04 tol =   0.100000E-04
 Iteration #         18
  pAp =   6.221634085152402E-008  rzold =   2.190223717338661E-008  alpha = 
  0.352033515208732     
 delta_qm =   0.258578E-05 delta_en =   0.115538E-04 tol =   0.100000E-04
 Iteration #         19
  pAp =   5.778606405104888E-008  rzold =   1.288422374367029E-008  alpha = 
  0.222964203484913     
 delta_qm =   0.197759E-05 delta_en =   0.675796E-05 tol =   0.100000E-04
 Charges are converged, EXIT

%%%% DENSITY %%%%%%%%%%%%%%%%%%%%%%%%%%%%%%%%%%%%%%%%%%%%%%%%%%%%%%%%%%%%%%%%%%%
 density label              = velectrostatic                                                                  
 integral of density        =     0.7605438912E-12

%%%% CHARGES %%%%%%%%%%%%%%%%%%%%%%%%%%%%%%%%%%%%%%%%%%%%%%%%%%%%%%%%%%%%%%%%%%%
 total number of charges    =         34
 total charge               =     -1.0000000

%%%% DENSITY %%%%%%%%%%%%%%%%%%%%%%%%%%%%%%%%%%%%%%%%%%%%%%%%%%%%%%%%%%%%%%%%%%%
 density label              = vsoftcavity                                                                     
 integral of density        =      34.87675028    

%%%% ELECTRONS %%%%%%%%%%%%%%%%%%%%%%%%%%%%%%%%%%%%%%%%%%%%%%%%%%%%%%%%%%%%%%%%%
 number of electrons        =         24
 total electronic charge    =     24.0000000

%%%% BOUNDARY %%%%%%%%%%%%%%%%%%%%%%%%%%%%%%%%%%%%%%%%%%%%%%%%%%%%%%%%%%%%%%%%%%
 boundary label             = solvent              
 boundary mode              = electronic           
 boundary is built as a function of a smooth density
 function type              =  1 
 using the optimal SCCS function with parameters 
 rhomax                     =      0.0050000 
 rhomin                     =      0.0001000 
 volume of the QM region    =    591.6698100 
 surface of the QM region   =    368.0486562 

%%%% DIELECTRIC %%%%%%%%%%%%%%%%%%%%%%%%%%%%%%%%%%%%%%%%%%%%%%%%%%%%%%%%%%%%%%%%%
 dielectric build on homogeneous background
 environment bulk permitt.  =    100.0000000 
 dielectric flags
 need gradient              =  F 
 need factor depend. sqrt   =  T 
 total dielectric charge    =      0.9828179

%%%% DENSITY %%%%%%%%%%%%%%%%%%%%%%%%%%%%%%%%%%%%%%%%%%%%%%%%%%%%%%%%%%%%%%%%%%%
 density label              = vreference                                                                      
 integral of density        =     0.4802742566E-14

%%%% DENSITY %%%%%%%%%%%%%%%%%%%%%%%%%%%%%%%%%%%%%%%%%%%%%%%%%%%%%%%%%%%%%%%%%%%
 density label              = velectrostatic                                                                  
 integral of density        =     0.7605438912E-12

%%%% CHARGES %%%%%%%%%%%%%%%%%%%%%%%%%%%%%%%%%%%%%%%%%%%%%%%%%%%%%%%%%%%%%%%%%%%
 total number of charges    =         34
 total charge               =     -1.0000000

%%%% DENSITY %%%%%%%%%%%%%%%%%%%%%%%%%%%%%%%%%%%%%%%%%%%%%%%%%%%%%%%%%%%%%%%%%%%
 density label              = vsoftcavity                                                                     
 integral of density        =      34.87675028    
