
     Program PWSCF v.7.0 starts on 22Apr2022 at 20:14:49 

     This program is part of the open-source Quantum ESPRESSO suite
     for quantum simulation of materials; please cite
         "P. Giannozzi et al., J. Phys.:Condens. Matter 21 395502 (2009);
         "P. Giannozzi et al., J. Phys.:Condens. Matter 29 465901 (2017);
         "P. Giannozzi et al., J. Chem. Phys. 152 154105 (2020);
          URL http://www.quantum-espresso.org", 
     in publications or presentations arising from this work. More details at
     http://www.quantum-espresso.org/quote

     Parallel version (MPI), running on     1 processors

     MPI processes distributed on     1 nodes
     22883 MiB available memory on the printing compute node when the environment starts
 
     Reading input from charged.in

     Current dimensions of program PWSCF are:
     Max number of different atomic species (ntypx) = 10
     Max number of k-points (npk) =  40000
     Max angular momentum in pseudopotentials (lmaxx) =  4
 
     Reading input from environ.in:
     * using electronic solvent mode
     * setting boundary derivatives method to SCCS default
     
     file C.pbe-rrkjus.UPF: wavefunction(s)  2S 2P renormalized
     file H.pbe-rrkjus.UPF: wavefunction(s)  1S renormalized
     file N.pbe-rrkjus.UPF: wavefunction(s)  2S renormalized
     file O.pbe-rrkjus.UPF: wavefunction(s)  2S renormalized

     gamma-point specific algorithms are used

     Subspace diagonalization in iterative solution of the eigenvalue problem:
     a serial algorithm will be used

 
     G-vector sticks info
     --------------------
     sticks:   dense  smooth     PW     G-vecs:    dense   smooth      PW
     Sum        9549    3809    949               701475   177509   22119
 
     Using Slab Decomposition
 


     bravais-lattice index     =            1
     lattice parameter (alat)  =      20.0000  a.u.
     unit-cell volume          =    8000.0000 (a.u.)^3
     number of atoms/cell      =           10
     number of atomic types    =            4
     number of electrons       =        24.00
     number of Kohn-Sham states=           12
     kinetic-energy cutoff     =      30.0000  Ry
     charge density cutoff     =     300.0000  Ry
     scf convergence threshold =      5.0E-06
     mixing beta               =       0.7000
     number of iterations used =            8  plain     mixing
     Exchange-correlation= SLA  PW   PBE  PBE
                           (   1   4   3   4   0   0   0)

     ================================================================================
 
                                  Environ Setup Summary

     ================================================================================
 
     Please cite

          O. Andreussi, I. Dabo and N. Marzari, J. Chem. Phys. 136, 064102 (2012)

     in publications or presentations arising from this work.

     ================================================================================
 
     Parameters
     ==========

     compensation onset threshold      =               0.1000E+03
     static permittivity               =                   100.00

     Solvent Boundary
     ================

     solvent mode                      =               electronic
     derivatives method                =                    chain
     numerical core for derivatives    =                      fft
     switching function adopted        =                     SCCS
     density limit for vacuum region   =               0.5000E-02
     density limit for bulk solvent    =               0.1000E-03

     Electrostatic Setup
     ===================

     electrostatic problem to solve    =              generalized
     numerical solver adopted          =              fixed-point
     type of auxiliary density adopted =                     full
     numerical core for poisson        =                      fft

     ================================================================================
 

     celldm(1)=  20.000000  celldm(2)=   0.000000  celldm(3)=   0.000000
     celldm(4)=   0.000000  celldm(5)=   0.000000  celldm(6)=   0.000000

     crystal axes: (cart. coord. in units of alat)
               a(1) = (   1.000000   0.000000   0.000000 )  
               a(2) = (   0.000000   1.000000   0.000000 )  
               a(3) = (   0.000000   0.000000   1.000000 )  

     reciprocal axes: (cart. coord. in units 2 pi/alat)
               b(1) = (  1.000000  0.000000  0.000000 )  
               b(2) = (  0.000000  1.000000  0.000000 )  
               b(3) = (  0.000000  0.000000  1.000000 )  


     PseudoPot. # 1 for C  read from file:
     MD5 check sum: c9ac5a99bc85b198593446162950cd17
     Pseudo is Ultrasoft, Zval =  4.0
     Generated by new atomic code, or converted to UPF format
     Using radial grid of  627 points,  4 beta functions with: 
                l(1) =   0
                l(2) =   0
                l(3) =   1
                l(4) =   1
     Q(r) pseudized with 0 coefficients 


     PseudoPot. # 2 for H  read from file:
     MD5 check sum: 2d52a7f45632fd764c17cc6affed14c8
     Pseudo is Ultrasoft, Zval =  1.0
     Generated by new atomic code, or converted to UPF format
     Using radial grid of 1061 points,  2 beta functions with: 
                l(1) =   0
                l(2) =   0
     Q(r) pseudized with 0 coefficients 


     PseudoPot. # 3 for N  read from file:
     MD5 check sum: 28c76d763763edb36c62a6ca2be9aebd
     Pseudo is Ultrasoft, Zval =  5.0
     Generated by new atomic code, or converted to UPF format
     Using radial grid of 1257 points,  4 beta functions with: 
                l(1) =   0
                l(2) =   0
                l(3) =   1
                l(4) =   1
     Q(r) pseudized with 0 coefficients 


     PseudoPot. # 4 for O  read from file:
     MD5 check sum: fadcf19ee70a498d3030e2e79cf929a4
     Pseudo is Ultrasoft, Zval =  6.0
     Generated by new atomic code, or converted to UPF format
     Using radial grid of 1269 points,  4 beta functions with: 
                l(1) =   0
                l(2) =   0
                l(3) =   1
                l(4) =   1
     Q(r) pseudized with 0 coefficients 


     atomic species   valence    mass     pseudopotential
        C              4.00    12.00000     C ( 1.00)
        H              1.00     1.00000     H ( 1.00)
        N              5.00    14.00000     N ( 1.00)
        O              6.00    16.00000     O ( 1.00)

     No symmetry found



   Cartesian axes

     site n.     atom                  positions (alat units)
         1           C   tau(   1) = (   0.0000000   0.0000000   0.0000000  )
         2           C   tau(   2) = (   0.0000000   0.0000000   0.1455089  )
         3           N   tau(   3) = (   0.1170969   0.0000000  -0.0545024  )
         4           H   tau(   4) = (   0.0476617  -0.0825466   0.1792090  )
         5           H   tau(   5) = (  -0.0953183  -0.0000030   0.1792090  )
         6           H   tau(   6) = (   0.0476566   0.0825496   0.1792090  )
         7           O   tau(   7) = (  -0.0984002  -0.0000019  -0.0641310  )
         8           H   tau(   8) = (   0.1263131  -0.0000015  -0.1475548  )
         9           H   tau(   9) = (   0.1944645   0.0000134  -0.0025716  )
        10           H   tau(  10) = (  -0.0770366  -0.0000045  -0.1522861  )

     number of k points=     1
                       cart. coord. in units 2pi/alat
        k(    1) = (   0.0000000   0.0000000   0.0000000), wk =   2.0000000

     Dense  grid:   350738 G-vectors     FFT dimensions: ( 120, 120, 120)

     Smooth grid:    88755 G-vectors     FFT dimensions: (  72,  72,  72)

     Estimated max dynamical RAM per process >     624.11 MB

     Initial potential from superposition of free atoms

     starting charge      24.4227, renormalised to      24.0000

     negative rho (up, down):  4.438E-04 0.000E+00
     Starting wfcs are   22 randomized atomic wfcs

     total cpu time spent up to now is        3.4 secs

     Self-consistent Calculation

     iteration #  1     ecut=    30.00 Ry     beta= 0.70
     Davidson diagonalization with overlap
     ethr =  1.00E-02,  avg # of iterations =  2.0

     negative rho (up, down):  1.234E-04 0.000E+00

     add environment contribution to local potential
     Polarization accuracy = 6.8E-06, # of iterations =  16

     total cpu time spent up to now is        9.4 secs

     total energy              =     -80.29562589 Ry
     estimated scf accuracy    <       3.64924908 Ry
     electrostatic embedding   =       0.00000000 Ry
     correction to one-el term =       0.00000000 Ry

     iteration #  2     ecut=    30.00 Ry     beta= 0.70
     Davidson diagonalization with overlap
     ethr =  1.00E-02,  avg # of iterations =  4.0

     negative rho (up, down):  4.943E-04 0.000E+00

     add environment contribution to local potential
     Polarization accuracy = 6.9E-06, # of iterations =  16

     total cpu time spent up to now is       14.7 secs

     total energy              =     -81.16934417 Ry
     estimated scf accuracy    <       1.04461616 Ry
     electrostatic embedding   =      -0.18321756 Ry
     correction to one-el term =      -4.97427430 Ry

     iteration #  3     ecut=    30.00 Ry     beta= 0.70
     Davidson diagonalization with overlap
     ethr =  4.35E-03,  avg # of iterations =  4.0

     negative rho (up, down):  2.229E-04 0.000E+00

     add environment contribution to local potential
     Polarization accuracy = 7.4E-06, # of iterations =  16

     total cpu time spent up to now is       20.3 secs

     total energy              =     -81.34809170 Ry
     estimated scf accuracy    <       0.11387894 Ry
     electrostatic embedding   =      -0.14914764 Ry
     correction to one-el term =      -4.25503112 Ry

     iteration #  4     ecut=    30.00 Ry     beta= 0.70
     Davidson diagonalization with overlap
     ethr =  4.74E-04,  avg # of iterations =  5.0

     negative rho (up, down):  1.277E-04 0.000E+00

     add environment contribution to local potential
     Polarization accuracy = 5.8E-06, # of iterations =  17

     total cpu time spent up to now is       25.4 secs

     total energy              =     -81.37983461 Ry
     estimated scf accuracy    <       0.01962734 Ry
     electrostatic embedding   =      -0.12676552 Ry
     correction to one-el term =      -4.01014063 Ry

     iteration #  5     ecut=    30.00 Ry     beta= 0.70
     Davidson diagonalization with overlap
     ethr =  8.18E-05,  avg # of iterations =  4.0

     negative rho (up, down):  7.687E-05 0.000E+00

     add environment contribution to local potential
     Polarization accuracy = 7.5E-06, # of iterations =  12

     total cpu time spent up to now is       30.0 secs

     total energy              =     -81.38447698 Ry
     estimated scf accuracy    <       0.00175369 Ry
     electrostatic embedding   =      -0.12100605 Ry
     correction to one-el term =      -3.78727744 Ry

     iteration #  6     ecut=    30.00 Ry     beta= 0.70
     Davidson diagonalization with overlap
     ethr =  7.31E-06,  avg # of iterations =  2.0

     negative rho (up, down):  1.015E-04 0.000E+00

     add environment contribution to local potential
     Polarization accuracy = 7.6E-06, # of iterations =  13

     total cpu time spent up to now is       34.3 secs

     total energy              =     -81.38495056 Ry
     estimated scf accuracy    <       0.00024231 Ry
     electrostatic embedding   =      -0.12179746 Ry
     correction to one-el term =      -3.76488437 Ry

     iteration #  7     ecut=    30.00 Ry     beta= 0.70
     Davidson diagonalization with overlap
     ethr =  1.01E-06,  avg # of iterations =  5.0

     negative rho (up, down):  3.234E-04 0.000E+00

     add environment contribution to local potential
     Polarization accuracy = 6.8E-06, # of iterations =  14

     total cpu time spent up to now is       38.8 secs

     total energy              =     -81.38520061 Ry
     estimated scf accuracy    <       0.00004765 Ry
     electrostatic embedding   =      -0.12335451 Ry
     correction to one-el term =      -3.75995151 Ry

     iteration #  8     ecut=    30.00 Ry     beta= 0.70
     Davidson diagonalization with overlap
     ethr =  1.99E-07,  avg # of iterations =  5.0

     negative rho (up, down):  3.864E-04 0.000E+00

     add environment contribution to local potential
     Polarization accuracy = 6.2E-06, # of iterations =  12

     total cpu time spent up to now is       44.0 secs

     total energy              =     -81.38535214 Ry
     estimated scf accuracy    <       0.00001335 Ry
     electrostatic embedding   =      -0.12513308 Ry
     correction to one-el term =      -3.76025472 Ry

     iteration #  9     ecut=    30.00 Ry     beta= 0.70
     Davidson diagonalization with overlap
     ethr =  5.56E-08,  avg # of iterations =  3.0

     negative rho (up, down):  3.026E-04 0.000E+00

     add environment contribution to local potential
     Polarization accuracy = 5.7E-06, # of iterations =  15

     total cpu time spent up to now is       49.5 secs

     total energy              =     -81.38535486 Ry
     estimated scf accuracy    <       0.00000677 Ry
     electrostatic embedding   =      -0.12608024 Ry
     correction to one-el term =      -3.76480578 Ry

     iteration # 10     ecut=    30.00 Ry     beta= 0.70
     Davidson diagonalization with overlap
     ethr =  2.82E-08,  avg # of iterations =  5.0

     negative rho (up, down):  2.791E-04 0.000E+00

     the potential shift due to the Gaussian-smeared nuclei is    -0.0668 ev

     total cpu time spent up to now is       51.1 secs

     End of self-consistent calculation

          k = 0.0000 0.0000 0.0000 ( 11060 PWs)   bands (ev):

   -28.9099 -23.0784 -18.6356 -15.9926 -14.6180 -13.3762 -11.6696 -10.9466
    -9.6303  -9.6229  -9.3102  -7.3696

     highest occupied level (ev):    -7.3696

!    total energy              =     -81.38544059 Ry
     estimated scf accuracy    <       0.00000278 Ry

     The total energy is the sum of the following terms:
     one-electron contribution =    -241.99443695 Ry
     hartree contribution      =     123.17312583 Ry
     xc contribution           =     -22.96525263 Ry
     ewald contribution        =      64.30784069 Ry
     electrostatic embedding   =      -0.12853324 Ry
     correction to one-el term =      -3.77818429 Ry

     convergence has been achieved in  10 iterations

     Forces acting on atoms (cartesian axes, Ry/au):

     atom    1 type  1   force =     0.21762523    0.00000250    0.09524821
     atom    2 type  1   force =    -0.03054039    0.00000171   -0.08033663
     atom    3 type  3   force =    -0.13926903   -0.00000243    0.04343217
     atom    4 type  2   force =     0.01847524   -0.02809338    0.00836550
     atom    5 type  2   force =    -0.03103671   -0.00000041    0.01110780
     atom    6 type  2   force =     0.01847366    0.02809517    0.00836683
     atom    7 type  4   force =    -0.09249530   -0.00000603    0.00058958
     atom    8 type  2   force =     0.00689064    0.00000059   -0.05303366
     atom    9 type  2   force =     0.04321046    0.00000245    0.03713362
     atom   10 type  2   force =    -0.01133381   -0.00000017   -0.07087342

     Total force =     0.329246     Total SCF correction =     0.002421

 
     init_run     :      3.15s CPU      3.29s WALL (       1 calls)
     electrons    :     44.42s CPU     47.73s WALL (       1 calls)
     forces       :      0.68s CPU      0.74s WALL (       1 calls)

     Called by init_run:
     wfcinit      :      0.10s CPU      0.10s WALL (       1 calls)
     potinit      :      0.87s CPU      0.92s WALL (       1 calls)
     hinit0       :      1.73s CPU      1.74s WALL (       1 calls)

     Called by electrons:
     c_bands      :      1.93s CPU      2.07s WALL (      10 calls)
     sum_band     :      3.89s CPU      4.59s WALL (      10 calls)
     v_of_rho     :      3.69s CPU      4.23s WALL (      11 calls)
     newd         :      2.37s CPU      3.12s WALL (      11 calls)
     mix_rho      :      0.52s CPU      0.56s WALL (      10 calls)

     Called by c_bands:
     init_us_2    :      0.06s CPU      0.06s WALL (      21 calls)
     init_us_2:cp :      0.06s CPU      0.06s WALL (      21 calls)
     regterg      :      1.82s CPU      1.96s WALL (      10 calls)

     Called by *egterg:
     rdiaghg      :      0.01s CPU      0.01s WALL (      49 calls)
     h_psi        :      1.71s CPU      1.80s WALL (      50 calls)
     s_psi        :      0.05s CPU      0.09s WALL (      50 calls)
     g_psi        :      0.01s CPU      0.01s WALL (      39 calls)

     Called by h_psi:
     h_psi:calbec :      0.04s CPU      0.04s WALL (      50 calls)
     vloc_psi     :      1.61s CPU      1.70s WALL (      50 calls)
     add_vuspsi   :      0.05s CPU      0.05s WALL (      50 calls)

     General routines
     calbec       :      0.06s CPU      0.06s WALL (      64 calls)
     fft          :      1.84s CPU      1.99s WALL (     121 calls)
     ffts         :      0.06s CPU      0.06s WALL (      21 calls)
     fftw         :      1.32s CPU      1.39s WALL (     476 calls)
     interpolate  :      0.24s CPU      0.25s WALL (      11 calls)
 
     Parallel routines
 
     Environ routines
 
     PWSCF        :     48.33s CPU     51.86s WALL

 
   This run was terminated on:  20:15:41  22Apr2022            

=------------------------------------------------------------------------------=
   JOB DONE.
=------------------------------------------------------------------------------=

%%%% CELL %%%%%%%%%%%%%%%%%%%%%%%%%%%%%%%%%%%%%%%%%%%%%%%%%%%%%%%%%%%%%%%%%%%%%%

 cell label                 = system         

 cell volume                =    8000.000000

%%%% IONS %%%%%%%%%%%%%%%%%%%%%%%%%%%%%%%%%%%%%%%%%%%%%%%%%%%%%%%%%%%%%%%%%%%%%%

 total charge               =    -25.0000000
 center of charge           =      0.1036944    -0.0000075     0.0650154
 dipole                     =      0.0000000     0.0000000     0.0000000
 quadrupole (pc)            =    -79.2736207    -5.4513517  -105.9050187
 quadrupole (gauss)         =    -82.3986207    -8.5763517  -109.0300187

   i | type | coordinates
 -----------------------------------------------------------------------
   1 |    1 |                      0.0000000     0.0000000     0.0000000
   2 |    1 |                      0.0000000     0.0000000     2.9101782
   3 |    3 |                      2.3419379     0.0000000    -1.0900479
   4 |    2 |                      0.9532347    -1.6509323     3.5841800
   5 |    2 |                     -1.9063663    -0.0000596     3.5841809
   6 |    2 |                      0.9531315     1.6509919     3.5841800
   7 |    4 |                     -1.9680045    -0.0000375    -1.2826193
   8 |    2 |                      2.5262613    -0.0000303    -2.9510950
   9 |    2 |                      3.8892907     0.0002681    -0.0514326
  10 |    2 |                     -1.5407317    -0.0000890    -3.0457220

%%%% SYSTEM %%%%%%%%%%%%%%%%%%%%%%%%%%%%%%%%%%%%%%%%%%%%%%%%%%%%%%%%%%%%%%%%%%%%

 system is built from all present ionic types

 system defined dimension   =              0
 system defined axis        =              3

 system center              =      0.1036944    -0.0000075     0.0650154
 system width               =      4.0527608

%%%% IONS %%%%%%%%%%%%%%%%%%%%%%%%%%%%%%%%%%%%%%%%%%%%%%%%%%%%%%%%%%%%%%%%%%%%%%

 total charge               =    -25.0000000
 center of charge           =      0.1036944    -0.0000075     0.0650154
 dipole                     =      0.0000000     0.0000000     0.0000000
 quadrupole (pc)            =    -79.2736207    -5.4513517  -105.9050187
 quadrupole (gauss)         =    -82.3986207    -8.5763517  -109.0300187

   i | type | coordinates
 -----------------------------------------------------------------------
   1 |    1 |                      0.0000000     0.0000000     0.0000000
   2 |    1 |                      0.0000000     0.0000000     2.9101782
   3 |    3 |                      2.3419379     0.0000000    -1.0900479
   4 |    2 |                      0.9532347    -1.6509323     3.5841800
   5 |    2 |                     -1.9063663    -0.0000596     3.5841809
   6 |    2 |                      0.9531315     1.6509919     3.5841800
   7 |    4 |                     -1.9680045    -0.0000375    -1.2826193
   8 |    2 |                      2.5262613    -0.0000303    -2.9510950
   9 |    2 |                      3.8892907     0.0002681    -0.0514326
  10 |    2 |                     -1.5407317    -0.0000890    -3.0457220

%%%% SYSTEM %%%%%%%%%%%%%%%%%%%%%%%%%%%%%%%%%%%%%%%%%%%%%%%%%%%%%%%%%%%%%%%%%%%%

 system is built from all present ionic types

 system defined dimension   =              0
 system defined axis        =              3

 system center              =      0.1036944    -0.0000075     0.0650154
 system width               =      4.0527608

%%%% CHARGES %%%%%%%%%%%%%%%%%%%%%%%%%%%%%%%%%%%%%%%%%%%%%%%%%%%%%%%%%%%%%%%%%%%

 total number of charges    =             10

 total charge               =    -25.0000000

%%%% CHARGES %%%%%%%%%%%%%%%%%%%%%%%%%%%%%%%%%%%%%%%%%%%%%%%%%%%%%%%%%%%%%%%%%%%

 total number of charges    =             10

 total charge               =    -25.0000000

%%%% CELL %%%%%%%%%%%%%%%%%%%%%%%%%%%%%%%%%%%%%%%%%%%%%%%%%%%%%%%%%%%%%%%%%%%%%%

 cell label                 = system         

 cell volume                =    8000.000000

%%%% ELECTRONS %%%%%%%%%%%%%%%%%%%%%%%%%%%%%%%%%%%%%%%%%%%%%%%%%%%%%%%%%%%%%%%%%

 number of electrons        =             24

 total electronic charge    =     24.0000000

%%%% ELECTRONS %%%%%%%%%%%%%%%%%%%%%%%%%%%%%%%%%%%%%%%%%%%%%%%%%%%%%%%%%%%%%%%%%

 number of electrons        =             24

 total electronic charge    =     24.0000000

%%%% CHARGES %%%%%%%%%%%%%%%%%%%%%%%%%%%%%%%%%%%%%%%%%%%%%%%%%%%%%%%%%%%%%%%%%%%

 total number of charges    =             34

 total charge               =     -1.0000000

%%%% CHARGES %%%%%%%%%%%%%%%%%%%%%%%%%%%%%%%%%%%%%%%%%%%%%%%%%%%%%%%%%%%%%%%%%%%

 total number of charges    =             34

 total charge               =     -1.0000000

%%%% BOUNDARY %%%%%%%%%%%%%%%%%%%%%%%%%%%%%%%%%%%%%%%%%%%%%%%%%%%%%%%%%%%%%%%%%%

 boundary label             = solvent             
 boundary mode              = electronic          

 using the optimal SCCS function:
 rhomax                     =      0.0050000
 rhomin                     =      0.0001000

 volume of the QM region    =   1611.6286938

 surface of the QM region   =    641.7174084

%%%% DENSITY %%%%%%%%%%%%%%%%%%%%%%%%%%%%%%%%%%%%%%%%%%%%%%%%%%%%%%%%%%%%%%%%%%%

 density label              = dvtot                                             

 integral of density        =    0.000000000    

%%%% DENSITY %%%%%%%%%%%%%%%%%%%%%%%%%%%%%%%%%%%%%%%%%%%%%%%%%%%%%%%%%%%%%%%%%%%

 density label              = vreference                                        

 integral of density        =    0.000000000    

%%%% DENSITY %%%%%%%%%%%%%%%%%%%%%%%%%%%%%%%%%%%%%%%%%%%%%%%%%%%%%%%%%%%%%%%%%%%

 density label              = velectrostatic                                    

 integral of density        =    0.000000000    

%%%% CHARGES %%%%%%%%%%%%%%%%%%%%%%%%%%%%%%%%%%%%%%%%%%%%%%%%%%%%%%%%%%%%%%%%%%%

 total number of charges    =             34

 total charge               =     -1.0000000

%%%% DENSITY %%%%%%%%%%%%%%%%%%%%%%%%%%%%%%%%%%%%%%%%%%%%%%%%%%%%%%%%%%%%%%%%%%%

 density label              = vsoftcavity                                       

 integral of density        =    0.000000000    

%%%% ELECTRONS %%%%%%%%%%%%%%%%%%%%%%%%%%%%%%%%%%%%%%%%%%%%%%%%%%%%%%%%%%%%%%%%%

 number of electrons        =             24

 total electronic charge    =     24.0000000

%%%% ELECTRONS %%%%%%%%%%%%%%%%%%%%%%%%%%%%%%%%%%%%%%%%%%%%%%%%%%%%%%%%%%%%%%%%%

 number of electrons        =             24

 total electronic charge    =     24.0000000

%%%% CHARGES %%%%%%%%%%%%%%%%%%%%%%%%%%%%%%%%%%%%%%%%%%%%%%%%%%%%%%%%%%%%%%%%%%%

 total number of charges    =             34

 total charge               =     -1.0000000

%%%% CHARGES %%%%%%%%%%%%%%%%%%%%%%%%%%%%%%%%%%%%%%%%%%%%%%%%%%%%%%%%%%%%%%%%%%%

 total number of charges    =             34

 total charge               =     -1.0000000

%%%% BOUNDARY %%%%%%%%%%%%%%%%%%%%%%%%%%%%%%%%%%%%%%%%%%%%%%%%%%%%%%%%%%%%%%%%%%

 boundary label             = solvent             
 boundary mode              = electronic          

 using the optimal SCCS function:
 rhomax                     =      0.0050000
 rhomin                     =      0.0001000

 volume of the QM region    =    687.4669158

 surface of the QM region   =    391.9317725

%%%% DENSITY %%%%%%%%%%%%%%%%%%%%%%%%%%%%%%%%%%%%%%%%%%%%%%%%%%%%%%%%%%%%%%%%%%%

 density label              = vreference                                        

 integral of density        =  -0.6883053798E-12

%%%% COMPUTE ELECTROSTATIC POTENTIAL %%%%%%%%%%%%%%%%%%%%%%%%%%%%%%%%%%%%%%%%%%%

 Starting from polarization: rhoiter =      0.000000

   i |    delta_qm    |    delta_en    |       tol
 ------------------------------------------------------
   1 |   0.364087E-02 |   0.229063E+02 |   0.100000E-04
   2 |   0.209614E-02 |   0.759247E+01 |   0.100000E-04
   3 |   0.108875E-02 |   0.204835E+01 |   0.100000E-04
   4 |   0.580676E-03 |   0.582655E+00 |   0.100000E-04
   5 |   0.367974E-03 |   0.233980E+00 |   0.100000E-04
   6 |   0.161591E-03 |   0.451208E-01 |   0.100000E-04
   7 |   0.104690E-03 |   0.189390E-01 |   0.100000E-04
   8 |   0.635224E-04 |   0.697265E-02 |   0.100000E-04
   9 |   0.342856E-04 |   0.203126E-02 |   0.100000E-04
  10 |   0.233870E-04 |   0.945129E-03 |   0.100000E-04
  11 |   0.160243E-04 |   0.443712E-03 |   0.100000E-04
  12 |   0.992583E-05 |   0.170246E-03 |   0.100000E-04
  13 |   0.660317E-05 |   0.753439E-04 |   0.100000E-04
  14 |   0.468404E-05 |   0.379127E-04 |   0.100000E-04
  15 |   0.304841E-05 |   0.160580E-04 |   0.100000E-04
  16 |   0.197777E-05 |   0.675917E-05 |   0.100000E-04

 Charges are converged, EXIT

%%%% DENSITY %%%%%%%%%%%%%%%%%%%%%%%%%%%%%%%%%%%%%%%%%%%%%%%%%%%%%%%%%%%%%%%%%%%

 density label              = velectrostatic                                    

 integral of density        =  -0.1263187086E-12

%%%% CHARGES %%%%%%%%%%%%%%%%%%%%%%%%%%%%%%%%%%%%%%%%%%%%%%%%%%%%%%%%%%%%%%%%%%%

 total number of charges    =             34

 total charge               =     -1.0000000

%%%% DENSITY %%%%%%%%%%%%%%%%%%%%%%%%%%%%%%%%%%%%%%%%%%%%%%%%%%%%%%%%%%%%%%%%%%%

 density label              = vsoftcavity                                       

 integral of density        =    71.81002241    

%%%% DENSITY %%%%%%%%%%%%%%%%%%%%%%%%%%%%%%%%%%%%%%%%%%%%%%%%%%%%%%%%%%%%%%%%%%%

 density label              = dvtot                                             

 integral of density        =    71.81002241    

%%%% ELECTRONS %%%%%%%%%%%%%%%%%%%%%%%%%%%%%%%%%%%%%%%%%%%%%%%%%%%%%%%%%%%%%%%%%

 number of electrons        =             24

 total electronic charge    =     24.0000000

%%%% ELECTRONS %%%%%%%%%%%%%%%%%%%%%%%%%%%%%%%%%%%%%%%%%%%%%%%%%%%%%%%%%%%%%%%%%

 number of electrons        =             24

 total electronic charge    =     24.0000000

%%%% CHARGES %%%%%%%%%%%%%%%%%%%%%%%%%%%%%%%%%%%%%%%%%%%%%%%%%%%%%%%%%%%%%%%%%%%

 total number of charges    =             34

 total charge               =     -1.0000000

%%%% CHARGES %%%%%%%%%%%%%%%%%%%%%%%%%%%%%%%%%%%%%%%%%%%%%%%%%%%%%%%%%%%%%%%%%%%

 total number of charges    =             34

 total charge               =     -1.0000000

%%%% BOUNDARY %%%%%%%%%%%%%%%%%%%%%%%%%%%%%%%%%%%%%%%%%%%%%%%%%%%%%%%%%%%%%%%%%%

 boundary label             = solvent             
 boundary mode              = electronic          

 using the optimal SCCS function:
 rhomax                     =      0.0050000
 rhomin                     =      0.0001000

 volume of the QM region    =    635.9272383

 surface of the QM region   =    379.1592481

%%%% DENSITY %%%%%%%%%%%%%%%%%%%%%%%%%%%%%%%%%%%%%%%%%%%%%%%%%%%%%%%%%%%%%%%%%%%

 density label              = vreference                                        

 integral of density        =  -0.3196784401E-12

%%%% COMPUTE ELECTROSTATIC POTENTIAL %%%%%%%%%%%%%%%%%%%%%%%%%%%%%%%%%%%%%%%%%%%

 Starting from polarization: rhoiter =      1.774761

   i |    delta_qm    |    delta_en    |       tol
 ------------------------------------------------------
   1 |   0.840561E-03 |   0.122091E+01 |   0.100000E-04
   2 |   0.550463E-03 |   0.523600E+00 |   0.100000E-04
   3 |   0.348771E-03 |   0.210196E+00 |   0.100000E-04
   4 |   0.221619E-03 |   0.848708E-01 |   0.100000E-04
   5 |   0.147018E-03 |   0.373494E-01 |   0.100000E-04
   6 |   0.916095E-04 |   0.145019E-01 |   0.100000E-04
   7 |   0.584456E-04 |   0.590265E-02 |   0.100000E-04
   8 |   0.391815E-04 |   0.265281E-02 |   0.100000E-04
   9 |   0.260060E-04 |   0.116867E-02 |   0.100000E-04
  10 |   0.174044E-04 |   0.523435E-03 |   0.100000E-04
  11 |   0.121740E-04 |   0.256100E-03 |   0.100000E-04
  12 |   0.846476E-05 |   0.123815E-03 |   0.100000E-04
  13 |   0.577885E-05 |   0.577067E-04 |   0.100000E-04
  14 |   0.409819E-05 |   0.290220E-04 |   0.100000E-04
  15 |   0.292689E-05 |   0.148033E-04 |   0.100000E-04
  16 |   0.200192E-05 |   0.692528E-05 |   0.100000E-04

 Charges are converged, EXIT

%%%% DENSITY %%%%%%%%%%%%%%%%%%%%%%%%%%%%%%%%%%%%%%%%%%%%%%%%%%%%%%%%%%%%%%%%%%%

 density label              = velectrostatic                                    

 integral of density        =  -0.2915198946E-12

%%%% CHARGES %%%%%%%%%%%%%%%%%%%%%%%%%%%%%%%%%%%%%%%%%%%%%%%%%%%%%%%%%%%%%%%%%%%

 total number of charges    =             34

 total charge               =     -1.0000000

%%%% DENSITY %%%%%%%%%%%%%%%%%%%%%%%%%%%%%%%%%%%%%%%%%%%%%%%%%%%%%%%%%%%%%%%%%%%

 density label              = vsoftcavity                                       

 integral of density        =    48.73223547    

%%%% DENSITY %%%%%%%%%%%%%%%%%%%%%%%%%%%%%%%%%%%%%%%%%%%%%%%%%%%%%%%%%%%%%%%%%%%

 density label              = dvtot                                             

 integral of density        =    48.73223547    

%%%% ELECTRONS %%%%%%%%%%%%%%%%%%%%%%%%%%%%%%%%%%%%%%%%%%%%%%%%%%%%%%%%%%%%%%%%%

 number of electrons        =             24

 total electronic charge    =     24.0000000

%%%% ELECTRONS %%%%%%%%%%%%%%%%%%%%%%%%%%%%%%%%%%%%%%%%%%%%%%%%%%%%%%%%%%%%%%%%%

 number of electrons        =             24

 total electronic charge    =     24.0000000

%%%% CHARGES %%%%%%%%%%%%%%%%%%%%%%%%%%%%%%%%%%%%%%%%%%%%%%%%%%%%%%%%%%%%%%%%%%%

 total number of charges    =             34

 total charge               =     -1.0000000

%%%% CHARGES %%%%%%%%%%%%%%%%%%%%%%%%%%%%%%%%%%%%%%%%%%%%%%%%%%%%%%%%%%%%%%%%%%%

 total number of charges    =             34

 total charge               =     -1.0000000

%%%% BOUNDARY %%%%%%%%%%%%%%%%%%%%%%%%%%%%%%%%%%%%%%%%%%%%%%%%%%%%%%%%%%%%%%%%%%

 boundary label             = solvent             
 boundary mode              = electronic          

 using the optimal SCCS function:
 rhomax                     =      0.0050000
 rhomin                     =      0.0001000

 volume of the QM region    =    608.0781055

 surface of the QM region   =    371.9383200

%%%% DENSITY %%%%%%%%%%%%%%%%%%%%%%%%%%%%%%%%%%%%%%%%%%%%%%%%%%%%%%%%%%%%%%%%%%%

 density label              = vreference                                        

 integral of density        =   0.3943512183E-12

%%%% COMPUTE ELECTROSTATIC POTENTIAL %%%%%%%%%%%%%%%%%%%%%%%%%%%%%%%%%%%%%%%%%%%

 Starting from polarization: rhoiter =      1.534182

   i |    delta_qm    |    delta_en    |       tol
 ------------------------------------------------------
   1 |   0.523500E-03 |   0.473562E+00 |   0.100000E-04
   2 |   0.310249E-03 |   0.166327E+00 |   0.100000E-04
   3 |   0.223875E-03 |   0.866076E-01 |   0.100000E-04
   4 |   0.145690E-03 |   0.366776E-01 |   0.100000E-04
   5 |   0.967381E-04 |   0.161711E-01 |   0.100000E-04
   6 |   0.660609E-04 |   0.754107E-02 |   0.100000E-04
   7 |   0.455371E-04 |   0.358322E-02 |   0.100000E-04
   8 |   0.305451E-04 |   0.161223E-02 |   0.100000E-04
   9 |   0.212777E-04 |   0.782339E-03 |   0.100000E-04
  10 |   0.155604E-04 |   0.418393E-03 |   0.100000E-04
  11 |   0.110696E-04 |   0.211743E-03 |   0.100000E-04
  12 |   0.768322E-05 |   0.102007E-03 |   0.100000E-04
  13 |   0.560455E-05 |   0.542782E-04 |   0.100000E-04
  14 |   0.416410E-05 |   0.299630E-04 |   0.100000E-04
  15 |   0.292695E-05 |   0.148038E-04 |   0.100000E-04
  16 |   0.206369E-05 |   0.735921E-05 |   0.100000E-04

 Charges are converged, EXIT

%%%% DENSITY %%%%%%%%%%%%%%%%%%%%%%%%%%%%%%%%%%%%%%%%%%%%%%%%%%%%%%%%%%%%%%%%%%%

 density label              = velectrostatic                                    

 integral of density        =   0.2103995990E-12

%%%% CHARGES %%%%%%%%%%%%%%%%%%%%%%%%%%%%%%%%%%%%%%%%%%%%%%%%%%%%%%%%%%%%%%%%%%%

 total number of charges    =             34

 total charge               =     -1.0000000

%%%% DENSITY %%%%%%%%%%%%%%%%%%%%%%%%%%%%%%%%%%%%%%%%%%%%%%%%%%%%%%%%%%%%%%%%%%%

 density label              = vsoftcavity                                       

 integral of density        =    37.85744918    

%%%% DENSITY %%%%%%%%%%%%%%%%%%%%%%%%%%%%%%%%%%%%%%%%%%%%%%%%%%%%%%%%%%%%%%%%%%%

 density label              = dvtot                                             

 integral of density        =    37.85744918    

%%%% ELECTRONS %%%%%%%%%%%%%%%%%%%%%%%%%%%%%%%%%%%%%%%%%%%%%%%%%%%%%%%%%%%%%%%%%

 number of electrons        =             24

 total electronic charge    =     24.0000000

%%%% ELECTRONS %%%%%%%%%%%%%%%%%%%%%%%%%%%%%%%%%%%%%%%%%%%%%%%%%%%%%%%%%%%%%%%%%

 number of electrons        =             24

 total electronic charge    =     24.0000000

%%%% CHARGES %%%%%%%%%%%%%%%%%%%%%%%%%%%%%%%%%%%%%%%%%%%%%%%%%%%%%%%%%%%%%%%%%%%

 total number of charges    =             34

 total charge               =     -1.0000000

%%%% CHARGES %%%%%%%%%%%%%%%%%%%%%%%%%%%%%%%%%%%%%%%%%%%%%%%%%%%%%%%%%%%%%%%%%%%

 total number of charges    =             34

 total charge               =     -1.0000000

%%%% BOUNDARY %%%%%%%%%%%%%%%%%%%%%%%%%%%%%%%%%%%%%%%%%%%%%%%%%%%%%%%%%%%%%%%%%%

 boundary label             = solvent             
 boundary mode              = electronic          

 using the optimal SCCS function:
 rhomax                     =      0.0050000
 rhomin                     =      0.0001000

 volume of the QM region    =    589.4396859

 surface of the QM region   =    366.7836650

%%%% DENSITY %%%%%%%%%%%%%%%%%%%%%%%%%%%%%%%%%%%%%%%%%%%%%%%%%%%%%%%%%%%%%%%%%%%

 density label              = vreference                                        

 integral of density        =  -0.2115180459E-12

%%%% COMPUTE ELECTROSTATIC POTENTIAL %%%%%%%%%%%%%%%%%%%%%%%%%%%%%%%%%%%%%%%%%%%

 Starting from polarization: rhoiter =      1.381609

   i |    delta_qm    |    delta_en    |       tol
 ------------------------------------------------------
   1 |   0.396360E-03 |   0.271471E+00 |   0.100000E-04
   2 |   0.258958E-03 |   0.115878E+00 |   0.100000E-04
   3 |   0.206863E-03 |   0.739453E-01 |   0.100000E-04
   4 |   0.133959E-03 |   0.310089E-01 |   0.100000E-04
   5 |   0.945494E-04 |   0.154476E-01 |   0.100000E-04
   6 |   0.699969E-04 |   0.846646E-02 |   0.100000E-04
   7 |   0.471174E-04 |   0.383625E-02 |   0.100000E-04
   8 |   0.322886E-04 |   0.180153E-02 |   0.100000E-04
   9 |   0.242379E-04 |   0.101516E-02 |   0.100000E-04
  10 |   0.173794E-04 |   0.521931E-03 |   0.100000E-04
  11 |   0.122164E-04 |   0.257886E-03 |   0.100000E-04
  12 |   0.901234E-05 |   0.140352E-03 |   0.100000E-04
  13 |   0.656739E-05 |   0.745297E-04 |   0.100000E-04
  14 |   0.476566E-05 |   0.392455E-04 |   0.100000E-04
  15 |   0.351125E-05 |   0.213042E-04 |   0.100000E-04
  16 |   0.252158E-05 |   0.109872E-04 |   0.100000E-04
  17 |   0.183054E-05 |   0.579032E-05 |   0.100000E-04

 Charges are converged, EXIT

%%%% DENSITY %%%%%%%%%%%%%%%%%%%%%%%%%%%%%%%%%%%%%%%%%%%%%%%%%%%%%%%%%%%%%%%%%%%

 density label              = velectrostatic                                    

 integral of density        =   0.8219268887E-12

%%%% CHARGES %%%%%%%%%%%%%%%%%%%%%%%%%%%%%%%%%%%%%%%%%%%%%%%%%%%%%%%%%%%%%%%%%%%

 total number of charges    =             34

 total charge               =     -1.0000000

%%%% DENSITY %%%%%%%%%%%%%%%%%%%%%%%%%%%%%%%%%%%%%%%%%%%%%%%%%%%%%%%%%%%%%%%%%%%

 density label              = vsoftcavity                                       

 integral of density        =    33.72540161    

%%%% DENSITY %%%%%%%%%%%%%%%%%%%%%%%%%%%%%%%%%%%%%%%%%%%%%%%%%%%%%%%%%%%%%%%%%%%

 density label              = dvtot                                             

 integral of density        =    33.72540161    

%%%% ELECTRONS %%%%%%%%%%%%%%%%%%%%%%%%%%%%%%%%%%%%%%%%%%%%%%%%%%%%%%%%%%%%%%%%%

 number of electrons        =             24

 total electronic charge    =     24.0000000

%%%% ELECTRONS %%%%%%%%%%%%%%%%%%%%%%%%%%%%%%%%%%%%%%%%%%%%%%%%%%%%%%%%%%%%%%%%%

 number of electrons        =             24

 total electronic charge    =     24.0000000

%%%% CHARGES %%%%%%%%%%%%%%%%%%%%%%%%%%%%%%%%%%%%%%%%%%%%%%%%%%%%%%%%%%%%%%%%%%%

 total number of charges    =             34

 total charge               =     -1.0000000

%%%% CHARGES %%%%%%%%%%%%%%%%%%%%%%%%%%%%%%%%%%%%%%%%%%%%%%%%%%%%%%%%%%%%%%%%%%%

 total number of charges    =             34

 total charge               =     -1.0000000

%%%% BOUNDARY %%%%%%%%%%%%%%%%%%%%%%%%%%%%%%%%%%%%%%%%%%%%%%%%%%%%%%%%%%%%%%%%%%

 boundary label             = solvent             
 boundary mode              = electronic          

 using the optimal SCCS function:
 rhomax                     =      0.0050000
 rhomin                     =      0.0001000

 volume of the QM region    =    590.0494438

 surface of the QM region   =    367.1523980

%%%% DENSITY %%%%%%%%%%%%%%%%%%%%%%%%%%%%%%%%%%%%%%%%%%%%%%%%%%%%%%%%%%%%%%%%%%%

 density label              = vreference                                        

 integral of density        =  -0.2388213084E-12

%%%% COMPUTE ELECTROSTATIC POTENTIAL %%%%%%%%%%%%%%%%%%%%%%%%%%%%%%%%%%%%%%%%%%%

 Starting from polarization: rhoiter =      1.277688

   i |    delta_qm    |    delta_en    |       tol
 ------------------------------------------------------
   1 |   0.961155E-04 |   0.159636E-01 |   0.100000E-04
   2 |   0.653931E-04 |   0.738937E-02 |   0.100000E-04
   3 |   0.506683E-04 |   0.443625E-02 |   0.100000E-04
   4 |   0.330349E-04 |   0.188577E-02 |   0.100000E-04
   5 |   0.236274E-04 |   0.964659E-03 |   0.100000E-04
   6 |   0.167111E-04 |   0.482563E-03 |   0.100000E-04
   7 |   0.112232E-04 |   0.217658E-03 |   0.100000E-04
   8 |   0.774693E-05 |   0.103706E-03 |   0.100000E-04
   9 |   0.560796E-05 |   0.543442E-04 |   0.100000E-04
  10 |   0.402784E-05 |   0.280342E-04 |   0.100000E-04
  11 |   0.287490E-05 |   0.142820E-04 |   0.100000E-04
  12 |   0.208712E-05 |   0.752731E-05 |   0.100000E-04

 Charges are converged, EXIT

%%%% DENSITY %%%%%%%%%%%%%%%%%%%%%%%%%%%%%%%%%%%%%%%%%%%%%%%%%%%%%%%%%%%%%%%%%%%

 density label              = velectrostatic                                    

 integral of density        =   0.1759251181E-12

%%%% CHARGES %%%%%%%%%%%%%%%%%%%%%%%%%%%%%%%%%%%%%%%%%%%%%%%%%%%%%%%%%%%%%%%%%%%

 total number of charges    =             34

 total charge               =     -1.0000000

%%%% DENSITY %%%%%%%%%%%%%%%%%%%%%%%%%%%%%%%%%%%%%%%%%%%%%%%%%%%%%%%%%%%%%%%%%%%

 density label              = vsoftcavity                                       

 integral of density        =    34.09503933    

%%%% DENSITY %%%%%%%%%%%%%%%%%%%%%%%%%%%%%%%%%%%%%%%%%%%%%%%%%%%%%%%%%%%%%%%%%%%

 density label              = dvtot                                             

 integral of density        =    34.09503933    

%%%% ELECTRONS %%%%%%%%%%%%%%%%%%%%%%%%%%%%%%%%%%%%%%%%%%%%%%%%%%%%%%%%%%%%%%%%%

 number of electrons        =             24

 total electronic charge    =     24.0000000

%%%% ELECTRONS %%%%%%%%%%%%%%%%%%%%%%%%%%%%%%%%%%%%%%%%%%%%%%%%%%%%%%%%%%%%%%%%%

 number of electrons        =             24

 total electronic charge    =     24.0000000

%%%% CHARGES %%%%%%%%%%%%%%%%%%%%%%%%%%%%%%%%%%%%%%%%%%%%%%%%%%%%%%%%%%%%%%%%%%%

 total number of charges    =             34

 total charge               =     -1.0000000

%%%% CHARGES %%%%%%%%%%%%%%%%%%%%%%%%%%%%%%%%%%%%%%%%%%%%%%%%%%%%%%%%%%%%%%%%%%%

 total number of charges    =             34

 total charge               =     -1.0000000

%%%% BOUNDARY %%%%%%%%%%%%%%%%%%%%%%%%%%%%%%%%%%%%%%%%%%%%%%%%%%%%%%%%%%%%%%%%%%

 boundary label             = solvent             
 boundary mode              = electronic          

 using the optimal SCCS function:
 rhomax                     =      0.0050000
 rhomin                     =      0.0001000

 volume of the QM region    =    591.2226318

 surface of the QM region   =    367.7094248

%%%% DENSITY %%%%%%%%%%%%%%%%%%%%%%%%%%%%%%%%%%%%%%%%%%%%%%%%%%%%%%%%%%%%%%%%%%%

 density label              = vreference                                        

 integral of density        =  -0.1287200799E-11

%%%% COMPUTE ELECTROSTATIC POTENTIAL %%%%%%%%%%%%%%%%%%%%%%%%%%%%%%%%%%%%%%%%%%%

 Starting from polarization: rhoiter =      1.270409

   i |    delta_qm    |    delta_en    |       tol
 ------------------------------------------------------
   1 |   0.124814E-03 |   0.269195E-01 |   0.100000E-04
   2 |   0.887376E-04 |   0.136069E-01 |   0.100000E-04
   3 |   0.683239E-04 |   0.806656E-02 |   0.100000E-04
   4 |   0.450919E-04 |   0.351351E-02 |   0.100000E-04
   5 |   0.318795E-04 |   0.175617E-02 |   0.100000E-04
   6 |   0.228772E-04 |   0.904380E-03 |   0.100000E-04
   7 |   0.153744E-04 |   0.408450E-03 |   0.100000E-04
   8 |   0.104936E-04 |   0.190278E-03 |   0.100000E-04
   9 |   0.772836E-05 |   0.103209E-03 |   0.100000E-04
  10 |   0.556715E-05 |   0.535562E-04 |   0.100000E-04
  11 |   0.391950E-05 |   0.265464E-04 |   0.100000E-04
  12 |   0.285963E-05 |   0.141307E-04 |   0.100000E-04
  13 |   0.209715E-05 |   0.759984E-05 |   0.100000E-04

 Charges are converged, EXIT

%%%% DENSITY %%%%%%%%%%%%%%%%%%%%%%%%%%%%%%%%%%%%%%%%%%%%%%%%%%%%%%%%%%%%%%%%%%%

 density label              = velectrostatic                                    

 integral of density        =   0.5256700425E-13

%%%% CHARGES %%%%%%%%%%%%%%%%%%%%%%%%%%%%%%%%%%%%%%%%%%%%%%%%%%%%%%%%%%%%%%%%%%%

 total number of charges    =             34

 total charge               =     -1.0000000

%%%% DENSITY %%%%%%%%%%%%%%%%%%%%%%%%%%%%%%%%%%%%%%%%%%%%%%%%%%%%%%%%%%%%%%%%%%%

 density label              = vsoftcavity                                       

 integral of density        =    34.55161069    

%%%% DENSITY %%%%%%%%%%%%%%%%%%%%%%%%%%%%%%%%%%%%%%%%%%%%%%%%%%%%%%%%%%%%%%%%%%%

 density label              = dvtot                                             

 integral of density        =    34.55161069    

%%%% ELECTRONS %%%%%%%%%%%%%%%%%%%%%%%%%%%%%%%%%%%%%%%%%%%%%%%%%%%%%%%%%%%%%%%%%

 number of electrons        =             24

 total electronic charge    =     24.0000000

%%%% ELECTRONS %%%%%%%%%%%%%%%%%%%%%%%%%%%%%%%%%%%%%%%%%%%%%%%%%%%%%%%%%%%%%%%%%

 number of electrons        =             24

 total electronic charge    =     24.0000000

%%%% CHARGES %%%%%%%%%%%%%%%%%%%%%%%%%%%%%%%%%%%%%%%%%%%%%%%%%%%%%%%%%%%%%%%%%%%

 total number of charges    =             34

 total charge               =     -1.0000000

%%%% CHARGES %%%%%%%%%%%%%%%%%%%%%%%%%%%%%%%%%%%%%%%%%%%%%%%%%%%%%%%%%%%%%%%%%%%

 total number of charges    =             34

 total charge               =     -1.0000000

%%%% BOUNDARY %%%%%%%%%%%%%%%%%%%%%%%%%%%%%%%%%%%%%%%%%%%%%%%%%%%%%%%%%%%%%%%%%%

 boundary label             = solvent             
 boundary mode              = electronic          

 using the optimal SCCS function:
 rhomax                     =      0.0050000
 rhomin                     =      0.0001000

 volume of the QM region    =    591.6184035

 surface of the QM region   =    367.9943974

%%%% DENSITY %%%%%%%%%%%%%%%%%%%%%%%%%%%%%%%%%%%%%%%%%%%%%%%%%%%%%%%%%%%%%%%%%%%

 density label              = vreference                                        

 integral of density        =  -0.2102022260E-12

%%%% COMPUTE ELECTROSTATIC POTENTIAL %%%%%%%%%%%%%%%%%%%%%%%%%%%%%%%%%%%%%%%%%%%

 Starting from polarization: rhoiter =      1.266217

   i |    delta_qm    |    delta_en    |       tol
 ------------------------------------------------------
   1 |   0.152666E-03 |   0.402745E-01 |   0.100000E-04
   2 |   0.108913E-03 |   0.204977E-01 |   0.100000E-04
   3 |   0.844062E-04 |   0.123110E-01 |   0.100000E-04
   4 |   0.561467E-04 |   0.544744E-02 |   0.100000E-04
   5 |   0.393164E-04 |   0.267111E-02 |   0.100000E-04
   6 |   0.287122E-04 |   0.142455E-02 |   0.100000E-04
   7 |   0.194746E-04 |   0.655362E-03 |   0.100000E-04
   8 |   0.132405E-04 |   0.302937E-03 |   0.100000E-04
   9 |   0.980372E-05 |   0.166083E-03 |   0.100000E-04
  10 |   0.713719E-05 |   0.880234E-04 |   0.100000E-04
  11 |   0.504335E-05 |   0.439524E-04 |   0.100000E-04
  12 |   0.366646E-05 |   0.232294E-04 |   0.100000E-04
  13 |   0.269935E-05 |   0.125911E-04 |   0.100000E-04
  14 |   0.198896E-05 |   0.683589E-05 |   0.100000E-04

 Charges are converged, EXIT

%%%% DENSITY %%%%%%%%%%%%%%%%%%%%%%%%%%%%%%%%%%%%%%%%%%%%%%%%%%%%%%%%%%%%%%%%%%%

 density label              = velectrostatic                                    

 integral of density        =  -0.2087548241E-12

%%%% CHARGES %%%%%%%%%%%%%%%%%%%%%%%%%%%%%%%%%%%%%%%%%%%%%%%%%%%%%%%%%%%%%%%%%%%

 total number of charges    =             34

 total charge               =     -1.0000000

%%%% DENSITY %%%%%%%%%%%%%%%%%%%%%%%%%%%%%%%%%%%%%%%%%%%%%%%%%%%%%%%%%%%%%%%%%%%

 density label              = vsoftcavity                                       

 integral of density        =    34.85658780    

%%%% DENSITY %%%%%%%%%%%%%%%%%%%%%%%%%%%%%%%%%%%%%%%%%%%%%%%%%%%%%%%%%%%%%%%%%%%

 density label              = dvtot                                             

 integral of density        =    34.85658780    

%%%% ELECTRONS %%%%%%%%%%%%%%%%%%%%%%%%%%%%%%%%%%%%%%%%%%%%%%%%%%%%%%%%%%%%%%%%%

 number of electrons        =             24

 total electronic charge    =     24.0000000

%%%% ELECTRONS %%%%%%%%%%%%%%%%%%%%%%%%%%%%%%%%%%%%%%%%%%%%%%%%%%%%%%%%%%%%%%%%%

 number of electrons        =             24

 total electronic charge    =     24.0000000

%%%% CHARGES %%%%%%%%%%%%%%%%%%%%%%%%%%%%%%%%%%%%%%%%%%%%%%%%%%%%%%%%%%%%%%%%%%%

 total number of charges    =             34

 total charge               =     -1.0000000

%%%% CHARGES %%%%%%%%%%%%%%%%%%%%%%%%%%%%%%%%%%%%%%%%%%%%%%%%%%%%%%%%%%%%%%%%%%%

 total number of charges    =             34

 total charge               =     -1.0000000

%%%% BOUNDARY %%%%%%%%%%%%%%%%%%%%%%%%%%%%%%%%%%%%%%%%%%%%%%%%%%%%%%%%%%%%%%%%%%

 boundary label             = solvent             
 boundary mode              = electronic          

 using the optimal SCCS function:
 rhomax                     =      0.0050000
 rhomin                     =      0.0001000

 volume of the QM region    =    591.4849203

 surface of the QM region   =    367.9751298

%%%% DENSITY %%%%%%%%%%%%%%%%%%%%%%%%%%%%%%%%%%%%%%%%%%%%%%%%%%%%%%%%%%%%%%%%%%%

 density label              = vreference                                        

 integral of density        =   0.4906034426E-12

%%%% COMPUTE ELECTROSTATIC POTENTIAL %%%%%%%%%%%%%%%%%%%%%%%%%%%%%%%%%%%%%%%%%%%

 Starting from polarization: rhoiter =      1.262281

   i |    delta_qm    |    delta_en    |       tol
 ------------------------------------------------------
   1 |   0.789793E-04 |   0.107788E-01 |   0.100000E-04
   2 |   0.568247E-04 |   0.557979E-02 |   0.100000E-04
   3 |   0.435737E-04 |   0.328090E-02 |   0.100000E-04
   4 |   0.289963E-04 |   0.145288E-02 |   0.100000E-04
   5 |   0.202727E-04 |   0.710178E-03 |   0.100000E-04
   6 |   0.147711E-04 |   0.377024E-03 |   0.100000E-04
   7 |   0.100088E-04 |   0.173106E-03 |   0.100000E-04
   8 |   0.681248E-05 |   0.801962E-04 |   0.100000E-04
   9 |   0.503581E-05 |   0.438210E-04 |   0.100000E-04
  10 |   0.367396E-05 |   0.233245E-04 |   0.100000E-04
  11 |   0.260473E-05 |   0.117239E-04 |   0.100000E-04
  12 |   0.189004E-05 |   0.617282E-05 |   0.100000E-04

 Charges are converged, EXIT

%%%% DENSITY %%%%%%%%%%%%%%%%%%%%%%%%%%%%%%%%%%%%%%%%%%%%%%%%%%%%%%%%%%%%%%%%%%%

 density label              = velectrostatic                                    

 integral of density        =  -0.1698723466E-12

%%%% CHARGES %%%%%%%%%%%%%%%%%%%%%%%%%%%%%%%%%%%%%%%%%%%%%%%%%%%%%%%%%%%%%%%%%%%

 total number of charges    =             34

 total charge               =     -1.0000000

%%%% DENSITY %%%%%%%%%%%%%%%%%%%%%%%%%%%%%%%%%%%%%%%%%%%%%%%%%%%%%%%%%%%%%%%%%%%

 density label              = vsoftcavity                                       

 integral of density        =    35.15131249    

%%%% DENSITY %%%%%%%%%%%%%%%%%%%%%%%%%%%%%%%%%%%%%%%%%%%%%%%%%%%%%%%%%%%%%%%%%%%

 density label              = dvtot                                             

 integral of density        =    35.15131249    

%%%% ELECTRONS %%%%%%%%%%%%%%%%%%%%%%%%%%%%%%%%%%%%%%%%%%%%%%%%%%%%%%%%%%%%%%%%%

 number of electrons        =             24

 total electronic charge    =     24.0000000

%%%% ELECTRONS %%%%%%%%%%%%%%%%%%%%%%%%%%%%%%%%%%%%%%%%%%%%%%%%%%%%%%%%%%%%%%%%%

 number of electrons        =             24

 total electronic charge    =     24.0000000

%%%% CHARGES %%%%%%%%%%%%%%%%%%%%%%%%%%%%%%%%%%%%%%%%%%%%%%%%%%%%%%%%%%%%%%%%%%%

 total number of charges    =             34

 total charge               =     -1.0000000

%%%% CHARGES %%%%%%%%%%%%%%%%%%%%%%%%%%%%%%%%%%%%%%%%%%%%%%%%%%%%%%%%%%%%%%%%%%%

 total number of charges    =             34

 total charge               =     -1.0000000

%%%% BOUNDARY %%%%%%%%%%%%%%%%%%%%%%%%%%%%%%%%%%%%%%%%%%%%%%%%%%%%%%%%%%%%%%%%%%

 boundary label             = solvent             
 boundary mode              = electronic          

 using the optimal SCCS function:
 rhomax                     =      0.0050000
 rhomin                     =      0.0001000

 volume of the QM region    =    591.4870192

 surface of the QM region   =    367.9930068

%%%% DENSITY %%%%%%%%%%%%%%%%%%%%%%%%%%%%%%%%%%%%%%%%%%%%%%%%%%%%%%%%%%%%%%%%%%%

 density label              = vreference                                        

 integral of density        =   0.7933735973E-12

%%%% COMPUTE ELECTROSTATIC POTENTIAL %%%%%%%%%%%%%%%%%%%%%%%%%%%%%%%%%%%%%%%%%%%

 Starting from polarization: rhoiter =      1.261800

   i |    delta_qm    |    delta_en    |       tol
 ------------------------------------------------------
   1 |   0.193998E-03 |   0.650339E-01 |   0.100000E-04
   2 |   0.136793E-03 |   0.323350E-01 |   0.100000E-04
   3 |   0.105612E-03 |   0.192739E-01 |   0.100000E-04
   4 |   0.704166E-04 |   0.856828E-02 |   0.100000E-04
   5 |   0.486927E-04 |   0.409705E-02 |   0.100000E-04
   6 |   0.356187E-04 |   0.219230E-02 |   0.100000E-04
   7 |   0.242613E-04 |   0.101712E-02 |   0.100000E-04
   8 |   0.163124E-04 |   0.459809E-03 |   0.100000E-04
   9 |   0.120244E-04 |   0.249843E-03 |   0.100000E-04
  10 |   0.886110E-05 |   0.135681E-03 |   0.100000E-04
  11 |   0.626940E-05 |   0.679196E-04 |   0.100000E-04
  12 |   0.452026E-05 |   0.353078E-04 |   0.100000E-04
  13 |   0.334682E-05 |   0.193557E-04 |   0.100000E-04
  14 |   0.248303E-05 |   0.106538E-04 |   0.100000E-04
  15 |   0.181098E-05 |   0.566724E-05 |   0.100000E-04

 Charges are converged, EXIT

%%%% DENSITY %%%%%%%%%%%%%%%%%%%%%%%%%%%%%%%%%%%%%%%%%%%%%%%%%%%%%%%%%%%%%%%%%%%

 density label              = velectrostatic                                    

 integral of density        =   0.5855398471E-13

%%%% CHARGES %%%%%%%%%%%%%%%%%%%%%%%%%%%%%%%%%%%%%%%%%%%%%%%%%%%%%%%%%%%%%%%%%%%

 total number of charges    =             34

 total charge               =     -1.0000000

%%%% DENSITY %%%%%%%%%%%%%%%%%%%%%%%%%%%%%%%%%%%%%%%%%%%%%%%%%%%%%%%%%%%%%%%%%%%

 density label              = vsoftcavity                                       

 integral of density        =    35.54844720    

%%%% DENSITY %%%%%%%%%%%%%%%%%%%%%%%%%%%%%%%%%%%%%%%%%%%%%%%%%%%%%%%%%%%%%%%%%%%

 density label              = dvtot                                             

 integral of density        =    35.54844720    

%%%% ELECTRONS %%%%%%%%%%%%%%%%%%%%%%%%%%%%%%%%%%%%%%%%%%%%%%%%%%%%%%%%%%%%%%%%%

 number of electrons        =             24

 total electronic charge    =     24.0000000

%%%% ELECTRONS %%%%%%%%%%%%%%%%%%%%%%%%%%%%%%%%%%%%%%%%%%%%%%%%%%%%%%%%%%%%%%%%%

 number of electrons        =             24

 total electronic charge    =     24.0000000

%%%% CHARGES %%%%%%%%%%%%%%%%%%%%%%%%%%%%%%%%%%%%%%%%%%%%%%%%%%%%%%%%%%%%%%%%%%%

 total number of charges    =             34

 total charge               =     -1.0000000

%%%% CHARGES %%%%%%%%%%%%%%%%%%%%%%%%%%%%%%%%%%%%%%%%%%%%%%%%%%%%%%%%%%%%%%%%%%%

 total number of charges    =             34

 total charge               =     -1.0000000

%%%% BOUNDARY %%%%%%%%%%%%%%%%%%%%%%%%%%%%%%%%%%%%%%%%%%%%%%%%%%%%%%%%%%%%%%%%%%

 boundary label             = solvent             
 boundary mode              = electronic          

 using the optimal SCCS function:
 rhomax                     =      0.0050000
 rhomin                     =      0.0001000

 volume of the QM region    =    591.4870192

 surface of the QM region   =    367.9930068

%%%% DENSITY %%%%%%%%%%%%%%%%%%%%%%%%%%%%%%%%%%%%%%%%%%%%%%%%%%%%%%%%%%%%%%%%%%%

 density label              = dvtot                                             

 integral of density        =    35.54844720    

%%%% DENSITY %%%%%%%%%%%%%%%%%%%%%%%%%%%%%%%%%%%%%%%%%%%%%%%%%%%%%%%%%%%%%%%%%%%

 density label              = vreference                                        

 integral of density        =   0.7933735973E-12

%%%% DENSITY %%%%%%%%%%%%%%%%%%%%%%%%%%%%%%%%%%%%%%%%%%%%%%%%%%%%%%%%%%%%%%%%%%%

 density label              = velectrostatic                                    

 integral of density        =   0.5855398471E-13

%%%% CHARGES %%%%%%%%%%%%%%%%%%%%%%%%%%%%%%%%%%%%%%%%%%%%%%%%%%%%%%%%%%%%%%%%%%%

 total number of charges    =             34

 total charge               =     -1.0000000

%%%% DENSITY %%%%%%%%%%%%%%%%%%%%%%%%%%%%%%%%%%%%%%%%%%%%%%%%%%%%%%%%%%%%%%%%%%%

 density label              = vsoftcavity                                       

 integral of density        =    35.54844720    
