
     Program PWSCF v.6.7MaX starts on  1Oct2021 at 20:23: 2 

     This program is part of the open-source Quantum ESPRESSO suite
     for quantum simulation of materials; please cite
         "P. Giannozzi et al., J. Phys.:Condens. Matter 21 395502 (2009);
         "P. Giannozzi et al., J. Phys.:Condens. Matter 29 465901 (2017);
          URL http://www.quantum-espresso.org", 
     in publications or presentations arising from this work. More details at
     http://www.quantum-espresso.org/quote

     Parallel version (MPI), running on     1 processors

     MPI processes distributed on     1 nodes
     Reading input from charged.in

     Current dimensions of program PWSCF are:
     Max number of different atomic species (ntypx) = 10
     Max number of k-points (npk) =  40000
     Max angular momentum in pseudopotentials (lmaxx) =  3

     Reading input from environ.in

     ================================================================================

     Reading ENVIRON namelist

     Reading BOUNDARY namelist

     Checking boundary derivatives
     derivatives               = chain          ! SCCS default

     Reading ELECTROSTATIC namelist

     Setting up electrostatic problem
     problem                   = generalized    

     Checking PBC correction
     pbc_correction            = none           ! default

     ================================================================================
 
     file C.pbe-rrkjus.UPF: wavefunction(s)  2S 2P renormalized
     file H.pbe-rrkjus.UPF: wavefunction(s)  1S renormalized
     file N.pbe-rrkjus.UPF: wavefunction(s)  2S renormalized
     file O.pbe-rrkjus.UPF: wavefunction(s)  2S renormalized

     gamma-point specific algorithms are used

     Subspace diagonalization in iterative solution of the eigenvalue problem:
     a serial algorithm will be used

 
     G-vector sticks info
     --------------------
     sticks:   dense  smooth     PW     G-vecs:    dense   smooth      PW
     Sum        9549    3809    949               701475   177509   22119
 


     bravais-lattice index     =            1
     lattice parameter (alat)  =      20.0000  a.u.
     unit-cell volume          =    8000.0000 (a.u.)^3
     number of atoms/cell      =           10
     number of atomic types    =            4
     number of electrons       =        24.00
     number of Kohn-Sham states=           12
     kinetic-energy cutoff     =      30.0000  Ry
     charge density cutoff     =     300.0000  Ry
     scf convergence threshold =      5.0E-06
     mixing beta               =       0.7000
     number of iterations used =            8  plain     mixing
     Exchange-correlation= SLA  PW   PBE  PBE
                           (   1   4   3   4   0   0   0)
 

     Environ Module
     ==============

     Please cite
         O. Andreussi, I. Dabo and N. Marzari, J. Chem. Phys. 136, 064102 (2012)         
     in publications or presentations arising from this work.

     compensation onset threshold      =               0.1000E+03
     static permittivity               =                   100.00
     epsilon calculation mode          =               electronic

     Electrostatic Setup
     -------------------
     electrostatic problem to solve    = generalized             
     numerical solver adopted          = sd                      
     type of auxiliary density adopted = none                    
     type of core tool for poisson     = fft                     



     celldm(1)=  20.000000  celldm(2)=   0.000000  celldm(3)=   0.000000
     celldm(4)=   0.000000  celldm(5)=   0.000000  celldm(6)=   0.000000

     crystal axes: (cart. coord. in units of alat)
               a(1) = (   1.000000   0.000000   0.000000 )  
               a(2) = (   0.000000   1.000000   0.000000 )  
               a(3) = (   0.000000   0.000000   1.000000 )  

     reciprocal axes: (cart. coord. in units 2 pi/alat)
               b(1) = (  1.000000  0.000000  0.000000 )  
               b(2) = (  0.000000  1.000000  0.000000 )  
               b(3) = (  0.000000  0.000000  1.000000 )  


     PseudoPot. # 1 for C  read from file:
     /home/simplogic86/Work/QE1/Environ/tests/../..//pseudo/C.pbe-rrkjus.UPF
     MD5 check sum: c9ac5a99bc85b198593446162950cd17
     Pseudo is Ultrasoft, Zval =  4.0
     Generated by new atomic code, or converted to UPF format
     Using radial grid of  627 points,  4 beta functions with: 
                l(1) =   0
                l(2) =   0
                l(3) =   1
                l(4) =   1
     Q(r) pseudized with 0 coefficients 


     PseudoPot. # 2 for H  read from file:
     /home/simplogic86/Work/QE1/Environ/tests/../..//pseudo/H.pbe-rrkjus.UPF
     MD5 check sum: 2d52a7f45632fd764c17cc6affed14c8
     Pseudo is Ultrasoft, Zval =  1.0
     Generated by new atomic code, or converted to UPF format
     Using radial grid of 1061 points,  2 beta functions with: 
                l(1) =   0
                l(2) =   0
     Q(r) pseudized with 0 coefficients 


     PseudoPot. # 3 for N  read from file:
     /home/simplogic86/Work/QE1/Environ/tests/../..//pseudo/N.pbe-rrkjus.UPF
     MD5 check sum: 28c76d763763edb36c62a6ca2be9aebd
     Pseudo is Ultrasoft, Zval =  5.0
     Generated by new atomic code, or converted to UPF format
     Using radial grid of 1257 points,  4 beta functions with: 
                l(1) =   0
                l(2) =   0
                l(3) =   1
                l(4) =   1
     Q(r) pseudized with 0 coefficients 


     PseudoPot. # 4 for O  read from file:
     /home/simplogic86/Work/QE1/Environ/tests/../..//pseudo/O.pbe-rrkjus.UPF
     MD5 check sum: fadcf19ee70a498d3030e2e79cf929a4
     Pseudo is Ultrasoft, Zval =  6.0
     Generated by new atomic code, or converted to UPF format
     Using radial grid of 1269 points,  4 beta functions with: 
                l(1) =   0
                l(2) =   0
                l(3) =   1
                l(4) =   1
     Q(r) pseudized with 0 coefficients 


     atomic species   valence    mass     pseudopotential
        C              4.00    12.00000     C ( 1.00)
        H              1.00     1.00000     H ( 1.00)
        N              5.00    14.00000     N ( 1.00)
        O              6.00    16.00000     O ( 1.00)

     No symmetry found



   Cartesian axes

     site n.     atom                  positions (alat units)
         1           C   tau(   1) = (   0.0000000   0.0000000   0.0000000  )
         2           C   tau(   2) = (   0.0000000   0.0000000   0.1455089  )
         3           N   tau(   3) = (   0.1170969   0.0000000  -0.0545024  )
         4           H   tau(   4) = (   0.0476617  -0.0825466   0.1792090  )
         5           H   tau(   5) = (  -0.0953183  -0.0000030   0.1792090  )
         6           H   tau(   6) = (   0.0476566   0.0825496   0.1792090  )
         7           O   tau(   7) = (  -0.0984002  -0.0000019  -0.0641310  )
         8           H   tau(   8) = (   0.1263131  -0.0000015  -0.1475548  )
         9           H   tau(   9) = (   0.1944645   0.0000134  -0.0025716  )
        10           H   tau(  10) = (  -0.0770366  -0.0000045  -0.1522861  )

     number of k points=     1
                       cart. coord. in units 2pi/alat
        k(    1) = (   0.0000000   0.0000000   0.0000000), wk =   2.0000000

     Dense  grid:   350738 G-vectors     FFT dimensions: ( 120, 120, 120)

     Smooth grid:    88755 G-vectors     FFT dimensions: (  72,  72,  72)

     Estimated max dynamical RAM per process >     624.11 MB

     Initial potential from superposition of free atoms

     starting charge   24.42266, renormalised to   24.00000

     negative rho (up, down):  4.438E-04 0.000E+00
     Starting wfcs are   22 randomized atomic wfcs

     total cpu time spent up to now is        4.8 secs

     Self-consistent Calculation

     iteration #  1     ecut=    30.00 Ry     beta= 0.70
     Davidson diagonalization with overlap
     ethr =  1.00E-02,  avg # of iterations =  2.0

     negative rho (up, down):  1.234E-04 0.000E+00

     add environment contribution to local potential
     Polarization accuracy = 6.3E-06, # of iterations =  41

     total cpu time spent up to now is       12.7 secs

     total energy              =     -80.29562589 Ry
     estimated scf accuracy    <       3.64924908 Ry
     electrostatic embedding   =       0.00000000 Ry
     correction to one-el term =       0.00000000 Ry

     iteration #  2     ecut=    30.00 Ry     beta= 0.70
     Davidson diagonalization with overlap
     ethr =  1.00E-02,  avg # of iterations =  4.0

     negative rho (up, down):  4.946E-04 0.000E+00

     add environment contribution to local potential
     Polarization accuracy = 7.6E-06, # of iterations =  59

     total cpu time spent up to now is       21.1 secs

     total energy              =     -81.17075045 Ry
     estimated scf accuracy    <       1.04503429 Ry
     electrostatic embedding   =      -0.18471758 Ry
     correction to one-el term =      -4.99253313 Ry

     iteration #  3     ecut=    30.00 Ry     beta= 0.70
     Davidson diagonalization with overlap
     ethr =  4.35E-03,  avg # of iterations =  4.0

     negative rho (up, down):  2.227E-04 0.000E+00

     add environment contribution to local potential
     Polarization accuracy = 7.4E-06, # of iterations =  75

     total cpu time spent up to now is       30.8 secs

     total energy              =     -81.34941745 Ry
     estimated scf accuracy    <       0.11363945 Ry
     electrostatic embedding   =      -0.15050856 Ry
     correction to one-el term =      -4.27235600 Ry

     iteration #  4     ecut=    30.00 Ry     beta= 0.70
     Davidson diagonalization with overlap
     ethr =  4.73E-04,  avg # of iterations =  5.0

     negative rho (up, down):  1.282E-04 0.000E+00

     add environment contribution to local potential
     Polarization accuracy = 8.0E-06, # of iterations =  91

     total cpu time spent up to now is       41.9 secs

     total energy              =     -81.38113729 Ry
     estimated scf accuracy    <       0.01966224 Ry
     electrostatic embedding   =      -0.12810874 Ry
     correction to one-el term =      -4.02652460 Ry

     iteration #  5     ecut=    30.00 Ry     beta= 0.70
     Davidson diagonalization with overlap
     ethr =  8.19E-05,  avg # of iterations =  4.0

     negative rho (up, down):  7.682E-05 0.000E+00

     add environment contribution to local potential
     Polarization accuracy = 8.9E-06, # of iterations =  91

     total cpu time spent up to now is       53.4 secs

     total energy              =     -81.38584103 Ry
     estimated scf accuracy    <       0.00175322 Ry
     electrostatic embedding   =      -0.12230889 Ry
     correction to one-el term =      -3.80367340 Ry

     iteration #  6     ecut=    30.00 Ry     beta= 0.70
     Davidson diagonalization with overlap
     ethr =  7.31E-06,  avg # of iterations =  2.0

     negative rho (up, down):  1.015E-04 0.000E+00

     add environment contribution to local potential
     Polarization accuracy = 9.6E-06, # of iterations =  91

     total cpu time spent up to now is       64.9 secs

     total energy              =     -81.38631964 Ry
     estimated scf accuracy    <       0.00024193 Ry
     electrostatic embedding   =      -0.12309719 Ry
     correction to one-el term =      -3.78109706 Ry

     iteration #  7     ecut=    30.00 Ry     beta= 0.70
     Davidson diagonalization with overlap
     ethr =  1.01E-06,  avg # of iterations =  5.0

     negative rho (up, down):  3.227E-04 0.000E+00

     add environment contribution to local potential
     Polarization accuracy = 8.1E-06, # of iterations =  93

     total cpu time spent up to now is       76.3 secs

     total energy              =     -81.38652893 Ry
     estimated scf accuracy    <       0.00004758 Ry
     electrostatic embedding   =      -0.12459515 Ry
     correction to one-el term =      -3.77607376 Ry

     iteration #  8     ecut=    30.00 Ry     beta= 0.70
     Davidson diagonalization with overlap
     ethr =  1.98E-07,  avg # of iterations =  5.0

     negative rho (up, down):  3.858E-04 0.000E+00

     add environment contribution to local potential
     Polarization accuracy = 8.2E-06, # of iterations =  93

     total cpu time spent up to now is       87.8 secs

     total energy              =     -81.38664450 Ry
     estimated scf accuracy    <       0.00001319 Ry
     electrostatic embedding   =      -0.12630179 Ry
     correction to one-el term =      -3.77617912 Ry

     iteration #  9     ecut=    30.00 Ry     beta= 0.70
     Davidson diagonalization with overlap
     ethr =  5.49E-08,  avg # of iterations =  3.0

     negative rho (up, down):  3.015E-04 0.000E+00

     add environment contribution to local potential
     Polarization accuracy = 8.2E-06, # of iterations =  93

     total cpu time spent up to now is       99.1 secs

     total energy              =     -81.38667744 Ry
     estimated scf accuracy    <       0.00000705 Ry
     electrostatic embedding   =      -0.12726265 Ry
     correction to one-el term =      -3.78057122 Ry

     iteration # 10     ecut=    30.00 Ry     beta= 0.70
     Davidson diagonalization with overlap
     ethr =  2.94E-08,  avg # of iterations =  5.0

     negative rho (up, down):  2.790E-04 0.000E+00

     the potential shift due to the Gaussian-smeared nuclei is    -0.0668 ev

     total cpu time spent up to now is      100.9 secs

     End of self-consistent calculation

          k = 0.0000 0.0000 0.0000 ( 11060 PWs)   bands (ev):

   -28.9045 -23.0733 -18.6298 -15.9875 -14.6130 -13.3718 -11.6645 -10.9416
    -9.6251  -9.6179  -9.3048  -7.3648

     highest occupied level (ev):    -7.3648

!    total energy              =     -81.38672285 Ry
     estimated scf accuracy    <       0.00000305 Ry

     The total energy is the sum of the following terms:
     one-electron contribution =    -241.97181523 Ry
     hartree contribution      =     123.16619141 Ry
     xc contribution           =     -22.96435057 Ry
     ewald contribution        =      64.30784069 Ry
     electrostatic embedding   =      -0.12983355 Ry
     correction to one-el term =      -3.79475560 Ry

     convergence has been achieved in  10 iterations

     Forces acting on atoms (cartesian axes, Ry/au):

     atom    1 type  1   force =     0.21745590    0.00000252    0.09509938
     atom    2 type  1   force =    -0.03060679    0.00000165   -0.07951959
     atom    3 type  3   force =    -0.13870705   -0.00000243    0.04288316
     atom    4 type  2   force =     0.01866537   -0.02832471    0.00880593
     atom    5 type  2   force =    -0.03120894   -0.00000047    0.01154948
     atom    6 type  2   force =     0.01866382    0.02832646    0.00880727
     atom    7 type  4   force =    -0.09351018   -0.00000594   -0.00080400
     atom    8 type  2   force =     0.00704451    0.00000055   -0.05311551
     atom    9 type  2   force =     0.04356511    0.00000251    0.03736214
     atom   10 type  2   force =    -0.01136175   -0.00000014   -0.07106827

     Total force =     0.329125     Total SCF correction =     0.002235

     Writing output data file /home/simplogic86/Work/QE1/Environ/tests/../..//tempdir/pwscf.save/
 
     init_run     :      4.49s CPU      4.74s WALL (       1 calls)
     electrons    :     90.87s CPU     96.12s WALL (       1 calls)
     forces       :      0.69s CPU      0.80s WALL (       1 calls)

     Called by init_run:
     wfcinit      :      0.10s CPU      0.10s WALL (       1 calls)
     potinit      :      1.07s CPU      1.12s WALL (       1 calls)
     hinit0       :      2.75s CPU      2.78s WALL (       1 calls)

     Called by electrons:
     c_bands      :      1.86s CPU      2.02s WALL (      10 calls)
     sum_band     :      3.82s CPU      4.56s WALL (      10 calls)
     v_of_rho     :      3.86s CPU      4.30s WALL (      11 calls)
     newd         :      2.61s CPU      3.25s WALL (      11 calls)
     mix_rho      :      0.51s CPU      0.51s WALL (      10 calls)

     Called by c_bands:
     init_us_2    :      0.06s CPU      0.06s WALL (      21 calls)
     regterg      :      1.74s CPU      1.91s WALL (      10 calls)

     Called by *egterg:
     rdiaghg      :      0.01s CPU      0.01s WALL (      49 calls)
     h_psi        :      1.65s CPU      1.82s WALL (      50 calls)
     s_psi        :      0.04s CPU      0.04s WALL (      50 calls)
     g_psi        :      0.01s CPU      0.01s WALL (      39 calls)

     Called by h_psi:
     h_psi:calbec :      0.04s CPU      0.04s WALL (      50 calls)
     vloc_psi     :      1.56s CPU      1.72s WALL (      50 calls)
     add_vuspsi   :      0.05s CPU      0.05s WALL (      50 calls)

     General routines
     calbec       :      0.05s CPU      0.05s WALL (      64 calls)
     fft          :      1.83s CPU      1.88s WALL (     121 calls)
     ffts         :      0.06s CPU      0.06s WALL (      21 calls)
     fftw         :      1.28s CPU      1.41s WALL (     476 calls)
     interpolate  :      0.25s CPU      0.25s WALL (      11 calls)
 
     Parallel routines
 
     Environ routines
 
     PWSCF        :   1m36.15s CPU   1m41.76s WALL

 
   This run was terminated on:  20:24:44   1Oct2021            

=------------------------------------------------------------------------------=
   JOB DONE.
=------------------------------------------------------------------------------=

%%%% CELL %%%%%%%%%%%%%%%%%%%%%%%%%%%%%%%%%%%%%%%%%%%%%%%%%%%%%%%%%%%%%%%%%%%%%%

 cell label                 = system         

 cell volume                =    8000.000000

%%%% IONS %%%%%%%%%%%%%%%%%%%%%%%%%%%%%%%%%%%%%%%%%%%%%%%%%%%%%%%%%%%%%%%%%%%%%%

 total charge               =    -25.0000000
 center of charge           =      0.1910593    -0.0000030     0.1279620
 dipole                     =      0.0000000     0.0000000     0.0000000
 quadrupole (pc)            =    -79.0828051    -5.4513517  -105.8059620
 quadrupole (gauss)         =    -82.2078051    -8.5763517  -108.9309620

   i | type | coordinates
 -----------------------------------------------------------------------
   1 |    1 |                      0.0000000     0.0000000     0.0000000
   2 |    1 |                      0.0000000     0.0000000     2.9101782
   3 |    3 |                      2.3419379     0.0000000    -1.0900479
   4 |    2 |                      0.9532347    -1.6509323     3.5841800
   5 |    2 |                     -1.9063663    -0.0000596     3.5841809
   6 |    2 |                      0.9531315     1.6509919     3.5841800
   7 |    4 |                     -1.9680045    -0.0000375    -1.2826193
   8 |    2 |                      2.5262613    -0.0000303    -2.9510950
   9 |    2 |                      3.8892907     0.0002681    -0.0514326
  10 |    2 |                     -1.5407317    -0.0000890    -3.0457220

%%%% SYSTEM %%%%%%%%%%%%%%%%%%%%%%%%%%%%%%%%%%%%%%%%%%%%%%%%%%%%%%%%%%%%%%%%%%%%

 system is built from all present ionic types

 system defined dimension   =              0
 system defined axis        =              3

 system center              =      0.1910593    -0.0000030     0.1279620
 system width               =      4.0428509

%%%% IONS %%%%%%%%%%%%%%%%%%%%%%%%%%%%%%%%%%%%%%%%%%%%%%%%%%%%%%%%%%%%%%%%%%%%%%

 total charge               =    -25.0000000
 center of charge           =      0.1910593    -0.0000030     0.1279620
 dipole                     =      0.0000000     0.0000000     0.0000000
 quadrupole (pc)            =    -79.0828051    -5.4513517  -105.8059620
 quadrupole (gauss)         =    -82.2078051    -8.5763517  -108.9309620

   i | type | coordinates
 -----------------------------------------------------------------------
   1 |    1 |                      0.0000000     0.0000000     0.0000000
   2 |    1 |                      0.0000000     0.0000000     2.9101782
   3 |    3 |                      2.3419379     0.0000000    -1.0900479
   4 |    2 |                      0.9532347    -1.6509323     3.5841800
   5 |    2 |                     -1.9063663    -0.0000596     3.5841809
   6 |    2 |                      0.9531315     1.6509919     3.5841800
   7 |    4 |                     -1.9680045    -0.0000375    -1.2826193
   8 |    2 |                      2.5262613    -0.0000303    -2.9510950
   9 |    2 |                      3.8892907     0.0002681    -0.0514326
  10 |    2 |                     -1.5407317    -0.0000890    -3.0457220

%%%% SYSTEM %%%%%%%%%%%%%%%%%%%%%%%%%%%%%%%%%%%%%%%%%%%%%%%%%%%%%%%%%%%%%%%%%%%%

 system is built from all present ionic types

 system defined dimension   =              0
 system defined axis        =              3

 system center              =      0.1910593    -0.0000030     0.1279620
 system width               =      4.0428509

%%%% CHARGES %%%%%%%%%%%%%%%%%%%%%%%%%%%%%%%%%%%%%%%%%%%%%%%%%%%%%%%%%%%%%%%%%%%

 total number of charges    =             11

 total charge               =    -25.0000000

%%%% CHARGES %%%%%%%%%%%%%%%%%%%%%%%%%%%%%%%%%%%%%%%%%%%%%%%%%%%%%%%%%%%%%%%%%%%

 total number of charges    =             11

 total charge               =    -25.0000000

%%%% CELL %%%%%%%%%%%%%%%%%%%%%%%%%%%%%%%%%%%%%%%%%%%%%%%%%%%%%%%%%%%%%%%%%%%%%%

 cell label                 = system         

 cell volume                =    8000.000000

%%%% ELECTRONS %%%%%%%%%%%%%%%%%%%%%%%%%%%%%%%%%%%%%%%%%%%%%%%%%%%%%%%%%%%%%%%%%

 number of electrons        =             24

 total electronic charge    =     24.0000000

%%%% ELECTRONS %%%%%%%%%%%%%%%%%%%%%%%%%%%%%%%%%%%%%%%%%%%%%%%%%%%%%%%%%%%%%%%%%

 number of electrons        =             24

 total electronic charge    =     24.0000000

%%%% CHARGES %%%%%%%%%%%%%%%%%%%%%%%%%%%%%%%%%%%%%%%%%%%%%%%%%%%%%%%%%%%%%%%%%%%

 total number of charges    =             34

 total charge               =     -1.0000000

%%%% CHARGES %%%%%%%%%%%%%%%%%%%%%%%%%%%%%%%%%%%%%%%%%%%%%%%%%%%%%%%%%%%%%%%%%%%

 total number of charges    =             34

 total charge               =     -1.0000000

%%%% BOUNDARY %%%%%%%%%%%%%%%%%%%%%%%%%%%%%%%%%%%%%%%%%%%%%%%%%%%%%%%%%%%%%%%%%%

 boundary label             = solvent             
 boundary mode              = electronic          

 boundary is built as a type-2 function of a smooth density

 using the modified SCCS function:
 rhomax                     =      0.0050000
 rhomin                     =      0.0001000

 volume of the QM region    =   2771.6247496

 surface of the QM region   =    905.6008158

%%%% DENSITY %%%%%%%%%%%%%%%%%%%%%%%%%%%%%%%%%%%%%%%%%%%%%%%%%%%%%%%%%%%%%%%%%%%

 density label              = dvtot                                             

 integral of density        =    0.000000000    

%%%% DENSITY %%%%%%%%%%%%%%%%%%%%%%%%%%%%%%%%%%%%%%%%%%%%%%%%%%%%%%%%%%%%%%%%%%%

 density label              = vreference                                        

 integral of density        =    0.000000000    

%%%% DENSITY %%%%%%%%%%%%%%%%%%%%%%%%%%%%%%%%%%%%%%%%%%%%%%%%%%%%%%%%%%%%%%%%%%%

 density label              = velectrostatic                                    

 integral of density        =    0.000000000    

%%%% CHARGES %%%%%%%%%%%%%%%%%%%%%%%%%%%%%%%%%%%%%%%%%%%%%%%%%%%%%%%%%%%%%%%%%%%

 total number of charges    =             34

 total charge               =     -1.0000000

%%%% DENSITY %%%%%%%%%%%%%%%%%%%%%%%%%%%%%%%%%%%%%%%%%%%%%%%%%%%%%%%%%%%%%%%%%%%

 density label              = vsoftcavity                                       

 integral of density        =    0.000000000    

%%%% ELECTRONS %%%%%%%%%%%%%%%%%%%%%%%%%%%%%%%%%%%%%%%%%%%%%%%%%%%%%%%%%%%%%%%%%

 number of electrons        =             24

 total electronic charge    =     24.0000000

%%%% ELECTRONS %%%%%%%%%%%%%%%%%%%%%%%%%%%%%%%%%%%%%%%%%%%%%%%%%%%%%%%%%%%%%%%%%

 number of electrons        =             24

 total electronic charge    =     24.0000000

%%%% CHARGES %%%%%%%%%%%%%%%%%%%%%%%%%%%%%%%%%%%%%%%%%%%%%%%%%%%%%%%%%%%%%%%%%%%

 total number of charges    =             34

 total charge               =     -1.0000000

%%%% CHARGES %%%%%%%%%%%%%%%%%%%%%%%%%%%%%%%%%%%%%%%%%%%%%%%%%%%%%%%%%%%%%%%%%%%

 total number of charges    =             34

 total charge               =     -1.0000000

%%%% BOUNDARY %%%%%%%%%%%%%%%%%%%%%%%%%%%%%%%%%%%%%%%%%%%%%%%%%%%%%%%%%%%%%%%%%%

 boundary label             = solvent             
 boundary mode              = electronic          

 boundary is built as a type-2 function of a smooth density

 using the modified SCCS function:
 rhomax                     =      0.0050000
 rhomin                     =      0.0001000

 volume of the QM region    =    994.3250268

 surface of the QM region   =    491.9124258

%%%% DENSITY %%%%%%%%%%%%%%%%%%%%%%%%%%%%%%%%%%%%%%%%%%%%%%%%%%%%%%%%%%%%%%%%%%%

 density label              = vreference                                        

 integral of density        =  -0.6906738556E-12

%%%% COMPUTE ELECTROSTATIC POTENTIAL %%%%%%%%%%%%%%%%%%%%%%%%%%%%%%%%%%%%%%%%%%%

   i |      alpha     |       pAp      |      rzold     |    delta_qm    |    delta_en    |       tol
 ---------------------------------------------------------------------------------------------------------
   1 |   0.968920E+00 |   0.923045E+02 |   0.894357E+02 |   0.143097E-01 |   0.353837E+03 |   0.100000E-04
   2 |   0.129809E+00 |   0.133975E+03 |   0.173912E+02 |   0.335817E-02 |   0.194872E+02 |   0.100000E-04
   3 |   0.264726E+00 |   0.909454E+00 |   0.240756E+00 |   0.194653E-02 |   0.654739E+01 |   0.100000E-04
   4 |   0.212270E+00 |   0.427920E+00 |   0.908348E-01 |   0.169328E-02 |   0.495454E+01 |   0.100000E-04
   5 |   0.241013E+00 |   0.180315E+00 |   0.434584E-01 |   0.107400E-02 |   0.199320E+01 |   0.100000E-04
   6 |   0.209255E+00 |   0.140550E+00 |   0.294107E-01 |   0.103796E-02 |   0.186168E+01 |   0.100000E-04
   7 |   0.238481E+00 |   0.643525E-01 |   0.153468E-01 |   0.648494E-03 |   0.726701E+00 |   0.100000E-04
   8 |   0.208123E+00 |   0.507307E-01 |   0.105582E-01 |   0.651123E-03 |   0.732606E+00 |   0.100000E-04
   9 |   0.237714E+00 |   0.234475E-01 |   0.557380E-02 |   0.405665E-03 |   0.284366E+00 |   0.100000E-04
  10 |   0.207868E+00 |   0.185643E-01 |   0.385893E-02 |   0.417490E-03 |   0.301187E+00 |   0.100000E-04
  11 |   0.237635E+00 |   0.862266E-02 |   0.204905E-02 |   0.261310E-03 |   0.117993E+00 |   0.100000E-04
  12 |   0.207923E+00 |   0.685437E-02 |   0.142518E-02 |   0.273372E-03 |   0.129138E+00 |   0.100000E-04
  13 |   0.237805E+00 |   0.319712E-02 |   0.760292E-03 |   0.172912E-03 |   0.516649E-01 |   0.100000E-04
  14 |   0.208109E+00 |   0.255350E-02 |   0.531404E-03 |   0.182615E-03 |   0.576255E-01 |   0.100000E-04
  15 |   0.238109E+00 |   0.119681E-02 |   0.284970E-03 |   0.117322E-03 |   0.237850E-01 |   0.100000E-04
  16 |   0.208388E+00 |   0.961674E-03 |   0.200401E-03 |   0.124261E-03 |   0.266817E-01 |   0.100000E-04
  17 |   0.238539E+00 |   0.453535E-03 |   0.108186E-03 |   0.813970E-04 |   0.114488E-01 |   0.100000E-04
  18 |   0.208771E+00 |   0.367365E-03 |   0.766951E-04 |   0.859585E-04 |   0.127680E-01 |   0.100000E-04
  19 |   0.239118E+00 |   0.174681E-03 |   0.417693E-04 |   0.575222E-04 |   0.571761E-02 |   0.100000E-04
  20 |   0.209277E+00 |   0.143003E-03 |   0.299273E-04 |   0.603120E-04 |   0.628567E-02 |   0.100000E-04
  21 |   0.239870E+00 |   0.687329E-04 |   0.164870E-04 |   0.412278E-04 |   0.293714E-02 |   0.100000E-04
  22 |   0.209922E+00 |   0.570471E-04 |   0.119755E-04 |   0.428207E-04 |   0.316848E-02 |   0.100000E-04
  23 |   0.240806E+00 |   0.277963E-04 |   0.669353E-05 |   0.298485E-04 |   0.153953E-02 |   0.100000E-04
  24 |   0.210703E+00 |   0.234677E-04 |   0.494471E-05 |   0.306951E-04 |   0.162810E-02 |   0.100000E-04
  25 |   0.241906E+00 |   0.116251E-04 |   0.281217E-05 |   0.217572E-04 |   0.817994E-03 |   0.100000E-04
  26 |   0.211588E+00 |   0.100132E-04 |   0.211867E-05 |   0.221718E-04 |   0.849469E-03 |   0.100000E-04
  27 |   0.243110E+00 |   0.505385E-05 |   0.122864E-05 |   0.159294E-04 |   0.438472E-03 |   0.100000E-04
  28 |   0.212520E+00 |   0.444942E-05 |   0.945590E-06 |   0.161123E-04 |   0.448598E-03 |   0.100000E-04
  29 |   0.244330E+00 |   0.229032E-05 |   0.559594E-06 |   0.116964E-04 |   0.236400E-03 |   0.100000E-04
  30 |   0.213425E+00 |   0.206152E-05 |   0.439981E-06 |   0.117652E-04 |   0.239190E-03 |   0.100000E-04
  31 |   0.245472E+00 |   0.108162E-05 |   0.265507E-06 |   0.860608E-05 |   0.127984E-03 |   0.100000E-04
  32 |   0.214241E+00 |   0.993905E-06 |   0.212936E-06 |   0.862475E-05 |   0.128540E-03 |   0.100000E-04
  33 |   0.246467E+00 |   0.530508E-06 |   0.130753E-06 |   0.634332E-05 |   0.695307E-04 |   0.100000E-04
  34 |   0.214930E+00 |   0.496333E-06 |   0.106677E-06 |   0.634355E-05 |   0.695359E-04 |   0.100000E-04
  35 |   0.247285E+00 |   0.268785E-06 |   0.664665E-07 |   0.468342E-05 |   0.379027E-04 |   0.100000E-04
  36 |   0.215484E+00 |   0.255208E-06 |   0.549932E-07 |   0.467928E-05 |   0.378357E-04 |   0.100000E-04
  37 |   0.247931E+00 |   0.139817E-06 |   0.346651E-07 |   0.346398E-05 |   0.207345E-04 |   0.100000E-04
  38 |   0.215914E+00 |   0.134306E-06 |   0.289986E-07 |   0.346068E-05 |   0.206951E-04 |   0.100000E-04
  39 |   0.248430E+00 |   0.742454E-07 |   0.184448E-07 |   0.256680E-05 |   0.113849E-04 |   0.100000E-04
  40 |   0.216244E+00 |   0.719590E-07 |   0.155607E-07 |   0.256560E-05 |   0.113742E-04 |   0.100000E-04
  41 |   0.248812E+00 |   0.400538E-07 |   0.996585E-08 |   0.190564E-05 |   0.627519E-05 |   0.100000E-04

 Charges are converged, EXIT

%%%% DENSITY %%%%%%%%%%%%%%%%%%%%%%%%%%%%%%%%%%%%%%%%%%%%%%%%%%%%%%%%%%%%%%%%%%%

 density label              = velectrostatic                                    

 integral of density        =   0.3405999762E-12

%%%% CHARGES %%%%%%%%%%%%%%%%%%%%%%%%%%%%%%%%%%%%%%%%%%%%%%%%%%%%%%%%%%%%%%%%%%%

 total number of charges    =             34

 total charge               =     -1.0000000

%%%% DENSITY %%%%%%%%%%%%%%%%%%%%%%%%%%%%%%%%%%%%%%%%%%%%%%%%%%%%%%%%%%%%%%%%%%%

 density label              = vsoftcavity                                       

 integral of density        =    71.30521976    

%%%% DENSITY %%%%%%%%%%%%%%%%%%%%%%%%%%%%%%%%%%%%%%%%%%%%%%%%%%%%%%%%%%%%%%%%%%%

 density label              = dvtot                                             

 integral of density        =    71.30521976    

%%%% ELECTRONS %%%%%%%%%%%%%%%%%%%%%%%%%%%%%%%%%%%%%%%%%%%%%%%%%%%%%%%%%%%%%%%%%

 number of electrons        =             24

 total electronic charge    =     24.0000000

%%%% ELECTRONS %%%%%%%%%%%%%%%%%%%%%%%%%%%%%%%%%%%%%%%%%%%%%%%%%%%%%%%%%%%%%%%%%

 number of electrons        =             24

 total electronic charge    =     24.0000000

%%%% CHARGES %%%%%%%%%%%%%%%%%%%%%%%%%%%%%%%%%%%%%%%%%%%%%%%%%%%%%%%%%%%%%%%%%%%

 total number of charges    =             34

 total charge               =     -1.0000000

%%%% CHARGES %%%%%%%%%%%%%%%%%%%%%%%%%%%%%%%%%%%%%%%%%%%%%%%%%%%%%%%%%%%%%%%%%%%

 total number of charges    =             34

 total charge               =     -1.0000000

%%%% BOUNDARY %%%%%%%%%%%%%%%%%%%%%%%%%%%%%%%%%%%%%%%%%%%%%%%%%%%%%%%%%%%%%%%%%%

 boundary label             = solvent             
 boundary mode              = electronic          

 boundary is built as a type-2 function of a smooth density

 using the modified SCCS function:
 rhomax                     =      0.0050000
 rhomin                     =      0.0001000

 volume of the QM region    =    821.6226620

 surface of the QM region   =    443.1627264

%%%% DENSITY %%%%%%%%%%%%%%%%%%%%%%%%%%%%%%%%%%%%%%%%%%%%%%%%%%%%%%%%%%%%%%%%%%%

 density label              = vreference                                        

 integral of density        =  -0.2344133118E-12

%%%% COMPUTE ELECTROSTATIC POTENTIAL %%%%%%%%%%%%%%%%%%%%%%%%%%%%%%%%%%%%%%%%%%%

 Warning: Bad guess with residual norm =   0.692420E+03, reset to no guess

   i |      alpha     |       pAp      |      rzold     |    delta_qm    |    delta_en    |       tol
 ---------------------------------------------------------------------------------------------------------
   1 |   0.971506E+00 |   0.953659E+02 |   0.926485E+02 |   0.195480E-01 |   0.660313E+03 |   0.100000E-04
   2 |   0.110972E+00 |   0.179237E+03 |   0.198904E+02 |   0.415632E-02 |   0.298513E+02 |   0.100000E-04
   3 |   0.214539E+00 |   0.120760E+01 |   0.259076E+00 |   0.217144E-02 |   0.814775E+01 |   0.100000E-04
   4 |   0.191951E+00 |   0.461606E+00 |   0.886057E-01 |   0.221041E-02 |   0.844286E+01 |   0.100000E-04
   5 |   0.200363E+00 |   0.252909E+00 |   0.506736E-01 |   0.130257E-02 |   0.293187E+01 |   0.100000E-04
   6 |   0.189226E+00 |   0.180312E+00 |   0.341196E-01 |   0.149558E-02 |   0.386513E+01 |   0.100000E-04
   7 |   0.198514E+00 |   0.105563E+00 |   0.209558E-01 |   0.866356E-03 |   0.129699E+01 |   0.100000E-04
   8 |   0.188234E+00 |   0.762998E-01 |   0.143622E-01 |   0.104132E-02 |   0.187374E+01 |   0.100000E-04
   9 |   0.197961E+00 |   0.450788E-01 |   0.892383E-02 |   0.609664E-03 |   0.642280E+00 |   0.100000E-04
  10 |   0.188060E+00 |   0.327968E-01 |   0.616778E-02 |   0.744310E-03 |   0.957308E+00 |   0.100000E-04
  11 |   0.198002E+00 |   0.195080E-01 |   0.386263E-02 |   0.448181E-03 |   0.347097E+00 |   0.100000E-04
  12 |   0.188240E+00 |   0.142917E-01 |   0.269027E-02 |   0.545112E-03 |   0.513470E+00 |   0.100000E-04
  13 |   0.198319E+00 |   0.856528E-02 |   0.169866E-02 |   0.340594E-03 |   0.200455E+00 |   0.100000E-04
  14 |   0.188616E+00 |   0.633022E-02 |   0.119398E-02 |   0.407857E-03 |   0.287448E+00 |   0.100000E-04
  15 |   0.198826E+00 |   0.383060E-02 |   0.761622E-03 |   0.265060E-03 |   0.121404E+00 |   0.100000E-04
  16 |   0.189153E+00 |   0.286388E-02 |   0.541712E-03 |   0.310664E-03 |   0.166773E+00 |   0.100000E-04
  17 |   0.199511E+00 |   0.175499E-02 |   0.350139E-03 |   0.209523E-03 |   0.758591E-01 |   0.100000E-04
  18 |   0.189851E+00 |   0.133186E-02 |   0.252855E-03 |   0.240028E-03 |   0.995560E-01 |   0.100000E-04
  19 |   0.200369E+00 |   0.829334E-03 |   0.166173E-03 |   0.167158E-03 |   0.482835E-01 |   0.100000E-04
  20 |   0.190694E+00 |   0.641160E-03 |   0.122265E-03 |   0.187485E-03 |   0.607400E-01 |   0.100000E-04
  21 |   0.201367E+00 |   0.406994E-03 |   0.819550E-04 |   0.133993E-03 |   0.310245E-01 |   0.100000E-04
  22 |   0.191634E+00 |   0.321485E-03 |   0.616073E-04 |   0.147624E-03 |   0.376582E-01 |   0.100000E-04
  23 |   0.202433E+00 |   0.208487E-03 |   0.422046E-04 |   0.107611E-03 |   0.200106E-01 |   0.100000E-04
  24 |   0.192593E+00 |   0.168504E-03 |   0.324526E-04 |   0.116907E-03 |   0.236169E-01 |   0.100000E-04
  25 |   0.203471E+00 |   0.111688E-03 |   0.227253E-04 |   0.864523E-04 |   0.129151E-01 |   0.100000E-04
  26 |   0.193484E+00 |   0.923061E-04 |   0.178597E-04 |   0.929514E-04 |   0.149299E-01 |   0.100000E-04
  27 |   0.204394E+00 |   0.624355E-04 |   0.127614E-04 |   0.694275E-04 |   0.832926E-02 |   0.100000E-04
  28 |   0.194243E+00 |   0.526343E-04 |   0.102238E-04 |   0.741080E-04 |   0.949018E-02 |   0.100000E-04
  29 |   0.205151E+00 |   0.362215E-04 |   0.743088E-05 |   0.557244E-04 |   0.536580E-02 |   0.100000E-04
  30 |   0.194844E+00 |   0.310355E-04 |   0.604706E-05 |   0.591971E-04 |   0.605542E-02 |   0.100000E-04
  31 |   0.205731E+00 |   0.216512E-04 |   0.445433E-05 |   0.447050E-04 |   0.345347E-02 |   0.100000E-04
  32 |   0.195292E+00 |   0.187837E-04 |   0.366831E-05 |   0.473501E-04 |   0.387423E-02 |   0.100000E-04
  33 |   0.206156E+00 |   0.132381E-04 |   0.272912E-05 |   0.358545E-04 |   0.222142E-02 |   0.100000E-04
  34 |   0.195614E+00 |   0.115898E-04 |   0.226713E-05 |   0.379121E-04 |   0.248370E-02 |   0.100000E-04
  35 |   0.206457E+00 |   0.822802E-05 |   0.169873E-05 |   0.287537E-04 |   0.142866E-02 |   0.100000E-04
  36 |   0.195841E+00 |   0.725006E-05 |   0.141986E-05 |   0.303793E-04 |   0.159477E-02 |   0.100000E-04
  37 |   0.206668E+00 |   0.517357E-05 |   0.106921E-05 |   0.230610E-04 |   0.918969E-03 |   0.100000E-04
  38 |   0.196000E+00 |   0.457923E-05 |   0.897528E-06 |   0.243595E-04 |   0.102537E-02 |   0.100000E-04
  39 |   0.206816E+00 |   0.327942E-05 |   0.678237E-06 |   0.184994E-04 |   0.591370E-03 |   0.100000E-04
  40 |   0.196112E+00 |   0.291185E-05 |   0.571050E-06 |   0.195443E-04 |   0.660058E-03 |   0.100000E-04
  41 |   0.206922E+00 |   0.209061E-05 |   0.432593E-06 |   0.148448E-04 |   0.380798E-03 |   0.100000E-04
  42 |   0.196194E+00 |   0.186047E-05 |   0.365013E-06 |   0.156897E-04 |   0.425376E-03 |   0.100000E-04
  43 |   0.207001E+00 |   0.133819E-05 |   0.277008E-06 |   0.119170E-04 |   0.245401E-03 |   0.100000E-04
  44 |   0.196256E+00 |   0.119286E-05 |   0.234106E-06 |   0.126023E-04 |   0.274436E-03 |   0.100000E-04
  45 |   0.207062E+00 |   0.859179E-06 |   0.177904E-06 |   0.957098E-05 |   0.158291E-03 |   0.100000E-04
  46 |   0.196305E+00 |   0.766847E-06 |   0.150536E-06 |   0.101279E-04 |   0.177249E-03 |   0.100000E-04
  47 |   0.207112E+00 |   0.552938E-06 |   0.114520E-06 |   0.769069E-05 |   0.102205E-03 |   0.100000E-04
  48 |   0.196347E+00 |   0.494029E-06 |   0.970009E-07 |   0.814388E-05 |   0.114606E-03 |   0.100000E-04
  49 |   0.207155E+00 |   0.356545E-06 |   0.738601E-07 |   0.618314E-05 |   0.660636E-04 |   0.100000E-04
  50 |   0.196383E+00 |   0.318843E-06 |   0.626154E-07 |   0.655218E-05 |   0.741850E-04 |   0.100000E-04
  51 |   0.207194E+00 |   0.230295E-06 |   0.477158E-07 |   0.497395E-05 |   0.427510E-04 |   0.100000E-04
  52 |   0.196417E+00 |   0.206108E-06 |   0.404831E-07 |   0.527459E-05 |   0.480753E-04 |   0.100000E-04
  53 |   0.207230E+00 |   0.148978E-06 |   0.308727E-07 |   0.400362E-05 |   0.276980E-04 |   0.100000E-04
  54 |   0.196449E+00 |   0.133431E-06 |   0.262123E-07 |   0.424859E-05 |   0.311914E-04 |   0.100000E-04
  55 |   0.207266E+00 |   0.965125E-07 |   0.200037E-07 |   0.322457E-05 |   0.179674E-04 |   0.100000E-04
  56 |   0.196480E+00 |   0.865028E-07 |   0.169961E-07 |   0.342420E-05 |   0.202611E-04 |   0.100000E-04
  57 |   0.207300E+00 |   0.626111E-07 |   0.129793E-07 |   0.259875E-05 |   0.116701E-04 |   0.100000E-04
  58 |   0.196511E+00 |   0.561569E-07 |   0.110354E-07 |   0.276144E-05 |   0.131770E-04 |   0.100000E-04
  59 |   0.207334E+00 |   0.406736E-07 |   0.843304E-08 |   0.209576E-05 |   0.758971E-05 |   0.100000E-04

 Charges are converged, EXIT

%%%% DENSITY %%%%%%%%%%%%%%%%%%%%%%%%%%%%%%%%%%%%%%%%%%%%%%%%%%%%%%%%%%%%%%%%%%%

 density label              = velectrostatic                                    

 integral of density        =  -0.3727059813E-12

%%%% CHARGES %%%%%%%%%%%%%%%%%%%%%%%%%%%%%%%%%%%%%%%%%%%%%%%%%%%%%%%%%%%%%%%%%%%

 total number of charges    =             34

 total charge               =     -1.0000000

%%%% DENSITY %%%%%%%%%%%%%%%%%%%%%%%%%%%%%%%%%%%%%%%%%%%%%%%%%%%%%%%%%%%%%%%%%%%

 density label              = vsoftcavity                                       

 integral of density        =    48.40543242    

%%%% DENSITY %%%%%%%%%%%%%%%%%%%%%%%%%%%%%%%%%%%%%%%%%%%%%%%%%%%%%%%%%%%%%%%%%%%

 density label              = dvtot                                             

 integral of density        =    48.40543242    

%%%% ELECTRONS %%%%%%%%%%%%%%%%%%%%%%%%%%%%%%%%%%%%%%%%%%%%%%%%%%%%%%%%%%%%%%%%%

 number of electrons        =             24

 total electronic charge    =     24.0000000

%%%% ELECTRONS %%%%%%%%%%%%%%%%%%%%%%%%%%%%%%%%%%%%%%%%%%%%%%%%%%%%%%%%%%%%%%%%%

 number of electrons        =             24

 total electronic charge    =     24.0000000

%%%% CHARGES %%%%%%%%%%%%%%%%%%%%%%%%%%%%%%%%%%%%%%%%%%%%%%%%%%%%%%%%%%%%%%%%%%%

 total number of charges    =             34

 total charge               =     -1.0000000

%%%% CHARGES %%%%%%%%%%%%%%%%%%%%%%%%%%%%%%%%%%%%%%%%%%%%%%%%%%%%%%%%%%%%%%%%%%%

 total number of charges    =             34

 total charge               =     -1.0000000

%%%% BOUNDARY %%%%%%%%%%%%%%%%%%%%%%%%%%%%%%%%%%%%%%%%%%%%%%%%%%%%%%%%%%%%%%%%%%

 boundary label             = solvent             
 boundary mode              = electronic          

 boundary is built as a type-2 function of a smooth density

 using the modified SCCS function:
 rhomax                     =      0.0050000
 rhomin                     =      0.0001000

 volume of the QM region    =    753.8451124

 surface of the QM region   =    423.4688741

%%%% DENSITY %%%%%%%%%%%%%%%%%%%%%%%%%%%%%%%%%%%%%%%%%%%%%%%%%%%%%%%%%%%%%%%%%%%

 density label              = vreference                                        

 integral of density        =  -0.4429049720E-12

%%%% COMPUTE ELECTROSTATIC POTENTIAL %%%%%%%%%%%%%%%%%%%%%%%%%%%%%%%%%%%%%%%%%%%

 Warning: Bad guess with residual norm =   0.956450E+03, reset to no guess

   i |      alpha     |       pAp      |      rzold     |    delta_qm    |    delta_en    |       tol
 ---------------------------------------------------------------------------------------------------------
   1 |   0.973311E+00 |   0.960507E+02 |   0.934872E+02 |   0.229745E-01 |   0.912089E+03 |   0.100000E-04
   2 |   0.982175E-01 |   0.219240E+03 |   0.215332E+02 |   0.450847E-02 |   0.351239E+02 |   0.100000E-04
   3 |   0.207412E+00 |   0.134021E+01 |   0.277976E+00 |   0.218528E-02 |   0.825201E+01 |   0.100000E-04
   4 |   0.184878E+00 |   0.435332E+00 |   0.804833E-01 |   0.239544E-02 |   0.991553E+01 |   0.100000E-04
   5 |   0.171697E+00 |   0.300373E+00 |   0.515730E-01 |   0.134854E-02 |   0.314246E+01 |   0.100000E-04
   6 |   0.180081E+00 |   0.181133E+00 |   0.326186E-01 |   0.169144E-02 |   0.494375E+01 |   0.100000E-04
   7 |   0.170529E+00 |   0.136418E+00 |   0.232632E-01 |   0.962529E-03 |   0.160092E+01 |   0.100000E-04
   8 |   0.179370E+00 |   0.838850E-01 |   0.150465E-01 |   0.123079E-02 |   0.261766E+01 |   0.100000E-04
   9 |   0.170226E+00 |   0.637275E-01 |   0.108481E-01 |   0.724027E-03 |   0.905845E+00 |   0.100000E-04
  10 |   0.179294E+00 |   0.394836E-01 |   0.707917E-02 |   0.921029E-03 |   0.146585E+01 |   0.100000E-04
  11 |   0.170318E+00 |   0.302056E-01 |   0.514457E-02 |   0.566334E-03 |   0.554228E+00 |   0.100000E-04
  12 |   0.179525E+00 |   0.188538E-01 |   0.338473E-02 |   0.706886E-03 |   0.863461E+00 |   0.100000E-04
  13 |   0.170620E+00 |   0.145451E-01 |   0.248169E-02 |   0.455850E-03 |   0.359077E+00 |   0.100000E-04
  14 |   0.179952E+00 |   0.916294E-02 |   0.164889E-02 |   0.554524E-03 |   0.531355E+00 |   0.100000E-04
  15 |   0.171084E+00 |   0.714726E-02 |   0.122278E-02 |   0.374240E-03 |   0.242016E+00 |   0.100000E-04
  16 |   0.180553E+00 |   0.455732E-02 |   0.822840E-03 |   0.442920E-03 |   0.338996E+00 |   0.100000E-04
  17 |   0.171704E+00 |   0.360657E-02 |   0.619262E-03 |   0.311129E-03 |   0.167272E+00 |   0.100000E-04
  18 |   0.181326E+00 |   0.233579E-02 |   0.423540E-03 |   0.358860E-03 |   0.222533E+00 |   0.100000E-04
  19 |   0.172471E+00 |   0.188255E-02 |   0.324686E-03 |   0.260540E-03 |   0.117299E+00 |   0.100000E-04
  20 |   0.182247E+00 |   0.124276E-02 |   0.226488E-03 |   0.293928E-03 |   0.149288E+00 |   0.100000E-04
  21 |   0.173347E+00 |   0.102351E-02 |   0.177423E-03 |   0.218970E-03 |   0.828538E-01 |   0.100000E-04
  22 |   0.183253E+00 |   0.690536E-03 |   0.126543E-03 |   0.242673E-03 |   0.101762E+00 |   0.100000E-04
  23 |   0.174261E+00 |   0.582301E-03 |   0.101473E-03 |   0.184291E-03 |   0.586884E-01 |   0.100000E-04
  24 |   0.184254E+00 |   0.401877E-03 |   0.740476E-04 |   0.201499E-03 |   0.701602E-01 |   0.100000E-04
  25 |   0.175127E+00 |   0.346934E-03 |   0.607576E-04 |   0.155136E-03 |   0.415882E-01 |   0.100000E-04
  26 |   0.185159E+00 |   0.244638E-03 |   0.452970E-04 |   0.167974E-03 |   0.487559E-01 |   0.100000E-04
  27 |   0.175875E+00 |   0.215717E-03 |   0.379393E-04 |   0.130553E-03 |   0.294520E-01 |   0.100000E-04
  28 |   0.185908E+00 |   0.154958E-03 |   0.288080E-04 |   0.140404E-03 |   0.340645E-01 |   0.100000E-04
  29 |   0.176470E+00 |   0.139057E-03 |   0.245394E-04 |   0.109816E-03 |   0.208389E-01 |   0.100000E-04
  30 |   0.186484E+00 |   0.101375E-03 |   0.189048E-04 |   0.117573E-03 |   0.238867E-01 |   0.100000E-04
  31 |   0.176913E+00 |   0.922061E-04 |   0.163125E-04 |   0.923375E-04 |   0.147333E-01 |   0.100000E-04
  32 |   0.186902E+00 |   0.679623E-04 |   0.127023E-04 |   0.985754E-04 |   0.167912E-01 |   0.100000E-04
  33 |   0.177228E+00 |   0.624233E-04 |   0.110632E-04 |   0.776202E-04 |   0.104110E-01 |   0.100000E-04
  34 |   0.187194E+00 |   0.463705E-04 |   0.868028E-05 |   0.827175E-04 |   0.118233E-01 |   0.100000E-04
  35 |   0.177444E+00 |   0.428827E-04 |   0.760930E-05 |   0.652392E-04 |   0.735464E-02 |   0.100000E-04
  36 |   0.187392E+00 |   0.320262E-04 |   0.600146E-05 |   0.694520E-04 |   0.833516E-02 |   0.100000E-04
  37 |   0.177590E+00 |   0.297548E-04 |   0.528417E-05 |   0.548305E-04 |   0.519503E-02 |   0.100000E-04
  38 |   0.187525E+00 |   0.223022E-04 |   0.418223E-05 |   0.583395E-04 |   0.588124E-02 |   0.100000E-04
  39 |   0.177688E+00 |   0.207849E-04 |   0.369323E-05 |   0.460836E-04 |   0.366975E-02 |   0.100000E-04
  40 |   0.187614E+00 |   0.156166E-04 |   0.292989E-05 |   0.490215E-04 |   0.415257E-02 |   0.100000E-04
  41 |   0.177753E+00 |   0.145843E-04 |   0.259241E-05 |   0.387351E-04 |   0.259271E-02 |   0.100000E-04
  42 |   0.187674E+00 |   0.109755E-04 |   0.205982E-05 |   0.412031E-04 |   0.293361E-02 |   0.100000E-04
  43 |   0.177798E+00 |   0.102643E-04 |   0.182497E-05 |   0.325620E-04 |   0.183218E-02 |   0.100000E-04
  44 |   0.187715E+00 |   0.773286E-05 |   0.145157E-05 |   0.346397E-04 |   0.207344E-02 |   0.100000E-04
  45 |   0.177828E+00 |   0.723864E-05 |   0.128724E-05 |   0.273765E-04 |   0.129509E-02 |   0.100000E-04
  46 |   0.187744E+00 |   0.545751E-05 |   0.102461E-05 |   0.291279E-04 |   0.146609E-02 |   0.100000E-04
  47 |   0.177850E+00 |   0.511210E-05 |   0.909188E-06 |   0.230202E-04 |   0.915718E-03 |   0.100000E-04
  48 |   0.187765E+00 |   0.385628E-05 |   0.724073E-06 |   0.244979E-04 |   0.103705E-02 |   0.100000E-04
  49 |   0.177866E+00 |   0.361395E-05 |   0.642800E-06 |   0.193602E-04 |   0.647687E-03 |   0.100000E-04
  50 |   0.187780E+00 |   0.272724E-05 |   0.512122E-06 |   0.206076E-04 |   0.733834E-03 |   0.100000E-04
  51 |   0.177879E+00 |   0.255678E-05 |   0.454798E-06 |   0.162849E-04 |   0.458263E-03 |   0.100000E-04
  52 |   0.187793E+00 |   0.193004E-05 |   0.362449E-06 |   0.173382E-04 |   0.519457E-03 |   0.100000E-04
  53 |   0.177889E+00 |   0.180994E-05 |   0.321969E-06 |   0.137005E-04 |   0.324350E-03 |   0.100000E-04
  54 |   0.187804E+00 |   0.136661E-05 |   0.256655E-06 |   0.145900E-04 |   0.367835E-03 |   0.100000E-04
  55 |   0.177898E+00 |   0.128188E-05 |   0.228044E-06 |   0.115282E-04 |   0.229649E-03 |   0.100000E-04
  56 |   0.187813E+00 |   0.968099E-06 |   0.181822E-06 |   0.122795E-04 |   0.260558E-03 |   0.100000E-04
  57 |   0.177906E+00 |   0.908264E-06 |   0.161586E-06 |   0.970204E-05 |   0.162656E-03 |   0.100000E-04
  58 |   0.187822E+00 |   0.686070E-06 |   0.128859E-06 |   0.103367E-04 |   0.184631E-03 |   0.100000E-04
  59 |   0.177914E+00 |   0.643789E-06 |   0.114539E-06 |   0.816663E-05 |   0.115247E-03 |   0.100000E-04
  60 |   0.187830E+00 |   0.486380E-06 |   0.913567E-07 |   0.870271E-05 |   0.130874E-03 |   0.100000E-04
  61 |   0.177921E+00 |   0.456488E-06 |   0.812187E-07 |   0.687544E-05 |   0.816854E-04 |   0.100000E-04
  62 |   0.187837E+00 |   0.344932E-06 |   0.647912E-07 |   0.732828E-05 |   0.927999E-04 |   0.100000E-04
  63 |   0.177928E+00 |   0.323789E-06 |   0.576109E-07 |   0.578943E-05 |   0.579183E-04 |   0.100000E-04
  64 |   0.187845E+00 |   0.244701E-06 |   0.459658E-07 |   0.617195E-05 |   0.658247E-04 |   0.100000E-04
  65 |   0.177934E+00 |   0.229740E-06 |   0.408785E-07 |   0.487585E-05 |   0.410813E-04 |   0.100000E-04
  66 |   0.187852E+00 |   0.173651E-06 |   0.326208E-07 |   0.519896E-05 |   0.467065E-04 |   0.100000E-04
  67 |   0.177941E+00 |   0.163061E-06 |   0.290152E-07 |   0.410717E-05 |   0.291494E-04 |   0.100000E-04
  68 |   0.187860E+00 |   0.123271E-06 |   0.231576E-07 |   0.438010E-05 |   0.331522E-04 |   0.100000E-04
  69 |   0.177947E+00 |   0.115772E-06 |   0.206013E-07 |   0.346030E-05 |   0.206906E-04 |   0.100000E-04
  70 |   0.187867E+00 |   0.875347E-07 |   0.164449E-07 |   0.369085E-05 |   0.235394E-04 |   0.100000E-04
  71 |   0.177954E+00 |   0.822232E-07 |   0.146319E-07 |   0.291585E-05 |   0.146918E-04 |   0.100000E-04
  72 |   0.187874E+00 |   0.621783E-07 |   0.116817E-07 |   0.311059E-05 |   0.167197E-04 |   0.100000E-04
  73 |   0.177961E+00 |   0.584149E-07 |   0.103956E-07 |   0.245751E-05 |   0.104360E-04 |   0.100000E-04
  74 |   0.187882E+00 |   0.441810E-07 |   0.830081E-08 |   0.262200E-05 |   0.118798E-04 |   0.100000E-04
  75 |   0.177967E+00 |   0.415137E-07 |   0.738809E-08 |   0.207160E-05 |   0.741577E-05 |   0.100000E-04

 Charges are converged, EXIT

%%%% DENSITY %%%%%%%%%%%%%%%%%%%%%%%%%%%%%%%%%%%%%%%%%%%%%%%%%%%%%%%%%%%%%%%%%%%

 density label              = velectrostatic                                    

 integral of density        =  -0.2947436534E-12

%%%% CHARGES %%%%%%%%%%%%%%%%%%%%%%%%%%%%%%%%%%%%%%%%%%%%%%%%%%%%%%%%%%%%%%%%%%%

 total number of charges    =             34

 total charge               =     -1.0000000

%%%% DENSITY %%%%%%%%%%%%%%%%%%%%%%%%%%%%%%%%%%%%%%%%%%%%%%%%%%%%%%%%%%%%%%%%%%%

 density label              = vsoftcavity                                       

 integral of density        =    37.62095331    

%%%% DENSITY %%%%%%%%%%%%%%%%%%%%%%%%%%%%%%%%%%%%%%%%%%%%%%%%%%%%%%%%%%%%%%%%%%%

 density label              = dvtot                                             

 integral of density        =    37.62095331    

%%%% ELECTRONS %%%%%%%%%%%%%%%%%%%%%%%%%%%%%%%%%%%%%%%%%%%%%%%%%%%%%%%%%%%%%%%%%

 number of electrons        =             24

 total electronic charge    =     24.0000000

%%%% ELECTRONS %%%%%%%%%%%%%%%%%%%%%%%%%%%%%%%%%%%%%%%%%%%%%%%%%%%%%%%%%%%%%%%%%

 number of electrons        =             24

 total electronic charge    =     24.0000000

%%%% CHARGES %%%%%%%%%%%%%%%%%%%%%%%%%%%%%%%%%%%%%%%%%%%%%%%%%%%%%%%%%%%%%%%%%%%

 total number of charges    =             34

 total charge               =     -1.0000000

%%%% CHARGES %%%%%%%%%%%%%%%%%%%%%%%%%%%%%%%%%%%%%%%%%%%%%%%%%%%%%%%%%%%%%%%%%%%

 total number of charges    =             34

 total charge               =     -1.0000000

%%%% BOUNDARY %%%%%%%%%%%%%%%%%%%%%%%%%%%%%%%%%%%%%%%%%%%%%%%%%%%%%%%%%%%%%%%%%%

 boundary label             = solvent             
 boundary mode              = electronic          

 boundary is built as a type-2 function of a smooth density

 using the modified SCCS function:
 rhomax                     =      0.0050000
 rhomin                     =      0.0001000

 volume of the QM region    =    715.6644757

 surface of the QM region   =    412.2785326

%%%% DENSITY %%%%%%%%%%%%%%%%%%%%%%%%%%%%%%%%%%%%%%%%%%%%%%%%%%%%%%%%%%%%%%%%%%%

 density label              = vreference                                        

 integral of density        =   0.4891560408E-12

%%%% COMPUTE ELECTROSTATIC POTENTIAL %%%%%%%%%%%%%%%%%%%%%%%%%%%%%%%%%%%%%%%%%%%

 Warning: Bad guess with residual norm =   0.146382E+04, reset to no guess

   i |      alpha     |       pAp      |      rzold     |    delta_qm    |    delta_en    |       tol
 ---------------------------------------------------------------------------------------------------------
   1 |   0.972948E+00 |   0.960005E+02 |   0.934035E+02 |   0.283810E-01 |   0.139187E+04 |   0.100000E-04
   2 |   0.908680E-01 |   0.260689E+03 |   0.236883E+02 |   0.533570E-02 |   0.491956E+02 |   0.100000E-04
   3 |   0.185327E+00 |   0.182451E+01 |   0.338131E+00 |   0.238143E-02 |   0.979986E+01 |   0.100000E-04
   4 |   0.170081E+00 |   0.530118E+00 |   0.901632E-01 |   0.281284E-02 |   0.136720E+02 |   0.100000E-04
   5 |   0.159189E+00 |   0.370374E+00 |   0.589594E-01 |   0.151051E-02 |   0.394265E+01 |   0.100000E-04
   6 |   0.166644E+00 |   0.230585E+00 |   0.384257E-01 |   0.204113E-02 |   0.719918E+01 |   0.100000E-04
   7 |   0.158307E+00 |   0.177611E+00 |   0.281171E-01 |   0.111905E-02 |   0.216393E+01 |   0.100000E-04
   8 |   0.166120E+00 |   0.112961E+00 |   0.187651E-01 |   0.152453E-02 |   0.401618E+01 |   0.100000E-04
   9 |   0.158103E+00 |   0.877939E-01 |   0.138805E-01 |   0.874073E-03 |   0.132020E+01 |   0.100000E-04
  10 |   0.166095E+00 |   0.562267E-01 |   0.933894E-02 |   0.117098E-02 |   0.236943E+01 |   0.100000E-04
  11 |   0.158200E+00 |   0.439701E-01 |   0.695609E-02 |   0.708705E-03 |   0.867910E+00 |   0.100000E-04
  12 |   0.166296E+00 |   0.283400E-01 |   0.471282E-02 |   0.922429E-03 |   0.147031E+01 |   0.100000E-04
  13 |   0.158451E+00 |   0.223214E-01 |   0.353685E-02 |   0.590091E-03 |   0.601703E+00 |   0.100000E-04
  14 |   0.166642E+00 |   0.144997E-01 |   0.241625E-02 |   0.742669E-03 |   0.953090E+00 |   0.100000E-04
  15 |   0.158827E+00 |   0.115276E-01 |   0.183089E-02 |   0.500266E-03 |   0.432459E+00 |   0.100000E-04
  16 |   0.167127E+00 |   0.756579E-02 |   0.126445E-02 |   0.608846E-03 |   0.640558E+00 |   0.100000E-04
  17 |   0.159334E+00 |   0.609009E-02 |   0.970358E-03 |   0.428962E-03 |   0.317966E+00 |   0.100000E-04
  18 |   0.167763E+00 |   0.405156E-02 |   0.679703E-03 |   0.506384E-03 |   0.443101E+00 |   0.100000E-04
  19 |   0.159979E+00 |   0.331407E-02 |   0.530180E-03 |   0.370224E-03 |   0.236850E+00 |   0.100000E-04
  20 |   0.168547E+00 |   0.224279E-02 |   0.378016E-03 |   0.425876E-03 |   0.313408E+00 |   0.100000E-04
  21 |   0.160745E+00 |   0.187104E-02 |   0.300759E-03 |   0.320564E-03 |   0.177571E+00 |   0.100000E-04
  22 |   0.169442E+00 |   0.129218E-02 |   0.218949E-03 |   0.361169E-03 |   0.225405E+00 |   0.100000E-04
  23 |   0.161583E+00 |   0.110250E-02 |   0.178145E-03 |   0.277896E-03 |   0.133447E+00 |   0.100000E-04
  24 |   0.170380E+00 |   0.778496E-03 |   0.132640E-03 |   0.308165E-03 |   0.164101E+00 |   0.100000E-04
  25 |   0.162420E+00 |   0.680024E-03 |   0.110450E-03 |   0.240926E-03 |   0.100302E+00 |   0.100000E-04
  26 |   0.171273E+00 |   0.490935E-03 |   0.840837E-04 |   0.264086E-03 |   0.120513E+00 |   0.100000E-04
  27 |   0.163181E+00 |   0.438546E-03 |   0.715624E-04 |   0.208787E-03 |   0.753267E-01 |   0.100000E-04
  28 |   0.172049E+00 |   0.323041E-03 |   0.555789E-04 |   0.227002E-03 |   0.890440E-01 |   0.100000E-04
  29 |   0.163815E+00 |   0.294238E-03 |   0.482006E-04 |   0.180838E-03 |   0.565098E-01 |   0.100000E-04
  30 |   0.172672E+00 |   0.220406E-03 |   0.380579E-04 |   0.195539E-03 |   0.660708E-01 |   0.100000E-04
  31 |   0.164306E+00 |   0.203910E-03 |   0.335036E-04 |   0.156559E-03 |   0.423547E-01 |   0.100000E-04
  32 |   0.173140E+00 |   0.154739E-03 |   0.267914E-04 |   0.168683E-03 |   0.491684E-01 |   0.100000E-04
  33 |   0.164665E+00 |   0.144844E-03 |   0.238508E-04 |   0.135498E-03 |   0.317253E-01 |   0.100000E-04
  34 |   0.173474E+00 |   0.110965E-03 |   0.192495E-04 |   0.145664E-03 |   0.366649E-01 |   0.100000E-04
  35 |   0.164917E+00 |   0.104743E-03 |   0.172739E-04 |   0.117249E-03 |   0.237555E-01 |   0.100000E-04
  36 |   0.173706E+00 |   0.807798E-04 |   0.140320E-04 |   0.125879E-03 |   0.273811E-01 |   0.100000E-04
  37 |   0.165090E+00 |   0.766938E-04 |   0.126614E-04 |   0.101453E-03 |   0.177858E-01 |   0.100000E-04
  38 |   0.173864E+00 |   0.594181E-04 |   0.103307E-04 |   0.108840E-03 |   0.204701E-01 |   0.100000E-04
  39 |   0.165207E+00 |   0.566350E-04 |   0.935649E-05 |   0.877878E-04 |   0.133172E-01 |   0.100000E-04
  40 |   0.173970E+00 |   0.440128E-04 |   0.765688E-05 |   0.941457E-04 |   0.153160E-01 |   0.100000E-04
  41 |   0.165285E+00 |   0.420622E-04 |   0.695226E-05 |   0.759700E-04 |   0.997306E-02 |   0.100000E-04
  42 |   0.174041E+00 |   0.327553E-04 |   0.570077E-05 |   0.814623E-04 |   0.114672E-01 |   0.100000E-04
  43 |   0.165338E+00 |   0.313594E-04 |   0.518490E-05 |   0.657515E-04 |   0.747059E-02 |   0.100000E-04
  44 |   0.174089E+00 |   0.244546E-04 |   0.425729E-05 |   0.705069E-04 |   0.859028E-02 |   0.100000E-04
  45 |   0.165374E+00 |   0.234406E-04 |   0.387648E-05 |   0.569160E-04 |   0.559773E-02 |   0.100000E-04
  46 |   0.174123E+00 |   0.182968E-04 |   0.318589E-05 |   0.610394E-04 |   0.643819E-02 |   0.100000E-04
  47 |   0.165400E+00 |   0.175527E-04 |   0.290321E-05 |   0.492758E-04 |   0.419577E-02 |   0.100000E-04
  48 |   0.174147E+00 |   0.137100E-04 |   0.238755E-05 |   0.528544E-04 |   0.482731E-02 |   0.100000E-04
  49 |   0.165418E+00 |   0.131601E-04 |   0.217692E-05 |   0.426685E-04 |   0.314600E-02 |   0.100000E-04
  50 |   0.174164E+00 |   0.102840E-04 |   0.179110E-05 |   0.457758E-04 |   0.362089E-02 |   0.100000E-04
  51 |   0.165432E+00 |   0.987576E-05 |   0.163376E-05 |   0.369535E-04 |   0.235969E-02 |   0.100000E-04
  52 |   0.174177E+00 |   0.772014E-05 |   0.134467E-05 |   0.396525E-04 |   0.271696E-02 |   0.100000E-04
  53 |   0.165442E+00 |   0.741611E-05 |   0.122694E-05 |   0.320095E-04 |   0.177052E-02 |   0.100000E-04
  54 |   0.174188E+00 |   0.579897E-05 |   0.101011E-05 |   0.343541E-04 |   0.203940E-02 |   0.100000E-04
  55 |   0.165451E+00 |   0.557204E-05 |   0.921900E-06 |   0.277316E-04 |   0.132891E-02 |   0.100000E-04
  56 |   0.174197E+00 |   0.435798E-05 |   0.759146E-06 |   0.297686E-04 |   0.153130E-02 |   0.100000E-04
  57 |   0.165458E+00 |   0.418834E-05 |   0.692996E-06 |   0.240295E-04 |   0.997777E-03 |   0.100000E-04
  58 |   0.174205E+00 |   0.327638E-05 |   0.570761E-06 |   0.257993E-04 |   0.115016E-02 |   0.100000E-04
  59 |   0.165465E+00 |   0.314943E-05 |   0.521120E-06 |   0.208250E-04 |   0.749400E-03 |   0.100000E-04
  60 |   0.174211E+00 |   0.246409E-05 |   0.429272E-06 |   0.223626E-04 |   0.864146E-03 |   0.100000E-04
  61 |   0.165471E+00 |   0.236899E-05 |   0.391999E-06 |   0.180507E-04 |   0.563031E-03 |   0.100000E-04
  62 |   0.174218E+00 |   0.185376E-05 |   0.322957E-06 |   0.193865E-04 |   0.649446E-03 |   0.100000E-04
  63 |   0.165476E+00 |   0.178249E-05 |   0.294959E-06 |   0.156484E-04 |   0.423142E-03 |   0.100000E-04
  64 |   0.174223E+00 |   0.139500E-05 |   0.243042E-06 |   0.168089E-04 |   0.488228E-03 |   0.100000E-04
  65 |   0.165481E+00 |   0.134155E-05 |   0.222002E-06 |   0.135679E-04 |   0.318105E-03 |   0.100000E-04
  66 |   0.174229E+00 |   0.105006E-05 |   0.182950E-06 |   0.145760E-04 |   0.367133E-03 |   0.100000E-04
  67 |   0.165486E+00 |   0.100996E-05 |   0.167134E-06 |   0.117657E-04 |   0.239212E-03 |   0.100000E-04
  68 |   0.174234E+00 |   0.790606E-06 |   0.137750E-06 |   0.126415E-04 |   0.276147E-03 |   0.100000E-04
  69 |   0.165491E+00 |   0.760510E-06 |   0.125857E-06 |   0.102044E-04 |   0.179937E-03 |   0.100000E-04
  70 |   0.174239E+00 |   0.595406E-06 |   0.103743E-06 |   0.109651E-04 |   0.207764E-03 |   0.100000E-04
  71 |   0.165495E+00 |   0.572810E-06 |   0.947973E-07 |   0.885150E-05 |   0.135387E-03 |   0.100000E-04
  72 |   0.174244E+00 |   0.448505E-06 |   0.781494E-07 |   0.951228E-05 |   0.156355E-03 |   0.100000E-04
  73 |   0.165500E+00 |   0.431534E-06 |   0.714188E-07 |   0.767901E-05 |   0.101895E-03 |   0.100000E-04
  74 |   0.174249E+00 |   0.337925E-06 |   0.588830E-07 |   0.825296E-05 |   0.117696E-03 |   0.100000E-04
  75 |   0.165504E+00 |   0.325175E-06 |   0.538177E-07 |   0.666271E-05 |   0.767090E-04 |   0.100000E-04
  76 |   0.174253E+00 |   0.254664E-06 |   0.443762E-07 |   0.716123E-05 |   0.886175E-04 |   0.100000E-04
  77 |   0.165508E+00 |   0.245083E-06 |   0.405632E-07 |   0.578167E-05 |   0.577632E-04 |   0.100000E-04
  78 |   0.174258E+00 |   0.191960E-06 |   0.334505E-07 |   0.621467E-05 |   0.667389E-04 |   0.100000E-04
  79 |   0.165512E+00 |   0.184757E-06 |   0.305796E-07 |   0.501777E-05 |   0.435077E-04 |   0.100000E-04
  80 |   0.174262E+00 |   0.144725E-06 |   0.252200E-07 |   0.539385E-05 |   0.502737E-04 |   0.100000E-04
  81 |   0.165516E+00 |   0.139309E-06 |   0.230579E-07 |   0.435535E-05 |   0.327785E-04 |   0.100000E-04
  82 |   0.174267E+00 |   0.109135E-06 |   0.190186E-07 |   0.468197E-05 |   0.378793E-04 |   0.100000E-04
  83 |   0.165520E+00 |   0.105062E-06 |   0.173899E-07 |   0.378083E-05 |   0.247012E-04 |   0.100000E-04
  84 |   0.174271E+00 |   0.823139E-07 |   0.143449E-07 |   0.406451E-05 |   0.285470E-04 |   0.100000E-04
  85 |   0.165524E+00 |   0.792503E-07 |   0.131178E-07 |   0.328249E-05 |   0.186188E-04 |   0.100000E-04
  86 |   0.174275E+00 |   0.620968E-07 |   0.108219E-07 |   0.352887E-05 |   0.215187E-04 |   0.100000E-04
  87 |   0.165527E+00 |   0.597916E-07 |   0.989716E-08 |   0.285017E-05 |   0.140374E-04 |   0.100000E-04
  88 |   0.174279E+00 |   0.468543E-07 |   0.816575E-08 |   0.306415E-05 |   0.162243E-04 |   0.100000E-04
  89 |   0.165531E+00 |   0.451195E-07 |   0.746868E-08 |   0.247508E-05 |   0.105858E-04 |   0.100000E-04
  90 |   0.174284E+00 |   0.353602E-07 |   0.616269E-08 |   0.266092E-05 |   0.122351E-04 |   0.100000E-04
  91 |   0.165535E+00 |   0.340542E-07 |   0.563716E-08 |   0.214959E-05 |   0.798465E-05 |   0.100000E-04

 Charges are converged, EXIT

%%%% DENSITY %%%%%%%%%%%%%%%%%%%%%%%%%%%%%%%%%%%%%%%%%%%%%%%%%%%%%%%%%%%%%%%%%%%

 density label              = velectrostatic                                    

 integral of density        =   0.1267463500E-11

%%%% CHARGES %%%%%%%%%%%%%%%%%%%%%%%%%%%%%%%%%%%%%%%%%%%%%%%%%%%%%%%%%%%%%%%%%%%

 total number of charges    =             34

 total charge               =     -1.0000000

%%%% DENSITY %%%%%%%%%%%%%%%%%%%%%%%%%%%%%%%%%%%%%%%%%%%%%%%%%%%%%%%%%%%%%%%%%%%

 density label              = vsoftcavity                                       

 integral of density        =    33.47141376    

%%%% DENSITY %%%%%%%%%%%%%%%%%%%%%%%%%%%%%%%%%%%%%%%%%%%%%%%%%%%%%%%%%%%%%%%%%%%

 density label              = dvtot                                             

 integral of density        =    33.47141376    

%%%% ELECTRONS %%%%%%%%%%%%%%%%%%%%%%%%%%%%%%%%%%%%%%%%%%%%%%%%%%%%%%%%%%%%%%%%%

 number of electrons        =             24

 total electronic charge    =     24.0000000

%%%% ELECTRONS %%%%%%%%%%%%%%%%%%%%%%%%%%%%%%%%%%%%%%%%%%%%%%%%%%%%%%%%%%%%%%%%%

 number of electrons        =             24

 total electronic charge    =     24.0000000

%%%% CHARGES %%%%%%%%%%%%%%%%%%%%%%%%%%%%%%%%%%%%%%%%%%%%%%%%%%%%%%%%%%%%%%%%%%%

 total number of charges    =             34

 total charge               =     -1.0000000

%%%% CHARGES %%%%%%%%%%%%%%%%%%%%%%%%%%%%%%%%%%%%%%%%%%%%%%%%%%%%%%%%%%%%%%%%%%%

 total number of charges    =             34

 total charge               =     -1.0000000

%%%% BOUNDARY %%%%%%%%%%%%%%%%%%%%%%%%%%%%%%%%%%%%%%%%%%%%%%%%%%%%%%%%%%%%%%%%%%

 boundary label             = solvent             
 boundary mode              = electronic          

 boundary is built as a type-2 function of a smooth density

 using the modified SCCS function:
 rhomax                     =      0.0050000
 rhomin                     =      0.0001000

 volume of the QM region    =    715.6005377

 surface of the QM region   =    412.3961025

%%%% DENSITY %%%%%%%%%%%%%%%%%%%%%%%%%%%%%%%%%%%%%%%%%%%%%%%%%%%%%%%%%%%%%%%%%%%

 density label              = vreference                                        

 integral of density        =   0.1730961054E-12

%%%% COMPUTE ELECTROSTATIC POTENTIAL %%%%%%%%%%%%%%%%%%%%%%%%%%%%%%%%%%%%%%%%%%%

 Warning: Bad guess with residual norm =   0.150133E+04, reset to no guess

   i |      alpha     |       pAp      |      rzold     |    delta_qm    |    delta_en    |       tol
 ---------------------------------------------------------------------------------------------------------
   1 |   0.972888E+00 |   0.959910E+02 |   0.933885E+02 |   0.287393E-01 |   0.142724E+04 |   0.100000E-04
   2 |   0.907744E-01 |   0.261342E+03 |   0.237231E+02 |   0.547491E-02 |   0.517962E+02 |   0.100000E-04
   3 |   0.184430E+00 |   0.191707E+01 |   0.353564E+00 |   0.238519E-02 |   0.983079E+01 |   0.100000E-04
   4 |   0.169361E+00 |   0.538157E+00 |   0.911426E-01 |   0.285078E-02 |   0.140433E+02 |   0.100000E-04
   5 |   0.158502E+00 |   0.375711E+00 |   0.595511E-01 |   0.151619E-02 |   0.397237E+01 |   0.100000E-04
   6 |   0.166289E+00 |   0.233312E+00 |   0.387971E-01 |   0.206755E-02 |   0.738680E+01 |   0.100000E-04
   7 |   0.157825E+00 |   0.180282E+00 |   0.284529E-01 |   0.112824E-02 |   0.219963E+01 |   0.100000E-04
   8 |   0.165895E+00 |   0.114391E+00 |   0.189769E-01 |   0.154444E-02 |   0.412179E+01 |   0.100000E-04
   9 |   0.157689E+00 |   0.892020E-01 |   0.140662E-01 |   0.883684E-03 |   0.134939E+01 |   0.100000E-04
  10 |   0.165912E+00 |   0.569936E-01 |   0.945592E-02 |   0.118683E-02 |   0.243401E+01 |   0.100000E-04
  11 |   0.157807E+00 |   0.447205E-01 |   0.705719E-02 |   0.717925E-03 |   0.890638E+00 |   0.100000E-04
  12 |   0.166126E+00 |   0.287550E-01 |   0.477695E-02 |   0.935558E-03 |   0.151247E+01 |   0.100000E-04
  13 |   0.158063E+00 |   0.227249E-01 |   0.359196E-02 |   0.598741E-03 |   0.619472E+00 |   0.100000E-04
  14 |   0.166475E+00 |   0.147264E-01 |   0.245156E-02 |   0.753867E-03 |   0.982050E+00 |   0.100000E-04
  15 |   0.158438E+00 |   0.117473E-01 |   0.186123E-02 |   0.508318E-03 |   0.446494E+00 |   0.100000E-04
  16 |   0.166961E+00 |   0.769132E-02 |   0.128415E-02 |   0.618598E-03 |   0.661243E+00 |   0.100000E-04
  17 |   0.158944E+00 |   0.621200E-02 |   0.987363E-03 |   0.436424E-03 |   0.329124E+00 |   0.100000E-04
  18 |   0.167597E+00 |   0.412257E-02 |   0.690931E-03 |   0.514997E-03 |   0.458303E+00 |   0.100000E-04
  19 |   0.159588E+00 |   0.338356E-02 |   0.539975E-03 |   0.377109E-03 |   0.245741E+00 |   0.100000E-04
  20 |   0.168382E+00 |   0.228423E-02 |   0.384622E-03 |   0.433553E-03 |   0.324809E+00 |   0.100000E-04
  21 |   0.160353E+00 |   0.191212E-02 |   0.306615E-03 |   0.326889E-03 |   0.184648E+00 |   0.100000E-04
  22 |   0.169280E+00 |   0.131736E-02 |   0.223001E-03 |   0.368050E-03 |   0.234076E+00 |   0.100000E-04
  23 |   0.161192E+00 |   0.112791E-02 |   0.181810E-03 |   0.283684E-03 |   0.139063E+00 |   0.100000E-04
  24 |   0.170220E+00 |   0.794558E-03 |   0.135250E-03 |   0.314353E-03 |   0.170757E+00 |   0.100000E-04
  25 |   0.162030E+00 |   0.696552E-03 |   0.112863E-03 |   0.246200E-03 |   0.104742E+00 |   0.100000E-04
  26 |   0.171118E+00 |   0.501720E-03 |   0.858532E-04 |   0.269659E-03 |   0.125653E+00 |   0.100000E-04
  27 |   0.162793E+00 |   0.449847E-03 |   0.732318E-04 |   0.213576E-03 |   0.788223E-01 |   0.100000E-04
  28 |   0.171898E+00 |   0.330638E-03 |   0.568360E-04 |   0.232024E-03 |   0.930267E-01 |   0.100000E-04
  29 |   0.163428E+00 |   0.302312E-03 |   0.494062E-04 |   0.185174E-03 |   0.592521E-01 |   0.100000E-04
  30 |   0.172524E+00 |   0.225973E-03 |   0.389858E-04 |   0.200062E-03 |   0.691626E-01 |   0.100000E-04
  31 |   0.163920E+00 |   0.209881E-03 |   0.344036E-04 |   0.160474E-03 |   0.444995E-01 |   0.100000E-04
  32 |   0.172994E+00 |   0.158941E-03 |   0.274958E-04 |   0.172754E-03 |   0.515703E-01 |   0.100000E-04
  33 |   0.164280E+00 |   0.149371E-03 |   0.245386E-04 |   0.139025E-03 |   0.333987E-01 |   0.100000E-04
  34 |   0.173330E+00 |   0.114200E-03 |   0.197943E-04 |   0.149325E-03 |   0.385311E-01 |   0.100000E-04
  35 |   0.164532E+00 |   0.108231E-03 |   0.178075E-04 |   0.120422E-03 |   0.250584E-01 |   0.100000E-04
  36 |   0.173563E+00 |   0.833022E-04 |   0.144582E-04 |   0.129168E-03 |   0.288306E-01 |   0.100000E-04
  37 |   0.164705E+00 |   0.794093E-04 |   0.130791E-04 |   0.104302E-03 |   0.187987E-01 |   0.100000E-04
  38 |   0.173721E+00 |   0.613988E-04 |   0.106663E-04 |   0.111791E-03 |   0.215953E-01 |   0.100000E-04
  39 |   0.164821E+00 |   0.587608E-04 |   0.968504E-05 |   0.903423E-04 |   0.141035E-01 |   0.100000E-04
  40 |   0.173827E+00 |   0.455735E-04 |   0.792191E-05 |   0.967915E-04 |   0.161889E-01 |   0.100000E-04
  41 |   0.164899E+00 |   0.437311E-04 |   0.721124E-05 |   0.782580E-04 |   0.105828E-01 |   0.100000E-04
  42 |   0.173898E+00 |   0.339869E-04 |   0.591026E-05 |   0.838316E-04 |   0.121439E-01 |   0.100000E-04
  43 |   0.164952E+00 |   0.326709E-04 |   0.538913E-05 |   0.677985E-04 |   0.794298E-02 |   0.100000E-04
  44 |   0.173947E+00 |   0.254264E-04 |   0.442283E-05 |   0.726265E-04 |   0.911454E-02 |   0.100000E-04
  45 |   0.164988E+00 |   0.244712E-04 |   0.403746E-05 |   0.587456E-04 |   0.596340E-02 |   0.100000E-04
  46 |   0.173980E+00 |   0.190629E-04 |   0.331657E-05 |   0.629339E-04 |   0.684404E-02 |   0.100000E-04
  47 |   0.165013E+00 |   0.183620E-04 |   0.302998E-05 |   0.509096E-04 |   0.447861E-02 |   0.100000E-04
  48 |   0.174004E+00 |   0.143133E-04 |   0.249057E-05 |   0.545461E-04 |   0.514128E-02 |   0.100000E-04
  49 |   0.165031E+00 |   0.137951E-04 |   0.227662E-05 |   0.441262E-04 |   0.336462E-02 |   0.100000E-04
  50 |   0.174021E+00 |   0.107584E-04 |   0.187219E-05 |   0.472853E-04 |   0.386363E-02 |   0.100000E-04
  51 |   0.165045E+00 |   0.103733E-04 |   0.171206E-05 |   0.382531E-04 |   0.252858E-02 |   0.100000E-04
  52 |   0.174034E+00 |   0.809273E-05 |   0.140841E-05 |   0.409982E-04 |   0.290451E-02 |   0.100000E-04
  53 |   0.165055E+00 |   0.780555E-05 |   0.128835E-05 |   0.331672E-04 |   0.190091E-02 |   0.100000E-04
  54 |   0.174044E+00 |   0.609113E-05 |   0.106013E-05 |   0.355530E-04 |   0.218422E-02 |   0.100000E-04
  55 |   0.165064E+00 |   0.587647E-05 |   0.969994E-06 |   0.287623E-04 |   0.142952E-02 |   0.100000E-04
  56 |   0.174053E+00 |   0.458676E-05 |   0.798340E-06 |   0.308359E-04 |   0.164308E-02 |   0.100000E-04
  57 |   0.165071E+00 |   0.442605E-05 |   0.730613E-06 |   0.249464E-04 |   0.107538E-02 |   0.100000E-04
  58 |   0.174060E+00 |   0.345530E-05 |   0.601432E-06 |   0.267488E-04 |   0.123638E-02 |   0.100000E-04
  59 |   0.165077E+00 |   0.333483E-05 |   0.550506E-06 |   0.216402E-04 |   0.809222E-03 |   0.100000E-04
  60 |   0.174067E+00 |   0.260384E-05 |   0.453242E-06 |   0.232068E-04 |   0.930620E-03 |   0.100000E-04
  61 |   0.165083E+00 |   0.251345E-05 |   0.414929E-06 |   0.187751E-04 |   0.609128E-03 |   0.100000E-04
  62 |   0.174073E+00 |   0.196279E-05 |   0.341668E-06 |   0.201366E-04 |   0.700675E-03 |   0.100000E-04
  63 |   0.165088E+00 |   0.189493E-05 |   0.312831E-06 |   0.162918E-04 |   0.458648E-03 |   0.100000E-04
  64 |   0.174079E+00 |   0.147997E-05 |   0.257631E-06 |   0.174750E-04 |   0.527691E-03 |   0.100000E-04
  65 |   0.165093E+00 |   0.142900E-05 |   0.235917E-06 |   0.141389E-04 |   0.345443E-03 |   0.100000E-04
  66 |   0.174084E+00 |   0.111621E-05 |   0.194313E-06 |   0.151673E-04 |   0.397519E-03 |   0.100000E-04
  67 |   0.165098E+00 |   0.107790E-05 |   0.177959E-06 |   0.122723E-04 |   0.260254E-03 |   0.100000E-04
  68 |   0.174089E+00 |   0.842057E-06 |   0.146593E-06 |   0.131659E-04 |   0.299535E-03 |   0.100000E-04
  69 |   0.165102E+00 |   0.813256E-06 |   0.134270E-06 |   0.106536E-04 |   0.196127E-03 |   0.100000E-04
  70 |   0.174094E+00 |   0.635389E-06 |   0.110617E-06 |   0.114301E-04 |   0.225760E-03 |   0.100000E-04
  71 |   0.165106E+00 |   0.613728E-06 |   0.101330E-06 |   0.924963E-05 |   0.147840E-03 |   0.100000E-04
  72 |   0.174099E+00 |   0.479551E-06 |   0.834892E-07 |   0.992439E-05 |   0.170197E-03 |   0.100000E-04
  73 |   0.165111E+00 |   0.463254E-06 |   0.764882E-07 |   0.803173E-05 |   0.111471E-03 |   0.100000E-04
  74 |   0.174103E+00 |   0.362013E-06 |   0.630275E-07 |   0.861802E-05 |   0.128339E-03 |   0.100000E-04
  75 |   0.165115E+00 |   0.349748E-06 |   0.577485E-07 |   0.697506E-05 |   0.840698E-04 |   0.100000E-04
  76 |   0.174107E+00 |   0.273340E-06 |   0.475905E-07 |   0.748448E-05 |   0.967982E-04 |   0.100000E-04
  77 |   0.165118E+00 |   0.264107E-06 |   0.436090E-07 |   0.605817E-05 |   0.634200E-04 |   0.100000E-04
  78 |   0.174112E+00 |   0.206429E-06 |   0.359417E-07 |   0.650077E-05 |   0.730253E-04 |   0.100000E-04
  79 |   0.165122E+00 |   0.199477E-06 |   0.329381E-07 |   0.526243E-05 |   0.478539E-04 |   0.100000E-04
  80 |   0.174116E+00 |   0.155928E-06 |   0.271496E-07 |   0.564698E-05 |   0.551030E-04 |   0.100000E-04
  81 |   0.165126E+00 |   0.150692E-06 |   0.248831E-07 |   0.457176E-05 |   0.361168E-04 |   0.100000E-04
  82 |   0.174120E+00 |   0.117805E-06 |   0.205122E-07 |   0.490585E-05 |   0.415883E-04 |   0.100000E-04
  83 |   0.165130E+00 |   0.113860E-06 |   0.188016E-07 |   0.397218E-05 |   0.272648E-04 |   0.100000E-04
  84 |   0.174124E+00 |   0.890191E-07 |   0.155004E-07 |   0.426243E-05 |   0.313949E-04 |   0.100000E-04
  85 |   0.165133E+00 |   0.860462E-07 |   0.142091E-07 |   0.345163E-05 |   0.205870E-04 |   0.100000E-04
  86 |   0.174128E+00 |   0.672798E-07 |   0.117153E-07 |   0.370379E-05 |   0.237048E-04 |   0.100000E-04
  87 |   0.165137E+00 |   0.650390E-07 |   0.107403E-07 |   0.299963E-05 |   0.155482E-04 |   0.100000E-04
  88 |   0.174132E+00 |   0.508587E-07 |   0.885611E-08 |   0.321869E-05 |   0.179020E-04 |   0.100000E-04
  89 |   0.165140E+00 |   0.491694E-07 |   0.811984E-08 |   0.260710E-05 |   0.117452E-04 |   0.100000E-04
  90 |   0.174136E+00 |   0.384524E-07 |   0.669593E-08 |   0.279741E-05 |   0.135224E-04 |   0.100000E-04
  91 |   0.165144E+00 |   0.371785E-07 |   0.613980E-08 |   0.226618E-05 |   0.887426E-05 |   0.100000E-04

 Charges are converged, EXIT

%%%% DENSITY %%%%%%%%%%%%%%%%%%%%%%%%%%%%%%%%%%%%%%%%%%%%%%%%%%%%%%%%%%%%%%%%%%%

 density label              = velectrostatic                                    

 integral of density        =   0.1811226066E-12

%%%% CHARGES %%%%%%%%%%%%%%%%%%%%%%%%%%%%%%%%%%%%%%%%%%%%%%%%%%%%%%%%%%%%%%%%%%%

 total number of charges    =             34

 total charge               =     -1.0000000

%%%% DENSITY %%%%%%%%%%%%%%%%%%%%%%%%%%%%%%%%%%%%%%%%%%%%%%%%%%%%%%%%%%%%%%%%%%%

 density label              = vsoftcavity                                       

 integral of density        =    33.77305382    

%%%% DENSITY %%%%%%%%%%%%%%%%%%%%%%%%%%%%%%%%%%%%%%%%%%%%%%%%%%%%%%%%%%%%%%%%%%%

 density label              = dvtot                                             

 integral of density        =    33.77305382    

%%%% ELECTRONS %%%%%%%%%%%%%%%%%%%%%%%%%%%%%%%%%%%%%%%%%%%%%%%%%%%%%%%%%%%%%%%%%

 number of electrons        =             24

 total electronic charge    =     24.0000000

%%%% ELECTRONS %%%%%%%%%%%%%%%%%%%%%%%%%%%%%%%%%%%%%%%%%%%%%%%%%%%%%%%%%%%%%%%%%

 number of electrons        =             24

 total electronic charge    =     24.0000000

%%%% CHARGES %%%%%%%%%%%%%%%%%%%%%%%%%%%%%%%%%%%%%%%%%%%%%%%%%%%%%%%%%%%%%%%%%%%

 total number of charges    =             34

 total charge               =     -1.0000000

%%%% CHARGES %%%%%%%%%%%%%%%%%%%%%%%%%%%%%%%%%%%%%%%%%%%%%%%%%%%%%%%%%%%%%%%%%%%

 total number of charges    =             34

 total charge               =     -1.0000000

%%%% BOUNDARY %%%%%%%%%%%%%%%%%%%%%%%%%%%%%%%%%%%%%%%%%%%%%%%%%%%%%%%%%%%%%%%%%%

 boundary label             = solvent             
 boundary mode              = electronic          

 boundary is built as a type-2 function of a smooth density

 using the modified SCCS function:
 rhomax                     =      0.0050000
 rhomin                     =      0.0001000

 volume of the QM region    =    716.5670225

 surface of the QM region   =    412.8477000

%%%% DENSITY %%%%%%%%%%%%%%%%%%%%%%%%%%%%%%%%%%%%%%%%%%%%%%%%%%%%%%%%%%%%%%%%%%%

 density label              = vreference                                        

 integral of density        =   0.7654782158E-12

%%%% COMPUTE ELECTROSTATIC POTENTIAL %%%%%%%%%%%%%%%%%%%%%%%%%%%%%%%%%%%%%%%%%%%

 Warning: Bad guess with residual norm =   0.154125E+04, reset to no guess

   i |      alpha     |       pAp      |      rzold     |    delta_qm    |    delta_en    |       tol
 ---------------------------------------------------------------------------------------------------------
   1 |   0.972705E+00 |   0.959882E+02 |   0.933682E+02 |   0.291125E-01 |   0.146455E+04 |   0.100000E-04
   2 |   0.907909E-01 |   0.262468E+03 |   0.238297E+02 |   0.562463E-02 |   0.546678E+02 |   0.100000E-04
   3 |   0.183218E+00 |   0.202378E+01 |   0.370793E+00 |   0.240234E-02 |   0.997271E+01 |   0.100000E-04
   4 |   0.167611E+00 |   0.558812E+00 |   0.936631E-01 |   0.288733E-02 |   0.144058E+02 |   0.100000E-04
   5 |   0.158935E+00 |   0.380143E+00 |   0.604181E-01 |   0.153189E-02 |   0.405507E+01 |   0.100000E-04
   6 |   0.165100E+00 |   0.241078E+00 |   0.398019E-01 |   0.209334E-02 |   0.757224E+01 |   0.100000E-04
   7 |   0.158395E+00 |   0.182440E+00 |   0.288977E-01 |   0.114197E-02 |   0.225349E+01 |   0.100000E-04
   8 |   0.164792E+00 |   0.118247E+00 |   0.194861E-01 |   0.156415E-02 |   0.422764E+01 |   0.100000E-04
   9 |   0.158300E+00 |   0.903330E-01 |   0.142997E-01 |   0.895430E-03 |   0.138550E+01 |   0.100000E-04
  10 |   0.164833E+00 |   0.589557E-01 |   0.971784E-02 |   0.120257E-02 |   0.249897E+01 |   0.100000E-04
  11 |   0.158430E+00 |   0.453195E-01 |   0.717998E-02 |   0.728117E-03 |   0.916107E+00 |   0.100000E-04
  12 |   0.165050E+00 |   0.297652E-01 |   0.491275E-02 |   0.948548E-03 |   0.155476E+01 |   0.100000E-04
  13 |   0.158691E+00 |   0.230433E-01 |   0.365676E-02 |   0.607748E-03 |   0.638250E+00 |   0.100000E-04
  14 |   0.165394E+00 |   0.152526E-01 |   0.252269E-02 |   0.764863E-03 |   0.101091E+01 |   0.100000E-04
  15 |   0.159068E+00 |   0.119175E-01 |   0.189569E-02 |   0.516382E-03 |   0.460773E+00 |   0.100000E-04
  16 |   0.165872E+00 |   0.796962E-02 |   0.132194E-02 |   0.628077E-03 |   0.681663E+00 |   0.100000E-04
  17 |   0.159576E+00 |   0.630379E-02 |   0.100593E-02 |   0.443695E-03 |   0.340184E+00 |   0.100000E-04
  18 |   0.166498E+00 |   0.427284E-02 |   0.711418E-03 |   0.523272E-03 |   0.473150E+00 |   0.100000E-04
  19 |   0.160222E+00 |   0.343384E-02 |   0.550178E-03 |   0.383686E-03 |   0.254387E+00 |   0.100000E-04
  20 |   0.167270E+00 |   0.236769E-02 |   0.396044E-03 |   0.440839E-03 |   0.335818E+00 |   0.100000E-04
  21 |   0.160993E+00 |   0.194037E-02 |   0.312385E-03 |   0.332837E-03 |   0.191429E+00 |   0.100000E-04
  22 |   0.168157E+00 |   0.136544E-02 |   0.229607E-03 |   0.374501E-03 |   0.242354E+00 |   0.100000E-04
  23 |   0.161840E+00 |   0.114436E-02 |   0.185203E-03 |   0.289055E-03 |   0.144380E+00 |   0.100000E-04
  24 |   0.169088E+00 |   0.823498E-03 |   0.139244E-03 |   0.320085E-03 |   0.177041E+00 |   0.100000E-04
  25 |   0.162689E+00 |   0.706603E-03 |   0.114956E-03 |   0.251040E-03 |   0.108901E+00 |   0.100000E-04
  26 |   0.169978E+00 |   0.520002E-03 |   0.883891E-04 |   0.274763E-03 |   0.130455E+00 |   0.100000E-04
  27 |   0.163463E+00 |   0.456336E-03 |   0.745938E-04 |   0.217926E-03 |   0.820658E-01 |   0.100000E-04
  28 |   0.170755E+00 |   0.342755E-03 |   0.585271E-04 |   0.236573E-03 |   0.967107E-01 |   0.100000E-04
  29 |   0.164109E+00 |   0.306743E-03 |   0.503393E-04 |   0.189074E-03 |   0.617745E-01 |   0.100000E-04
  30 |   0.171378E+00 |   0.234359E-03 |   0.401640E-04 |   0.204119E-03 |   0.719965E-01 |   0.100000E-04
  31 |   0.164610E+00 |   0.213062E-03 |   0.350723E-04 |   0.163965E-03 |   0.464563E-01 |   0.100000E-04
  32 |   0.171848E+00 |   0.164951E-03 |   0.283464E-04 |   0.176373E-03 |   0.537537E-01 |   0.100000E-04
  33 |   0.164977E+00 |   0.151747E-03 |   0.250347E-04 |   0.142143E-03 |   0.349138E-01 |   0.100000E-04
  34 |   0.172183E+00 |   0.118623E-03 |   0.204249E-04 |   0.152553E-03 |   0.402148E-01 |   0.100000E-04
[...]
  53 |   0.165600E+00 |   0.846694E-05 |   0.140212E-05 |   0.354323E-04 |   0.216942E-02 |   0.100000E-04
  54 |   0.171784E+00 |   0.683943E-05 |   0.117490E-05 |   0.378444E-04 |   0.247484E-02 |   0.100000E-04
  55 |   0.165609E+00 |   0.639739E-05 |   0.105946E-05 |   0.307818E-04 |   0.163732E-02 |   0.100000E-04
  56 |   0.171792E+00 |   0.516888E-05 |   0.887975E-06 |   0.328811E-04 |   0.186826E-02 |   0.100000E-04
  57 |   0.165616E+00 |   0.483587E-05 |   0.800899E-06 |   0.267462E-04 |   0.123614E-02 |   0.100000E-04
  58 |   0.171800E+00 |   0.390798E-05 |   0.671391E-06 |   0.285732E-04 |   0.141079E-02 |   0.100000E-04
  59 |   0.165623E+00 |   0.365688E-05 |   0.605664E-06 |   0.232434E-04 |   0.933564E-03 |   0.100000E-04
  60 |   0.171807E+00 |   0.295571E-05 |   0.507810E-06 |   0.248335E-04 |   0.106566E-02 |   0.100000E-04
  61 |   0.165629E+00 |   0.276625E-05 |   0.458170E-06 |   0.202026E-04 |   0.705275E-03 |   0.100000E-04
  62 |   0.171813E+00 |   0.223618E-05 |   0.384204E-06 |   0.215864E-04 |   0.805197E-03 |   0.100000E-04
  63 |   0.165634E+00 |   0.209315E-05 |   0.346697E-06 |   0.175623E-04 |   0.532974E-03 |   0.100000E-04
  64 |   0.171818E+00 |   0.169229E-05 |   0.290767E-06 |   0.187664E-04 |   0.608565E-03 |   0.100000E-04
  65 |   0.165639E+00 |   0.158427E-05 |   0.262417E-06 |   0.152693E-04 |   0.402887E-03 |   0.100000E-04
  66 |   0.171824E+00 |   0.128103E-05 |   0.220111E-06 |   0.163171E-04 |   0.460075E-03 |   0.100000E-04
  67 |   0.165644E+00 |   0.119941E-05 |   0.198675E-06 |   0.132776E-04 |   0.304639E-03 |   0.100000E-04
  68 |   0.171829E+00 |   0.969951E-06 |   0.166665E-06 |   0.141893E-04 |   0.347908E-03 |   0.100000E-04
  69 |   0.165649E+00 |   0.908262E-06 |   0.150452E-06 |   0.115474E-04 |   0.230414E-03 |   0.100000E-04
  70 |   0.171833E+00 |   0.734587E-06 |   0.126227E-06 |   0.123405E-04 |   0.263154E-03 |   0.100000E-04
  71 |   0.165653E+00 |   0.687947E-06 |   0.113960E-06 |   0.100439E-04 |   0.174321E-03 |   0.100000E-04
  72 |   0.171838E+00 |   0.556461E-06 |   0.956211E-07 |   0.107339E-04 |   0.199096E-03 |   0.100000E-04
  73 |   0.165657E+00 |   0.521188E-06 |   0.863385E-07 |   0.873738E-05 |   0.131919E-03 |   0.100000E-04
  74 |   0.171842E+00 |   0.421619E-06 |   0.724520E-07 |   0.933763E-05 |   0.150667E-03 |   0.100000E-04
  75 |   0.165661E+00 |   0.394936E-06 |   0.654255E-07 |   0.760177E-05 |   0.998557E-04 |   0.100000E-04
  76 |   0.171847E+00 |   0.319518E-06 |   0.549082E-07 |   0.812391E-05 |   0.114044E-03 |   0.100000E-04
  77 |   0.165665E+00 |   0.299328E-06 |   0.495883E-07 |   0.661457E-05 |   0.756044E-04 |   0.100000E-04
  78 |   0.171851E+00 |   0.242192E-06 |   0.416209E-07 |   0.706875E-05 |   0.863433E-04 |   0.100000E-04
  79 |   0.165669E+00 |   0.226911E-06 |   0.375921E-07 |   0.575627E-05 |   0.572567E-04 |   0.100000E-04
  80 |   0.171855E+00 |   0.183616E-06 |   0.315553E-07 |   0.615130E-05 |   0.653850E-04 |   0.100000E-04
  81 |   0.165673E+00 |   0.172047E-06 |   0.285035E-07 |   0.500993E-05 |   0.433718E-04 |   0.100000E-04
  82 |   0.171859E+00 |   0.139233E-06 |   0.239285E-07 |   0.535351E-05 |   0.495246E-04 |   0.100000E-04
  83 |   0.165676E+00 |   0.130473E-06 |   0.216164E-07 |   0.436085E-05 |   0.328615E-04 |   0.100000E-04
  84 |   0.171863E+00 |   0.105598E-06 |   0.181484E-07 |   0.465967E-05 |   0.375193E-04 |   0.100000E-04
  85 |   0.165680E+00 |   0.989639E-07 |   0.163963E-07 |   0.379630E-05 |   0.249037E-04 |   0.100000E-04
  86 |   0.171867E+00 |   0.801032E-07 |   0.137671E-07 |   0.405617E-05 |   0.284299E-04 |   0.100000E-04
  87 |   0.165683E+00 |   0.750775E-07 |   0.124391E-07 |   0.330518E-05 |   0.188771E-04 |   0.100000E-04
  88 |   0.171870E+00 |   0.607744E-07 |   0.104453E-07 |   0.353118E-05 |   0.215469E-04 |   0.100000E-04
  89 |   0.165687E+00 |   0.569664E-07 |   0.943859E-08 |   0.287791E-05 |   0.143119E-04 |   0.100000E-04
  90 |   0.171874E+00 |   0.461177E-07 |   0.792642E-08 |   0.307444E-05 |   0.163334E-04 |   0.100000E-04
  91 |   0.165690E+00 |   0.432318E-07 |   0.716309E-08 |   0.250613E-05 |   0.108530E-04 |   0.100000E-04
  92 |   0.171877E+00 |   0.350016E-07 |   0.601599E-08 |   0.267704E-05 |   0.123838E-04 |   0.100000E-04
  93 |   0.165693E+00 |   0.328142E-07 |   0.543710E-08 |   0.218260E-05 |   0.823176E-05 |   0.100000E-04

 Charges are converged, EXIT

%%%% DENSITY %%%%%%%%%%%%%%%%%%%%%%%%%%%%%%%%%%%%%%%%%%%%%%%%%%%%%%%%%%%%%%%%%%%

 density label              = velectrostatic                                    

 integral of density        =   0.3918511606E-12

%%%% CHARGES %%%%%%%%%%%%%%%%%%%%%%%%%%%%%%%%%%%%%%%%%%%%%%%%%%%%%%%%%%%%%%%%%%%

 total number of charges    =             34

 total charge               =     -1.0000000

%%%% DENSITY %%%%%%%%%%%%%%%%%%%%%%%%%%%%%%%%%%%%%%%%%%%%%%%%%%%%%%%%%%%%%%%%%%%

 density label              = vsoftcavity                                       

 integral of density        =    34.87373975    

%%%% DENSITY %%%%%%%%%%%%%%%%%%%%%%%%%%%%%%%%%%%%%%%%%%%%%%%%%%%%%%%%%%%%%%%%%%%

 density label              = dvtot                                             

 integral of density        =    34.87373975    

%%%% ELECTRONS %%%%%%%%%%%%%%%%%%%%%%%%%%%%%%%%%%%%%%%%%%%%%%%%%%%%%%%%%%%%%%%%%

 number of electrons        =             24

 total electronic charge    =     24.0000000

%%%% ELECTRONS %%%%%%%%%%%%%%%%%%%%%%%%%%%%%%%%%%%%%%%%%%%%%%%%%%%%%%%%%%%%%%%%%

 number of electrons        =             24

 total electronic charge    =     24.0000000

%%%% CHARGES %%%%%%%%%%%%%%%%%%%%%%%%%%%%%%%%%%%%%%%%%%%%%%%%%%%%%%%%%%%%%%%%%%%

 total number of charges    =             34

 total charge               =     -1.0000000

%%%% CHARGES %%%%%%%%%%%%%%%%%%%%%%%%%%%%%%%%%%%%%%%%%%%%%%%%%%%%%%%%%%%%%%%%%%%

 total number of charges    =             34

 total charge               =     -1.0000000

%%%% BOUNDARY %%%%%%%%%%%%%%%%%%%%%%%%%%%%%%%%%%%%%%%%%%%%%%%%%%%%%%%%%%%%%%%%%%

 boundary label             = solvent             
 boundary mode              = electronic          

 boundary is built as a type-2 function of a smooth density

 using the modified SCCS function:
 rhomax                     =      0.0050000
 rhomin                     =      0.0001000

 volume of the QM region    =    716.4763999

 surface of the QM region   =    413.0285700

%%%% DENSITY %%%%%%%%%%%%%%%%%%%%%%%%%%%%%%%%%%%%%%%%%%%%%%%%%%%%%%%%%%%%%%%%%%%

 density label              = vreference                                        

 integral of density        =  -0.6302119320E-12

%%%% COMPUTE ELECTROSTATIC POTENTIAL %%%%%%%%%%%%%%%%%%%%%%%%%%%%%%%%%%%%%%%%%%%

 Warning: Bad guess with residual norm =   0.169695E+04, reset to no guess

   i |      alpha     |       pAp      |      rzold     |    delta_qm    |    delta_en    |       tol
 ---------------------------------------------------------------------------------------------------------
   1 |   0.971713E+00 |   0.961102E+02 |   0.933915E+02 |   0.305150E-01 |   0.160905E+04 |   0.100000E-04
   2 |   0.905365E-01 |   0.272873E+03 |   0.247050E+02 |   0.593546E-02 |   0.608769E+02 |   0.100000E-04
   3 |   0.180721E+00 |   0.226844E+01 |   0.409955E+00 |   0.244652E-02 |   0.103429E+02 |   0.100000E-04
   4 |   0.165697E+00 |   0.610733E+00 |   0.101196E+00 |   0.296380E-02 |   0.151789E+02 |   0.100000E-04
   5 |   0.158458E+00 |   0.410435E+00 |   0.650369E-01 |   0.157075E-02 |   0.426341E+01 |   0.100000E-04
   6 |   0.163723E+00 |   0.263962E+00 |   0.432166E-01 |   0.214675E-02 |   0.796355E+01 |   0.100000E-04
   7 |   0.158054E+00 |   0.197776E+00 |   0.312594E-01 |   0.117195E-02 |   0.237335E+01 |   0.100000E-04
   8 |   0.163496E+00 |   0.129935E+00 |   0.212438E-01 |   0.160153E-02 |   0.443217E+01 |   0.100000E-04
   9 |   0.157998E+00 |   0.982444E-01 |   0.155224E-01 |   0.917880E-03 |   0.145585E+01 |   0.100000E-04
  10 |   0.163554E+00 |   0.649637E-01 |   0.106251E-01 |   0.122925E-02 |   0.261108E+01 |   0.100000E-04
  11 |   0.158130E+00 |   0.494044E-01 |   0.781229E-02 |   0.745055E-03 |   0.959225E+00 |   0.100000E-04
  12 |   0.163760E+00 |   0.328600E-01 |   0.538116E-02 |   0.968106E-03 |   0.161953E+01 |   0.100000E-04
  13 |   0.158375E+00 |   0.251537E-01 |   0.398372E-02 |   0.620902E-03 |   0.666178E+00 |   0.100000E-04
  14 |   0.164078E+00 |   0.168512E-01 |   0.276492E-02 |   0.779672E-03 |   0.105043E+01 |   0.100000E-04
  15 |   0.158727E+00 |   0.130097E-01 |   0.206499E-02 |   0.527003E-03 |   0.479920E+00 |   0.100000E-04
  16 |   0.164520E+00 |   0.879915E-02 |   0.144763E-02 |   0.639683E-03 |   0.707089E+00 |   0.100000E-04
  17 |   0.159203E+00 |   0.687099E-02 |   0.109388E-02 |   0.452613E-03 |   0.353996E+00 |   0.100000E-04
  18 |   0.165102E+00 |   0.470645E-02 |   0.777046E-03 |   0.532676E-03 |   0.490309E+00 |   0.100000E-04
  19 |   0.159816E+00 |   0.373027E-02 |   0.596157E-03 |   0.391425E-03 |   0.264753E+00 |   0.100000E-04
  20 |   0.165831E+00 |   0.259693E-02 |   0.430653E-03 |   0.448687E-03 |   0.347881E+00 |   0.100000E-04
  21 |   0.160558E+00 |   0.209691E-02 |   0.336676E-03 |   0.339716E-03 |   0.199423E+00 |   0.100000E-04
  22 |   0.166682E+00 |   0.148874E-02 |   0.248146E-03 |   0.381211E-03 |   0.251116E+00 |   0.100000E-04
  23 |   0.161389E+00 |   0.122842E-02 |   0.198253E-03 |   0.295257E-03 |   0.150642E+00 |   0.100000E-04
  24 |   0.167594E+00 |   0.891499E-03 |   0.149409E-03 |   0.325931E-03 |   0.183567E+00 |   0.100000E-04
  25 |   0.162239E+00 |   0.752890E-03 |   0.122148E-03 |   0.256671E-03 |   0.113841E+00 |   0.100000E-04
  26 |   0.168484E+00 |   0.558808E-03 |   0.941505E-04 |   0.279926E-03 |   0.135404E+00 |   0.100000E-04
  27 |   0.163031E+00 |   0.482747E-03 |   0.787028E-04 |   0.223047E-03 |   0.859679E-01 |   0.100000E-04
  28 |   0.169278E+00 |   0.365882E-03 |   0.619357E-04 |   0.241178E-03 |   0.100512E+00 |   0.100000E-04
  29 |   0.163707E+00 |   0.322523E-03 |   0.527991E-04 |   0.193726E-03 |   0.648517E-01 |   0.100000E-04
  30 |   0.169927E+00 |   0.248844E-03 |   0.422854E-04 |   0.208251E-03 |   0.749404E-01 |   0.100000E-04
  31 |   0.164239E+00 |   0.223006E-03 |   0.366264E-04 |   0.168181E-03 |   0.488764E-01 |   0.100000E-04
  32 |   0.170423E+00 |   0.174498E-03 |   0.297386E-04 |   0.180093E-03 |   0.560453E-01 |   0.100000E-04
  33 |   0.164635E+00 |   0.158364E-03 |   0.260722E-04 |   0.145956E-03 |   0.368120E-01 |   0.100000E-04
  34 |   0.170783E+00 |   0.125217E-03 |   0.213848E-04 |   0.155910E-03 |   0.420040E-01 |   0.100000E-04
  35 |   0.164915E+00 |   0.114681E-03 |   0.189126E-04 |   0.126645E-03 |   0.277153E-01 |   0.100000E-04
  36 |   0.171034E+00 |   0.913506E-04 |   0.156240E-04 |   0.135077E-03 |   0.315287E-01 |   0.100000E-04
  37 |   0.165109E+00 |   0.841992E-04 |   0.139020E-04 |   0.109882E-03 |   0.208639E-01 |   0.100000E-04
  38 |   0.171205E+00 |   0.674129E-04 |   0.115414E-04 |   0.117094E-03 |   0.236926E-01 |   0.100000E-04
  39 |   0.165240E+00 |   0.624060E-04 |   0.103120E-04 |   0.953401E-04 |   0.157071E-01 |   0.100000E-04
  40 |   0.171321E+00 |   0.501373E-04 |   0.858956E-05 |   0.101549E-03 |   0.178195E-01 |   0.100000E-04
  41 |   0.165328E+00 |   0.465496E-04 |   0.769597E-05 |   0.827305E-04 |   0.118270E-01 |   0.100000E-04
  42 |   0.171399E+00 |   0.374851E-04 |   0.642490E-05 |   0.880980E-04 |   0.134115E-01 |   0.100000E-04
  43 |   0.165388E+00 |   0.348714E-04 |   0.576731E-05 |   0.717980E-04 |   0.890776E-02 |   0.100000E-04
  44 |   0.171451E+00 |   0.281249E-04 |   0.482206E-05 |   0.764508E-04 |   0.100997E-01 |   0.100000E-04
  45 |   0.165429E+00 |   0.261988E-04 |   0.433402E-05 |   0.623200E-04 |   0.671117E-02 |   0.100000E-04
  46 |   0.171488E+00 |   0.211527E-04 |   0.362743E-05 |   0.663599E-04 |   0.760948E-02 |   0.100000E-04
  47 |   0.165457E+00 |   0.197221E-04 |   0.326315E-05 |   0.541023E-04 |   0.505796E-02 |   0.100000E-04
  48 |   0.171513E+00 |   0.159352E-04 |   0.273310E-05 |   0.576137E-04 |   0.573581E-02 |   0.100000E-04
  49 |   0.165477E+00 |   0.148670E-04 |   0.246016E-05 |   0.469766E-04 |   0.381335E-02 |   0.100000E-04
  50 |   0.171532E+00 |   0.120187E-04 |   0.206160E-05 |   0.500303E-04 |   0.432524E-02 |   0.100000E-04
  51 |   0.165492E+00 |   0.112183E-04 |   0.185655E-05 |   0.407967E-04 |   0.287603E-02 |   0.100000E-04
  52 |   0.171546E+00 |   0.907260E-05 |   0.155637E-05 |   0.434533E-04 |   0.326279E-02 |   0.100000E-04
  53 |   0.165504E+00 |   0.847136E-05 |   0.140204E-05 |   0.354361E-04 |   0.216988E-02 |   0.100000E-04
  54 |   0.171557E+00 |   0.685310E-05 |   0.117570E-05 |   0.377475E-04 |   0.246218E-02 |   0.100000E-04
  55 |   0.165513E+00 |   0.640070E-05 |   0.105940E-05 |   0.307852E-04 |   0.163768E-02 |   0.100000E-04
  56 |   0.171566E+00 |   0.517923E-05 |   0.888581E-06 |   0.327965E-04 |   0.185865E-02 |   0.100000E-04
  57 |   0.165521E+00 |   0.483842E-05 |   0.800860E-06 |   0.267494E-04 |   0.123643E-02 |   0.100000E-04
  58 |   0.171574E+00 |   0.391586E-05 |   0.671861E-06 |   0.284994E-04 |   0.140351E-02 |   0.100000E-04
  59 |   0.165528E+00 |   0.365889E-05 |   0.605647E-06 |   0.232465E-04 |   0.933808E-03 |   0.100000E-04
  60 |   0.171581E+00 |   0.296175E-05 |   0.508179E-06 |   0.247691E-04 |   0.106014E-02 |   0.100000E-04
  61 |   0.165534E+00 |   0.276785E-05 |   0.458172E-06 |   0.202055E-04 |   0.705480E-03 |   0.100000E-04
  62 |   0.171587E+00 |   0.224082E-05 |   0.384497E-06 |   0.215303E-04 |   0.801021E-03 |   0.100000E-04
  63 |   0.165539E+00 |   0.209444E-05 |   0.346712E-06 |   0.175652E-04 |   0.533149E-03 |   0.100000E-04
  64 |   0.171593E+00 |   0.169588E-05 |   0.291000E-06 |   0.187176E-04 |   0.605405E-03 |   0.100000E-04
  65 |   0.165544E+00 |   0.158531E-05 |   0.262439E-06 |   0.152722E-04 |   0.403036E-03 |   0.100000E-04
  66 |   0.171598E+00 |   0.128380E-05 |   0.220298E-06 |   0.162747E-04 |   0.457686E-03 |   0.100000E-04
  67 |   0.165549E+00 |   0.120026E-05 |   0.198701E-06 |   0.132804E-04 |   0.304767E-03 |   0.100000E-04
  68 |   0.171603E+00 |   0.972097E-06 |   0.166815E-06 |   0.141524E-04 |   0.346103E-03 |   0.100000E-04
  69 |   0.165554E+00 |   0.908950E-06 |   0.150480E-06 |   0.115501E-04 |   0.230523E-03 |   0.100000E-04
  70 |   0.171608E+00 |   0.736251E-06 |   0.126347E-06 |   0.123085E-04 |   0.261790E-03 |   0.100000E-04
  71 |   0.165558E+00 |   0.688505E-06 |   0.113988E-06 |   0.100466E-04 |   0.174414E-03 |   0.100000E-04
  72 |   0.171613E+00 |   0.557752E-06 |   0.957175E-07 |   0.107062E-04 |   0.198066E-03 |   0.100000E-04
  73 |   0.165563E+00 |   0.521641E-06 |   0.863642E-07 |   0.873997E-05 |   0.131997E-03 |   0.100000E-04
  74 |   0.171617E+00 |   0.422622E-06 |   0.725293E-07 |   0.931353E-05 |   0.149890E-03 |   0.100000E-04
  75 |   0.165567E+00 |   0.395302E-06 |   0.654489E-07 |   0.760427E-05 |   0.999214E-04 |   0.100000E-04
  76 |   0.171622E+00 |   0.320298E-06 |   0.549701E-07 |   0.810300E-05 |   0.113458E-03 |   0.100000E-04
  77 |   0.165571E+00 |   0.299625E-06 |   0.496090E-07 |   0.661697E-05 |   0.756593E-04 |   0.100000E-04
  78 |   0.171626E+00 |   0.242798E-06 |   0.416705E-07 |   0.705062E-05 |   0.859010E-04 |   0.100000E-04
  79 |   0.165574E+00 |   0.227150E-06 |   0.376102E-07 |   0.575856E-05 |   0.573023E-04 |   0.100000E-04
  80 |   0.171630E+00 |   0.184087E-06 |   0.315948E-07 |   0.613559E-05 |   0.650513E-04 |   0.100000E-04
  81 |   0.165578E+00 |   0.172239E-06 |   0.285191E-07 |   0.501211E-05 |   0.434095E-04 |   0.100000E-04
  82 |   0.171634E+00 |   0.139600E-06 |   0.239600E-07 |   0.533989E-05 |   0.492729E-04 |   0.100000E-04
  83 |   0.165582E+00 |   0.130628E-06 |   0.216296E-07 |   0.436292E-05 |   0.328925E-04 |   0.100000E-04
  84 |   0.171638E+00 |   0.105883E-06 |   0.181735E-07 |   0.464786E-05 |   0.373294E-04 |   0.100000E-04
  85 |   0.165585E+00 |   0.990873E-07 |   0.164074E-07 |   0.379823E-05 |   0.249291E-04 |   0.100000E-04
  86 |   0.171641E+00 |   0.803244E-07 |   0.137870E-07 |   0.404594E-05 |   0.282867E-04 |   0.100000E-04
  87 |   0.165589E+00 |   0.751760E-07 |   0.124483E-07 |   0.330700E-05 |   0.188978E-04 |   0.100000E-04
  88 |   0.171645E+00 |   0.609462E-07 |   0.104611E-07 |   0.352231E-05 |   0.214388E-04 |   0.100000E-04
  89 |   0.165592E+00 |   0.570449E-07 |   0.944619E-08 |   0.287960E-05 |   0.143288E-04 |   0.100000E-04
  90 |   0.171649E+00 |   0.462510E-07 |   0.793893E-08 |   0.306676E-05 |   0.162518E-04 |   0.100000E-04
  91 |   0.165596E+00 |   0.432942E-07 |   0.716932E-08 |   0.250771E-05 |   0.108667E-04 |   0.100000E-04
  92 |   0.171652E+00 |   0.351051E-07 |   0.602587E-08 |   0.267037E-05 |   0.123222E-04 |   0.100000E-04
  93 |   0.165599E+00 |   0.328636E-07 |   0.544217E-08 |   0.218406E-05 |   0.824276E-05 |   0.100000E-04

 Charges are converged, EXIT

%%%% DENSITY %%%%%%%%%%%%%%%%%%%%%%%%%%%%%%%%%%%%%%%%%%%%%%%%%%%%%%%%%%%%%%%%%%%

 density label              = velectrostatic                                    

 integral of density        =  -0.1131473516E-11

%%%% CHARGES %%%%%%%%%%%%%%%%%%%%%%%%%%%%%%%%%%%%%%%%%%%%%%%%%%%%%%%%%%%%%%%%%%%

 total number of charges    =             34

 total charge               =     -1.0000000

%%%% DENSITY %%%%%%%%%%%%%%%%%%%%%%%%%%%%%%%%%%%%%%%%%%%%%%%%%%%%%%%%%%%%%%%%%%%

 density label              = vsoftcavity                                       

 integral of density        =    35.46830220    

%%%% DENSITY %%%%%%%%%%%%%%%%%%%%%%%%%%%%%%%%%%%%%%%%%%%%%%%%%%%%%%%%%%%%%%%%%%%

 density label              = dvtot                                             

 integral of density        =    35.46830220    

%%%% ELECTRONS %%%%%%%%%%%%%%%%%%%%%%%%%%%%%%%%%%%%%%%%%%%%%%%%%%%%%%%%%%%%%%%%%

 number of electrons        =             24

 total electronic charge    =     24.0000000

%%%% ELECTRONS %%%%%%%%%%%%%%%%%%%%%%%%%%%%%%%%%%%%%%%%%%%%%%%%%%%%%%%%%%%%%%%%%

 number of electrons        =             24

 total electronic charge    =     24.0000000

%%%% CHARGES %%%%%%%%%%%%%%%%%%%%%%%%%%%%%%%%%%%%%%%%%%%%%%%%%%%%%%%%%%%%%%%%%%%

 total number of charges    =             34

 total charge               =     -1.0000000

%%%% CHARGES %%%%%%%%%%%%%%%%%%%%%%%%%%%%%%%%%%%%%%%%%%%%%%%%%%%%%%%%%%%%%%%%%%%

 total number of charges    =             34

 total charge               =     -1.0000000

%%%% BOUNDARY %%%%%%%%%%%%%%%%%%%%%%%%%%%%%%%%%%%%%%%%%%%%%%%%%%%%%%%%%%%%%%%%%%

 boundary label             = solvent             
 boundary mode              = electronic          

 boundary is built as a type-2 function of a smooth density

 using the modified SCCS function:
 rhomax                     =      0.0050000
 rhomin                     =      0.0001000

 volume of the QM region    =    716.4763999

 surface of the QM region   =    413.0285700

%%%% DENSITY %%%%%%%%%%%%%%%%%%%%%%%%%%%%%%%%%%%%%%%%%%%%%%%%%%%%%%%%%%%%%%%%%%%

 density label              = dvtot                                             

 integral of density        =    35.46830220    

%%%% DENSITY %%%%%%%%%%%%%%%%%%%%%%%%%%%%%%%%%%%%%%%%%%%%%%%%%%%%%%%%%%%%%%%%%%%

 density label              = vreference                                        

 integral of density        =  -0.6302119320E-12

%%%% DENSITY %%%%%%%%%%%%%%%%%%%%%%%%%%%%%%%%%%%%%%%%%%%%%%%%%%%%%%%%%%%%%%%%%%%

 density label              = velectrostatic                                    

 integral of density        =  -0.1131473516E-11

%%%% CHARGES %%%%%%%%%%%%%%%%%%%%%%%%%%%%%%%%%%%%%%%%%%%%%%%%%%%%%%%%%%%%%%%%%%%

 total number of charges    =             34

 total charge               =     -1.0000000

%%%% DENSITY %%%%%%%%%%%%%%%%%%%%%%%%%%%%%%%%%%%%%%%%%%%%%%%%%%%%%%%%%%%%%%%%%%%

 density label              = vsoftcavity                                       

 integral of density        =    35.46830220    
