
     Program PWSCF v.6.3MaX starts on 21Apr2019 at 23:19: 5 

     This program is part of the open-source Quantum ESPRESSO suite
     for quantum simulation of materials; please cite
         "P. Giannozzi et al., J. Phys.:Condens. Matter 21 395502 (2009);
         "P. Giannozzi et al., J. Phys.:Condens. Matter 29 465901 (2017);
          URL http://www.quantum-espresso.org", 
     in publications or presentations arising from this work. More details at
     http://www.quantum-espresso.org/quote

     Parallel version (MPI), running on     1 processors

     MPI processes distributed on     1 nodes
     Reading input from charged.in

     Current dimensions of program PWSCF are:
     Max number of different atomic species (ntypx) = 10
     Max number of k-points (npk) =  40000
     Max angular momentum in pseudopotentials (lmaxx) =  3
               file C.pbe-rrkjus.UPF: wavefunction(s)  2S 2P renormalized
               file H.pbe-rrkjus.UPF: wavefunction(s)  1S renormalized
               file N.pbe-rrkjus.UPF: wavefunction(s)  2S renormalized
               file O.pbe-rrkjus.UPF: wavefunction(s)  2S renormalized

     gamma-point specific algorithms are used

     Subspace diagonalization in iterative solution of the eigenvalue problem:
     a serial algorithm will be used

 
     G-vector sticks info
     --------------------
     sticks:   dense  smooth     PW     G-vecs:    dense   smooth      PW
     Sum        9549    3809    949               701475   177509   22119
 


     bravais-lattice index     =            1
     lattice parameter (alat)  =      20.0000  a.u.
     unit-cell volume          =    8000.0000 (a.u.)^3
     number of atoms/cell      =           10
     number of atomic types    =            4
     number of electrons       =        24.00
     number of Kohn-Sham states=           12
     kinetic-energy cutoff     =      30.0000  Ry
     charge density cutoff     =     300.0000  Ry
     convergence threshold     =      5.0E-03
     mixing beta               =       0.7000
     number of iterations used =            8  plain     mixing
     Exchange-correlation      = SLA PW PBE PBE ( 1  4  3  4 0 0)
 

     Environ Module
     ==============

     Plese cite
         O. Andreussi, I. Dabo and N. Marzari, J. Chem. Phys. 136, 064102 (2012)         
     in publications or presentations arising from this work.

     compensation onset threshold      =               0.1000E+03 
     static permittivity               =                   100.00 
     epsilon calculation mode          =                   system 

     Electrostatic Setup
     -------------------
     electrostatic problem to solve    = generalized              
     numerical solver adopted          = iterative                
     type of auxiliary density adopted = full                     
     type of core tool for poisson     = fft                      
     type of core tool for s(r) deriv  = analytic                 



     celldm(1)=  20.000000  celldm(2)=   0.000000  celldm(3)=   0.000000
     celldm(4)=   0.000000  celldm(5)=   0.000000  celldm(6)=   0.000000

     crystal axes: (cart. coord. in units of alat)
               a(1) = (   1.000000   0.000000   0.000000 )  
               a(2) = (   0.000000   1.000000   0.000000 )  
               a(3) = (   0.000000   0.000000   1.000000 )  

     reciprocal axes: (cart. coord. in units 2 pi/alat)
               b(1) = (  1.000000  0.000000  0.000000 )  
               b(2) = (  0.000000  1.000000  0.000000 )  
               b(3) = (  0.000000  0.000000  1.000000 )  


     PseudoPot. # 1 for C  read from file:
     /home/fnattino/Programs/quantumespresso/q-e-qe-6.3-develop/Environ/tests/../..//pseudo/C.pbe-rrkjus.UPF
     MD5 check sum: c9ac5a99bc85b198593446162950cd17
     Pseudo is Ultrasoft, Zval =  4.0
     Generated by new atomic code, or converted to UPF format
     Using radial grid of  627 points,  4 beta functions with: 
                l(1) =   0
                l(2) =   0
                l(3) =   1
                l(4) =   1
     Q(r) pseudized with 0 coefficients 


     PseudoPot. # 2 for H  read from file:
     /home/fnattino/Programs/quantumespresso/q-e-qe-6.3-develop/Environ/tests/../..//pseudo/H.pbe-rrkjus.UPF
     MD5 check sum: 2d52a7f45632fd764c17cc6affed14c8
     Pseudo is Ultrasoft, Zval =  1.0
     Generated by new atomic code, or converted to UPF format
     Using radial grid of 1061 points,  2 beta functions with: 
                l(1) =   0
                l(2) =   0
     Q(r) pseudized with 0 coefficients 


     PseudoPot. # 3 for N  read from file:
     /home/fnattino/Programs/quantumespresso/q-e-qe-6.3-develop/Environ/tests/../..//pseudo/N.pbe-rrkjus.UPF
     MD5 check sum: 28c76d763763edb36c62a6ca2be9aebd
     Pseudo is Ultrasoft, Zval =  5.0
     Generated by new atomic code, or converted to UPF format
     Using radial grid of 1257 points,  4 beta functions with: 
                l(1) =   0
                l(2) =   0
                l(3) =   1
                l(4) =   1
     Q(r) pseudized with 0 coefficients 


     PseudoPot. # 4 for O  read from file:
     /home/fnattino/Programs/quantumespresso/q-e-qe-6.3-develop/Environ/tests/../..//pseudo/O.pbe-rrkjus.UPF
     MD5 check sum: fadcf19ee70a498d3030e2e79cf929a4
     Pseudo is Ultrasoft, Zval =  6.0
     Generated by new atomic code, or converted to UPF format
     Using radial grid of 1269 points,  4 beta functions with: 
                l(1) =   0
                l(2) =   0
                l(3) =   1
                l(4) =   1
     Q(r) pseudized with 0 coefficients 


     atomic species   valence    mass     pseudopotential
        C              4.00    12.00000     C ( 1.00)
        H              1.00     1.00000     H ( 1.00)
        N              5.00    14.00000     N ( 1.00)
        O              6.00    16.00000     O ( 1.00)

     No symmetry found



   Cartesian axes

     site n.     atom                  positions (alat units)
         1           C   tau(   1) = (   0.0000000   0.0000000   0.0000000  )
         2           C   tau(   2) = (   0.0000000   0.0000000   0.1455089  )
         3           N   tau(   3) = (   0.1170969   0.0000000  -0.0545024  )
         4           H   tau(   4) = (   0.0476617  -0.0825466   0.1792090  )
         5           H   tau(   5) = (  -0.0953183  -0.0000030   0.1792090  )
         6           H   tau(   6) = (   0.0476566   0.0825496   0.1792090  )
         7           O   tau(   7) = (  -0.0984002  -0.0000019  -0.0641310  )
         8           H   tau(   8) = (   0.1263131  -0.0000015  -0.1475548  )
         9           H   tau(   9) = (   0.1944645   0.0000134  -0.0025716  )
        10           H   tau(  10) = (  -0.0770366  -0.0000045  -0.1522861  )

     number of k points=     1
                       cart. coord. in units 2pi/alat
        k(    1) = (   0.0000000   0.0000000   0.0000000), wk =   2.0000000

     Dense  grid:   350738 G-vectors     FFT dimensions: ( 120, 120, 120)

     Smooth grid:    88755 G-vectors     FFT dimensions: (  72,  72,  72)

     Estimated max dynamical RAM per process >     691.80 MB

     Initial potential from superposition of free atoms
     Check: negative starting charge=   -0.000452

     starting charge   24.42266, renormalised to   24.00000

     negative rho (up, down):  4.438E-04 0.000E+00
     Starting wfcs are   22 randomized atomic wfcs

     total cpu time spent up to now is        4.8 secs

     Self-consistent Calculation

     iteration #  1     ecut=    30.00 Ry     beta= 0.70
     Davidson diagonalization with overlap
     ethr =  1.00E-02,  avg # of iterations =  2.0

     negative rho (up, down):  1.277E-04 0.000E+00

     add environment contribution to local potential
     polarization accuracy = 6.4E-06, # of iterations =  17

     total cpu time spent up to now is        9.9 secs

     total energy              =     -80.23905785 Ry
     Harris-Foulkes estimate   =     -83.01882218 Ry
     estimated scf accuracy    <       3.73443027 Ry
     electrostatic embedding   =       0.00000000 Ry
     correction to one-el term =       0.00000000 Ry

     iteration #  2     ecut=    30.00 Ry     beta= 0.70
     Davidson diagonalization with overlap
     ethr =  1.00E-02,  avg # of iterations = 10.0

     negative rho (up, down):  1.263E-04 0.000E+00

     add environment contribution to local potential
     polarization accuracy = 5.3E-06, # of iterations =  14

     total cpu time spent up to now is       14.9 secs

     total energy              =    -126.13774797 Ry
     Harris-Foulkes estimate   =     -56.02365806 Ry
     estimated scf accuracy    <      41.94594045 Ry
     electrostatic embedding   =     -32.26169023 Ry
     correction to one-el term =     -47.98571860 Ry

     iteration #  3     ecut=    30.00 Ry     beta= 0.70
     Davidson diagonalization with overlap
     ethr =  1.00E-02,  avg # of iterations =  1.0

     add environment contribution to local potential
     polarization accuracy = 5.6E-06, # of iterations =  16

     total cpu time spent up to now is       19.8 secs

     total energy              =    -115.74792638 Ry
     Harris-Foulkes estimate   =     -38.80336232 Ry
     estimated scf accuracy    <      31.87776437 Ry
     electrostatic embedding   =     -38.51540654 Ry
     correction to one-el term =     -59.88741849 Ry

     iteration #  4     ecut=    30.00 Ry     beta= 0.70
     Davidson diagonalization with overlap
     ethr =  1.00E-02,  avg # of iterations =  2.0

     add environment contribution to local potential
     polarization accuracy = 4.6E-06, # of iterations =  16

     total cpu time spent up to now is       24.7 secs

     total energy              =    -131.21199256 Ry
     Harris-Foulkes estimate   =       4.25003667 Ry
     estimated scf accuracy    <       9.38662382 Ry
     electrostatic embedding   =     -67.25749147 Ry
     correction to one-el term =     -76.05248688 Ry

     iteration #  5     ecut=    30.00 Ry     beta= 0.70
     Davidson diagonalization with overlap
     ethr =  1.00E-02,  avg # of iterations =  2.0

     add environment contribution to local potential
     polarization accuracy = 1.0E-05, # of iterations =   9

     total cpu time spent up to now is       28.5 secs

     total energy              =    -140.13291264 Ry
     Harris-Foulkes estimate   =      30.29890209 Ry
     estimated scf accuracy    <       0.35881335 Ry
     electrostatic embedding   =    -108.43598867 Ry
     correction to one-el term =     -62.08949428 Ry

     iteration #  6     ecut=    30.00 Ry     beta= 0.70
     Davidson diagonalization with overlap
     ethr =  1.50E-03,  avg # of iterations =  5.0

     add environment contribution to local potential
     polarization accuracy = 7.3E-06, # of iterations =   9

     total cpu time spent up to now is       32.3 secs

     total energy              =    -140.22117716 Ry
     Harris-Foulkes estimate   =      30.88853549 Ry
     estimated scf accuracy    <       0.51257658 Ry
     electrostatic embedding   =    -110.69638183 Ry
     correction to one-el term =     -60.56012426 Ry

     iteration #  7     ecut=    30.00 Ry     beta= 0.70
     Davidson diagonalization with overlap
     ethr =  1.50E-03,  avg # of iterations =  1.0

     negative rho (up, down):  4.865E-06 0.000E+00

     add environment contribution to local potential
     polarization accuracy = 3.9E-06, # of iterations =  10

     total cpu time spent up to now is       36.2 secs

     total energy              =    -140.24784506 Ry
     Harris-Foulkes estimate   =      32.01235135 Ry
     estimated scf accuracy    <       0.33350785 Ry
     electrostatic embedding   =    -113.39209131 Ry
     correction to one-el term =     -59.03343083 Ry

     iteration #  8     ecut=    30.00 Ry     beta= 0.70
     Davidson diagonalization with overlap
     ethr =  1.39E-03,  avg # of iterations =  1.0

     negative rho (up, down):  3.344E-05 0.000E+00

     add environment contribution to local potential
     polarization accuracy = 6.5E-06, # of iterations =  10

     total cpu time spent up to now is       40.1 secs

     total energy              =    -140.37143611 Ry
     Harris-Foulkes estimate   =      33.75448844 Ry
     estimated scf accuracy    <       0.14737125 Ry
     electrostatic embedding   =    -117.25411657 Ry
     correction to one-el term =     -56.97258024 Ry

     iteration #  9     ecut=    30.00 Ry     beta= 0.70
     Davidson diagonalization with overlap
     ethr =  6.14E-04,  avg # of iterations =  3.0

     negative rho (up, down):  4.591E-05 0.000E+00

     add environment contribution to local potential
     polarization accuracy = 4.5E-06, # of iterations =   6

     total cpu time spent up to now is       43.4 secs

     total energy              =    -140.51450703 Ry
     Harris-Foulkes estimate   =      35.95398173 Ry
     estimated scf accuracy    <       0.02782380 Ry
     electrostatic embedding   =    -122.48572976 Ry
     correction to one-el term =     -53.99320074 Ry

     iteration # 10     ecut=    30.00 Ry     beta= 0.70
     Davidson diagonalization with overlap
     ethr =  1.16E-04,  avg # of iterations =  5.0

     negative rho (up, down):  1.890E-04 0.000E+00

     add environment contribution to local potential
     polarization accuracy = 7.9E-06, # of iterations =   7

     total cpu time spent up to now is       47.0 secs

     total energy              =    -140.54758898 Ry
     Harris-Foulkes estimate   =      36.28980713 Ry
     estimated scf accuracy    <       0.06808301 Ry
     electrostatic embedding   =    -123.22972336 Ry
     correction to one-el term =     -53.60613319 Ry

     iteration # 11     ecut=    30.00 Ry     beta= 0.70
     Davidson diagonalization with overlap
     ethr =  1.16E-04,  avg # of iterations =  1.0

     negative rho (up, down):  1.399E-04 0.000E+00

     add environment contribution to local potential
     polarization accuracy = 6.2E-06, # of iterations =   7

     total cpu time spent up to now is       50.4 secs

     total energy              =    -140.49948540 Ry
     Harris-Foulkes estimate   =      36.35809214 Ry
     estimated scf accuracy    <       0.06812872 Ry
     electrostatic embedding   =    -123.90633036 Ry
     correction to one-el term =     -52.99646233 Ry

     iteration # 12     ecut=    30.00 Ry     beta= 0.70
     Davidson diagonalization with overlap
     ethr =  1.16E-04,  avg # of iterations =  2.0

     negative rho (up, down):  1.323E-04 0.000E+00

     add environment contribution to local potential
     polarization accuracy = 8.7E-06, # of iterations =   5

     total cpu time spent up to now is       53.5 secs

     total energy              =    -140.54748996 Ry
     Harris-Foulkes estimate   =      37.36446317 Ry
     estimated scf accuracy    <       0.02274921 Ry
     electrostatic embedding   =    -125.32964912 Ry
     correction to one-el term =     -52.59623292 Ry

     iteration # 13     ecut=    30.00 Ry     beta= 0.70
     Davidson diagonalization with overlap
     ethr =  9.48E-05,  avg # of iterations =  3.0

     negative rho (up, down):  1.212E-04 0.000E+00

     add environment contribution to local potential
     polarization accuracy = 9.3E-06, # of iterations =   4

     total cpu time spent up to now is       56.4 secs

     total energy              =    -140.56103684 Ry
     Harris-Foulkes estimate   =      37.85586382 Ry
     estimated scf accuracy    <       0.01105063 Ry
     electrostatic embedding   =    -126.12330466 Ry
     correction to one-el term =     -52.29953913 Ry

     iteration # 14     ecut=    30.00 Ry     beta= 0.70
     Davidson diagonalization with overlap
     ethr =  4.60E-05,  avg # of iterations =  5.0

     negative rho (up, down):  1.202E-04 0.000E+00

     add environment contribution to local potential
     polarization accuracy = 9.1E-06, # of iterations =   3

     total cpu time spent up to now is       59.3 secs

     total energy              =    -140.56842422 Ry
     Harris-Foulkes estimate   =      38.13096268 Ry
     estimated scf accuracy    <       0.02144594 Ry
     electrostatic embedding   =    -126.52274189 Ry
     correction to one-el term =     -52.17962126 Ry

     iteration # 15     ecut=    30.00 Ry     beta= 0.70
     Davidson diagonalization with overlap
     ethr =  4.60E-05,  avg # of iterations =  1.0

     negative rho (up, down):  1.202E-04 0.000E+00

     add environment contribution to local potential
     polarization accuracy = 4.8E-06, # of iterations =   6

     total cpu time spent up to now is       62.5 secs

     total energy              =    -140.56110859 Ry
     Harris-Foulkes estimate   =      38.21601257 Ry
     estimated scf accuracy    <       0.01854145 Ry
     electrostatic embedding   =    -126.68721574 Ry
     correction to one-el term =     -52.10325648 Ry

     iteration # 16     ecut=    30.00 Ry     beta= 0.70
     Davidson diagonalization with overlap
     ethr =  4.60E-05,  avg # of iterations =  3.0

     negative rho (up, down):  1.201E-04 0.000E+00

     add environment contribution to local potential
     polarization accuracy = 5.2E-06, # of iterations =   2

     total cpu time spent up to now is       65.1 secs

     total energy              =    -140.57946854 Ry
     Harris-Foulkes estimate   =      38.83347312 Ry
     estimated scf accuracy    <       0.00939860 Ry
     electrostatic embedding   =    -127.76126223 Ry
     correction to one-el term =     -51.65037230 Ry

     iteration # 17     ecut=    30.00 Ry     beta= 0.70
     Davidson diagonalization with overlap
     ethr =  3.92E-05,  avg # of iterations =  1.0

     negative rho (up, down):  1.150E-04 0.000E+00

     add environment contribution to local potential
     polarization accuracy = 6.9E-06, # of iterations =   6

     total cpu time spent up to now is       68.4 secs

     total energy              =    -140.59193913 Ry
     Harris-Foulkes estimate   =      38.77905655 Ry
     estimated scf accuracy    <       0.01099065 Ry
     electrostatic embedding   =    -127.66854105 Ry
     correction to one-el term =     -51.68814390 Ry

     iteration # 18     ecut=    30.00 Ry     beta= 0.70
     Davidson diagonalization with overlap
     ethr =  3.92E-05,  avg # of iterations =  2.0

     negative rho (up, down):  9.395E-05 0.000E+00

     add environment contribution to local potential
     polarization accuracy = 5.7E-06, # of iterations =   4

     total cpu time spent up to now is       71.3 secs

     total energy              =    -140.56286239 Ry
     Harris-Foulkes estimate   =      38.38202471 Ry
     estimated scf accuracy    <       0.02367126 Ry
     electrostatic embedding   =    -127.05232314 Ry
     correction to one-el term =     -51.90359470 Ry

     iteration # 19     ecut=    30.00 Ry     beta= 0.70
     Davidson diagonalization with overlap
     ethr =  3.92E-05,  avg # of iterations =  1.0

     negative rho (up, down):  1.042E-04 0.000E+00

     add environment contribution to local potential
     polarization accuracy = 5.6E-06, # of iterations =   4

     total cpu time spent up to now is       74.2 secs

     total energy              =    -140.58447215 Ry
     Harris-Foulkes estimate   =      38.69599055 Ry
     estimated scf accuracy    <       0.01046155 Ry
     electrostatic embedding   =    -127.55356503 Ry
     correction to one-el term =     -51.72002007 Ry

     iteration # 20     ecut=    30.00 Ry     beta= 0.70
     Davidson diagonalization with overlap
     ethr =  3.92E-05,  avg # of iterations =  1.0

     negative rho (up, down):  1.075E-04 0.000E+00

     add environment contribution to local potential
     polarization accuracy = 4.1E-06, # of iterations =   3

     total cpu time spent up to now is       76.9 secs

     total energy              =    -140.57842602 Ry
     Harris-Foulkes estimate   =      38.48680762 Ry
     estimated scf accuracy    <       0.01871580 Ry
     electrostatic embedding   =    -127.21243322 Ry
     correction to one-el term =     -51.85086560 Ry

     iteration # 21     ecut=    30.00 Ry     beta= 0.70
     Davidson diagonalization with overlap
     ethr =  3.92E-05,  avg # of iterations =  1.0

     negative rho (up, down):  1.059E-04 0.000E+00

     add environment contribution to local potential
     polarization accuracy = 4.6E-06, # of iterations =   4

     total cpu time spent up to now is       79.8 secs

     total energy              =    -140.57329610 Ry
     Harris-Foulkes estimate   =      38.43925363 Ry
     estimated scf accuracy    <       0.02044735 Ry
     electrostatic embedding   =    -127.16566482 Ry
     correction to one-el term =     -51.85027554 Ry

     iteration # 22     ecut=    30.00 Ry     beta= 0.70
     Davidson diagonalization with overlap
     ethr =  3.92E-05,  avg # of iterations =  1.0

     negative rho (up, down):  1.108E-04 0.000E+00

     add environment contribution to local potential
     polarization accuracy = 4.4E-06, # of iterations =   8

     total cpu time spent up to now is       83.4 secs

     total energy              =    -140.56528491 Ry
     Harris-Foulkes estimate   =      38.53015685 Ry
     estimated scf accuracy    <       0.01625355 Ry
     electrostatic embedding   =    -127.29594520 Ry
     correction to one-el term =     -51.81019281 Ry

     iteration # 23     ecut=    30.00 Ry     beta= 0.70
     Davidson diagonalization with overlap
     ethr =  3.92E-05,  avg # of iterations =  5.0

     negative rho (up, down):  1.176E-04 0.000E+00

     add environment contribution to local potential
     polarization accuracy = 6.7E-06, # of iterations =   5

     total cpu time spent up to now is       86.9 secs

     total energy              =    -140.58401073 Ry
     Harris-Foulkes estimate   =      39.52978423 Ry
     estimated scf accuracy    <       0.00613702 Ry
     electrostatic embedding   =    -128.90891472 Ry
     correction to one-el term =     -51.20466555 Ry

     iteration # 24     ecut=    30.00 Ry     beta= 0.70
     Davidson diagonalization with overlap
     ethr =  2.56E-05,  avg # of iterations =  1.0

     negative rho (up, down):  1.197E-04 0.000E+00

     add environment contribution to local potential
     polarization accuracy = 5.0E-06, # of iterations =   5

     total cpu time spent up to now is       90.0 secs

     total energy              =    -140.58617309 Ry
     Harris-Foulkes estimate   =      39.54033799 Ry
     estimated scf accuracy    <       0.00622939 Ry
     electrostatic embedding   =    -128.92537728 Ry
     correction to one-el term =     -51.19840513 Ry

     iteration # 25     ecut=    30.00 Ry     beta= 0.70
     Davidson diagonalization with overlap
     ethr =  2.56E-05,  avg # of iterations =  1.0

     negative rho (up, down):  1.227E-04 0.000E+00

     add environment contribution to local potential
     polarization accuracy = 7.8E-06, # of iterations =   5

     total cpu time spent up to now is       93.1 secs

     total energy              =    -140.58317582 Ry
     Harris-Foulkes estimate   =      39.37996400 Ry
     estimated scf accuracy    <       0.00874418 Ry
     electrostatic embedding   =    -128.60549008 Ry
     correction to one-el term =     -51.35775866 Ry

     iteration # 26     ecut=    30.00 Ry     beta= 0.70
     Davidson diagonalization with overlap
     ethr =  2.56E-05,  avg # of iterations =  4.0

     negative rho (up, down):  1.203E-04 0.000E+00

     add environment contribution to local potential
     polarization accuracy = 5.2E-06, # of iterations =   3

     total cpu time spent up to now is       95.9 secs

     total energy              =    -140.58308884 Ry
     Harris-Foulkes estimate   =      39.39139201 Ry
     estimated scf accuracy    <       0.00641485 Ry
     electrostatic embedding   =    -128.51396733 Ry
     correction to one-el term =     -51.46053262 Ry

     iteration # 27     ecut=    30.00 Ry     beta= 0.70
     Davidson diagonalization with overlap
     ethr =  2.56E-05,  avg # of iterations =  1.0

     negative rho (up, down):  1.218E-04 0.000E+00

     add environment contribution to local potential
     polarization accuracy = 6.3E-06, # of iterations =   4

     total cpu time spent up to now is       98.9 secs

     total energy              =    -140.58458614 Ry
     Harris-Foulkes estimate   =      39.39586491 Ry
     estimated scf accuracy    <       0.00622781 Ry
     electrostatic embedding   =    -128.50590142 Ry
     correction to one-el term =     -51.47468272 Ry

     iteration # 28     ecut=    30.00 Ry     beta= 0.70
     Davidson diagonalization with overlap
     ethr =  2.56E-05,  avg # of iterations =  1.0

     negative rho (up, down):  1.195E-04 0.000E+00

     add environment contribution to local potential
     polarization accuracy = 3.1E-06, # of iterations =   5

     total cpu time spent up to now is      102.0 secs

     total energy              =    -140.58416437 Ry
     Harris-Foulkes estimate   =      39.44092133 Ry
     estimated scf accuracy    <       0.00580287 Ry
     electrostatic embedding   =    -128.58210065 Ry
     correction to one-el term =     -51.44192714 Ry

     iteration # 29     ecut=    30.00 Ry     beta= 0.70
     Davidson diagonalization with overlap
     ethr =  2.42E-05,  avg # of iterations =  1.0

     negative rho (up, down):  1.098E-04 0.000E+00

     add environment contribution to local potential
     polarization accuracy = 8.1E-06, # of iterations =   5

     total cpu time spent up to now is      105.0 secs

     total energy              =    -140.58071988 Ry
     Harris-Foulkes estimate   =      39.36812343 Ry
     estimated scf accuracy    <       0.00677554 Ry
     electrostatic embedding   =    -128.44550359 Ry
     correction to one-el term =     -51.50593357 Ry

     iteration # 30     ecut=    30.00 Ry     beta= 0.70
     Davidson diagonalization with overlap
     ethr =  2.42E-05,  avg # of iterations =  1.0

     negative rho (up, down):  1.228E-04 0.000E+00

     the potential shift due to the Gaussian-smeared nuclei is    -0.0668 ev

     total cpu time spent up to now is      106.9 secs

     End of self-consistent calculation

          k = 0.0000 0.0000 0.0000 ( 11060 PWs)   bands (ev):

   -11.7099  -5.0435  -4.8054  -4.3470  -4.1412  -3.1118  -2.7950  -2.6548
    -2.5225  -2.4511  -2.3853  -2.1368

     highest occupied level (ev):    -2.1368

!    total energy              =    -140.58147600 Ry
     Harris-Foulkes estimate   =      39.47079658 Ry
     estimated scf accuracy    <       0.00338375 Ry

     The total energy is the sum of the following terms:

     one-electron contribution =     -35.58000503 Ry
     hartree contribution      =      20.56941945 Ry
     xc contribution           =      -9.82403475 Ry
     ewald contribution        =      64.30784006 Ry
     electrostatic embedding   =    -128.59903138 Ry
     correction to one-el term =     -51.45566435 Ry

     convergence has been achieved in  30 iterations

     Forces acting on atoms (cartesian axes, Ry/au):

     atom    1 type  1   force =    -0.21934060    0.00002431    0.94057915
     atom    2 type  1   force =    -0.34467240    0.00044562    0.99224581
     atom    3 type  3   force =     7.86502486    0.00000738   -3.87389366
     atom    4 type  2   force =    -0.31344991   -0.02957472    0.74895446
     atom    5 type  2   force =    -0.36496173   -0.00025476    0.75054283
     atom    6 type  2   force =    -0.31344167    0.02923581    0.74856286
     atom    7 type  4   force =    -5.38509793    0.00070554   -2.45034812
     atom    8 type  2   force =    -0.32852155   -0.00031403    0.68652970
     atom    9 type  2   force =    -0.28767396   -0.00024261    0.77513832
     atom   10 type  2   force =    -0.30786511   -0.00003254    0.68168866

     Total force =    10.850974     Total SCF correction =     0.031242

     Writing output data file pwscf.save/
 
     init_run     :      3.77s CPU      4.18s WALL (       1 calls)
     electrons    :     85.16s CPU    102.03s WALL (       1 calls)
     forces       :      1.14s CPU      1.37s WALL (       1 calls)

     Called by init_run:
     wfcinit      :      0.13s CPU      0.13s WALL (       1 calls)
     potinit      :      0.88s CPU      0.96s WALL (       1 calls)
     hinit0       :      2.37s CPU      2.42s WALL (       1 calls)

     Called by electrons:
     c_bands      :      5.82s CPU      5.83s WALL (      30 calls)
     sum_band     :     11.99s CPU     17.07s WALL (      30 calls)
     v_of_rho     :     17.62s CPU     18.92s WALL (      31 calls)
     newd         :      7.55s CPU     13.51s WALL (      31 calls)
     mix_rho      :      1.97s CPU      1.97s WALL (      30 calls)

     Called by c_bands:
     init_us_2    :      0.26s CPU      0.28s WALL (      61 calls)
     regterg      :      5.37s CPU      5.39s WALL (      30 calls)

     Called by sum_band:
     sum_band:bec :      0.00s CPU      0.00s WALL (      30 calls)
     addusdens    :      9.74s CPU     14.82s WALL (      30 calls)

     Called by *egterg:
     h_psi        :      5.05s CPU      5.06s WALL (     100 calls)
     s_psi        :      0.10s CPU      0.07s WALL (     100 calls)
     g_psi        :      0.05s CPU      0.04s WALL (      69 calls)
     rdiaghg      :      0.02s CPU      0.02s WALL (      99 calls)

     Called by h_psi:
     h_psi:pot    :      5.02s CPU      5.05s WALL (     100 calls)
     h_psi:calbec :      0.08s CPU      0.11s WALL (     100 calls)
     vloc_psi     :      4.84s CPU      4.85s WALL (     100 calls)
     add_vuspsi   :      0.10s CPU      0.09s WALL (     100 calls)

     General routines
     calbec       :      0.11s CPU      0.15s WALL (     134 calls)
     fft          :     23.80s CPU     23.95s WALL (    1387 calls)
     ffts         :      0.20s CPU      0.18s WALL (      61 calls)
     fftw         :      4.51s CPU      4.52s WALL (    1118 calls)
     interpolate  :      0.82s CPU      1.00s WALL (      31 calls)
 
     Parallel routines
 
     Environ routines
     calc_eelect  :      0.08s CPU      0.09s WALL (      60 calls)
     calc_velect  :     34.86s CPU     38.88s WALL (      58 calls)
     dielectric   :      0.08s CPU      0.08s WALL (       2 calls)
     calc_felect  :      0.08s CPU      0.09s WALL (       1 calls)
 
     PWSCF        :  1m30.72s CPU     1m48.27s WALL

 
   This run was terminated on:  23:20:53  21Apr2019            

=------------------------------------------------------------------------------=
   JOB DONE.
=------------------------------------------------------------------------------=

%%%% IONS %%%%%%%%%%%%%%%%%%%%%%%%%%%%%%%%%%%%%%%%%%%%%%%%%%%%%%%%%%%%%%%%%%%%%%
 number of ions             =         10
 ionic center of charge     =      0.0095530    -0.0000002     0.0063981
 total ionic charge         =    -25.0000000
 ionic dipole               =      0.0000000     0.0000000     0.0000000
 ionic quadrupole (pc)      =    -79.0828058    -5.4513517  -105.8059629
 ionic quadrupole (gauss)   =    -82.2078058    -8.5763517  -108.9309629
 ion   1 type =  1 coordinates =      0.0000000     0.0000000     0.0000000
 ion   2 type =  1 coordinates =      0.0000000     0.0000000     2.9101782
 ion   3 type =  3 coordinates =      2.3419379     0.0000000    -1.0900479
 ion   4 type =  2 coordinates =      0.9532347    -1.6509323     3.5841800
 ion   5 type =  2 coordinates =     -1.9063663    -0.0000596     3.5841809
 ion   6 type =  2 coordinates =      0.9531315     1.6509919     3.5841800
 ion   7 type =  4 coordinates =     -1.9680045    -0.0000375    -1.2826193
 ion   8 type =  2 coordinates =      2.5262613    -0.0000303    -2.9510950
 ion   9 type =  2 coordinates =      3.8892907     0.0002681    -0.0514326
 ion  10 type =  2 coordinates =     -1.5407317    -0.0000890    -3.0457220

%%%% SYSTEM %%%%%%%%%%%%%%%%%%%%%%%%%%%%%%%%%%%%%%%%%%%%%%%%%%%%%%%%%%%%%%%%%%%%
 system is built from all present ionic types
 system defined dimension   =  0 
 system defined axis        =  3 
 system center              =      0.0095530    -0.0000002     0.0063981 
 system width               =      0.2021425 

%%%% BOUNDARY %%%%%%%%%%%%%%%%%%%%%%%%%%%%%%%%%%%%%%%%%%%%%%%%%%%%%%%%%%%%%%%%%%
 boundary label             = solvent              
 boundary mode              = system               
 boundary is built as an analytic function centered on system position
 center of the boundary     =      0.0095530    -0.0000002     0.0063981 
 distance from the center   =      3.0000000 
 spread of the interface    =      0.5000000 
 dimensionality             =  0 
 axis                       =  3 
 volume of the QM region    =    117.8097245 
 surface of the QM region   =    114.6681319 

%%%% DIELECTRIC %%%%%%%%%%%%%%%%%%%%%%%%%%%%%%%%%%%%%%%%%%%%%%%%%%%%%%%%%%%%%%%%%
 dielectric build on homogeneous background
 environment bulk permitt.  =    100.0000000 
 dielectric flags
 need gradient              =  F 
 need factor depend. sqrt   =  F 
 total dielectric charge    =      0.0000000

%%%% ELECTRONS %%%%%%%%%%%%%%%%%%%%%%%%%%%%%%%%%%%%%%%%%%%%%%%%%%%%%%%%%%%%%%%%%
 number of electrons        =         24
 total electronic charge    =     24.0000000
 number of spin components  =  1

%%%% DENSITY %%%%%%%%%%%%%%%%%%%%%%%%%%%%%%%%%%%%%%%%%%%%%%%%%%%%%%%%%%%%%%%%%%%
 density label              = vreference                                                                      
 integral of density        =      0.000000000    

%%%% DENSITY %%%%%%%%%%%%%%%%%%%%%%%%%%%%%%%%%%%%%%%%%%%%%%%%%%%%%%%%%%%%%%%%%%%
 density label              = velectrostatic                                                                  
 integral of density        =      0.000000000    

%%%% CHARGES %%%%%%%%%%%%%%%%%%%%%%%%%%%%%%%%%%%%%%%%%%%%%%%%%%%%%%%%%%%%%%%%%%%
 total number of charges    =         34
 total charge               =     -1.0000000

%%%% ELECTRONS %%%%%%%%%%%%%%%%%%%%%%%%%%%%%%%%%%%%%%%%%%%%%%%%%%%%%%%%%%%%%%%%%
 number of electrons        =         24
 total electronic charge    =     24.0000000
 number of spin components  =  1

%%%% DENSITY %%%%%%%%%%%%%%%%%%%%%%%%%%%%%%%%%%%%%%%%%%%%%%%%%%%%%%%%%%%%%%%%%%%
 density label              = vreference                                                                      
 integral of density        =    -0.1947413424E-12

%%%% COMPUTE ELECTROSTATIC POTENTIAL %%%%%%%%%%%%%%%%%%%%%%%%%%%%%%%%%%%%%%%%%%%
 Starting from polarization: rhoiter =      0.000000 jellium =      0.000000
 Iteration #          1
 delta_qm =   0.500070E-02 delta_en =   0.432121E+02 tol =   0.100000E-04
 Iteration #          2
 delta_qm =   0.307043E-02 delta_en =   0.162908E+02 tol =   0.100000E-04
 Iteration #          3
 delta_qm =   0.179617E-02 delta_en =   0.557492E+01 tol =   0.100000E-04
 Iteration #          4
 delta_qm =   0.104530E-02 delta_en =   0.188809E+01 tol =   0.100000E-04
 Iteration #          5
 delta_qm =   0.613505E-03 delta_en =   0.650400E+00 tol =   0.100000E-04
 Iteration #          6
 delta_qm =   0.376985E-03 delta_en =   0.245580E+00 tol =   0.100000E-04
 Iteration #          7
 delta_qm =   0.235166E-03 delta_en =   0.955637E-01 tol =   0.100000E-04
 Iteration #          8
 delta_qm =   0.138854E-03 delta_en =   0.333167E-01 tol =   0.100000E-04
 Iteration #          9
 delta_qm =   0.815628E-04 delta_en =   0.114955E-01 tol =   0.100000E-04
 Iteration #         10
 delta_qm =   0.524162E-04 delta_en =   0.474760E-02 tol =   0.100000E-04
 Iteration #         11
 delta_qm =   0.332110E-04 delta_en =   0.190593E-02 tol =   0.100000E-04
 Iteration #         12
 delta_qm =   0.194336E-04 delta_en =   0.652606E-03 tol =   0.100000E-04
 Iteration #         13
 delta_qm =   0.119731E-04 delta_en =   0.247720E-03 tol =   0.100000E-04
 Iteration #         14
 delta_qm =   0.788930E-05 delta_en =   0.107553E-03 tol =   0.100000E-04
 Iteration #         15
 delta_qm =   0.488030E-05 delta_en =   0.411563E-04 tol =   0.100000E-04
 Iteration #         16
 delta_qm =   0.297870E-05 delta_en =   0.153320E-04 tol =   0.100000E-04
 Iteration #         17
 delta_qm =   0.192735E-05 delta_en =   0.641895E-05 tol =   0.100000E-04
 Charges are converged, EXIT

%%%% DENSITY %%%%%%%%%%%%%%%%%%%%%%%%%%%%%%%%%%%%%%%%%%%%%%%%%%%%%%%%%%%%%%%%%%%
 density label              = velectrostatic                                                                  
 integral of density        =    -0.1100354376E-12

%%%% CHARGES %%%%%%%%%%%%%%%%%%%%%%%%%%%%%%%%%%%%%%%%%%%%%%%%%%%%%%%%%%%%%%%%%%%
 total number of charges    =         34
 total charge               =     -1.0000000

%%%% ELECTRONS %%%%%%%%%%%%%%%%%%%%%%%%%%%%%%%%%%%%%%%%%%%%%%%%%%%%%%%%%%%%%%%%%
 number of electrons        =         24
 total electronic charge    =     24.0000000
 number of spin components  =  1

%%%% DENSITY %%%%%%%%%%%%%%%%%%%%%%%%%%%%%%%%%%%%%%%%%%%%%%%%%%%%%%%%%%%%%%%%%%%
 density label              = vreference                                                                      
 integral of density        =     0.3919169516E-12

%%%% COMPUTE ELECTROSTATIC POTENTIAL %%%%%%%%%%%%%%%%%%%%%%%%%%%%%%%%%%%%%%%%%%%
 Starting from polarization: rhoiter =      0.078483 jellium =      0.000000
 Iteration #          1
 delta_qm =   0.181193E-02 delta_en =   0.567318E+01 tol =   0.100000E-04
 Iteration #          2
 delta_qm =   0.104002E-02 delta_en =   0.186906E+01 tol =   0.100000E-04
 Iteration #          3
 delta_qm =   0.375518E-03 delta_en =   0.243672E+00 tol =   0.100000E-04
 Iteration #          4
 delta_qm =   0.233353E-03 delta_en =   0.940957E-01 tol =   0.100000E-04
 Iteration #          5
 delta_qm =   0.138064E-03 delta_en =   0.329386E-01 tol =   0.100000E-04
 Iteration #          6
 delta_qm =   0.763233E-04 delta_en =   0.100660E-01 tol =   0.100000E-04
 Iteration #          7
 delta_qm =   0.467568E-04 delta_en =   0.377776E-02 tol =   0.100000E-04
 Iteration #          8
 delta_qm =   0.299110E-04 delta_en =   0.154598E-02 tol =   0.100000E-04
 Iteration #          9
 delta_qm =   0.184158E-04 delta_en =   0.586039E-03 tol =   0.100000E-04
 Iteration #         10
 delta_qm =   0.111778E-04 delta_en =   0.215903E-03 tol =   0.100000E-04
 Iteration #         11
 delta_qm =   0.695005E-05 delta_en =   0.834678E-04 tol =   0.100000E-04
 Iteration #         12
 delta_qm =   0.446998E-05 delta_en =   0.345267E-04 tol =   0.100000E-04
 Iteration #         13
 delta_qm =   0.287103E-05 delta_en =   0.142436E-04 tol =   0.100000E-04
 Iteration #         14
 delta_qm =   0.174912E-05 delta_en =   0.528670E-05 tol =   0.100000E-04
 Charges are converged, EXIT

%%%% DENSITY %%%%%%%%%%%%%%%%%%%%%%%%%%%%%%%%%%%%%%%%%%%%%%%%%%%%%%%%%%%%%%%%%%%
 density label              = velectrostatic                                                                  
 integral of density        =     0.7345564486E-13

%%%% CHARGES %%%%%%%%%%%%%%%%%%%%%%%%%%%%%%%%%%%%%%%%%%%%%%%%%%%%%%%%%%%%%%%%%%%
 total number of charges    =         34
 total charge               =     -1.0000000

%%%% ELECTRONS %%%%%%%%%%%%%%%%%%%%%%%%%%%%%%%%%%%%%%%%%%%%%%%%%%%%%%%%%%%%%%%%%
 number of electrons        =         24
 total electronic charge    =     24.0000000
 number of spin components  =  1

%%%% DENSITY %%%%%%%%%%%%%%%%%%%%%%%%%%%%%%%%%%%%%%%%%%%%%%%%%%%%%%%%%%%%%%%%%%%
 density label              = vreference                                                                      
 integral of density        =     0.8904811045E-12

%%%% COMPUTE ELECTROSTATIC POTENTIAL %%%%%%%%%%%%%%%%%%%%%%%%%%%%%%%%%%%%%%%%%%%
 Starting from polarization: rhoiter =      0.430358 jellium =      0.000000
 Iteration #          1
 delta_qm =   0.419918E-02 delta_en =   0.304700E+02 tol =   0.100000E-04
 Iteration #          2
 delta_qm =   0.232928E-02 delta_en =   0.937536E+01 tol =   0.100000E-04
 Iteration #          3
 delta_qm =   0.884022E-03 delta_en =   0.135042E+01 tol =   0.100000E-04
 Iteration #          4
 delta_qm =   0.545739E-03 delta_en =   0.514652E+00 tol =   0.100000E-04
 Iteration #          5
 delta_qm =   0.334009E-03 delta_en =   0.192779E+00 tol =   0.100000E-04
 Iteration #          6
 delta_qm =   0.187856E-03 delta_en =   0.609808E-01 tol =   0.100000E-04
 Iteration #          7
 delta_qm =   0.114113E-03 delta_en =   0.225018E-01 tol =   0.100000E-04
 Iteration #          8
 delta_qm =   0.736802E-04 delta_en =   0.938093E-02 tol =   0.100000E-04
 Iteration #          9
 delta_qm =   0.458416E-04 delta_en =   0.363131E-02 tol =   0.100000E-04
 Iteration #         10
 delta_qm =   0.275697E-04 delta_en =   0.131343E-02 tol =   0.100000E-04
 Iteration #         11
 delta_qm =   0.170770E-04 delta_en =   0.503927E-03 tol =   0.100000E-04
 Iteration #         12
 delta_qm =   0.110816E-04 delta_en =   0.212201E-03 tol =   0.100000E-04
 Iteration #         13
 delta_qm =   0.708586E-05 delta_en =   0.867618E-04 tol =   0.100000E-04
 Iteration #         14
 delta_qm =   0.428570E-05 delta_en =   0.317386E-04 tol =   0.100000E-04
 Iteration #         15
 delta_qm =   0.267029E-05 delta_en =   0.123214E-04 tol =   0.100000E-04
 Iteration #         16
 delta_qm =   0.179838E-05 delta_en =   0.558867E-05 tol =   0.100000E-04
 Charges are converged, EXIT

%%%% DENSITY %%%%%%%%%%%%%%%%%%%%%%%%%%%%%%%%%%%%%%%%%%%%%%%%%%%%%%%%%%%%%%%%%%%
 density label              = velectrostatic                                                                  
 integral of density        =    -0.5509995752E-14

%%%% CHARGES %%%%%%%%%%%%%%%%%%%%%%%%%%%%%%%%%%%%%%%%%%%%%%%%%%%%%%%%%%%%%%%%%%%
 total number of charges    =         34
 total charge               =     -1.0000000

%%%% ELECTRONS %%%%%%%%%%%%%%%%%%%%%%%%%%%%%%%%%%%%%%%%%%%%%%%%%%%%%%%%%%%%%%%%%
 number of electrons        =         24
 total electronic charge    =     24.0000000
 number of spin components  =  1

%%%% DENSITY %%%%%%%%%%%%%%%%%%%%%%%%%%%%%%%%%%%%%%%%%%%%%%%%%%%%%%%%%%%%%%%%%%%
 density label              = vreference                                                                      
 integral of density        =     0.8202163228E-12

%%%% COMPUTE ELECTROSTATIC POTENTIAL %%%%%%%%%%%%%%%%%%%%%%%%%%%%%%%%%%%%%%%%%%%
 Starting from polarization: rhoiter =      1.250066 jellium =      0.000000
 Iteration #          1
 delta_qm =   0.383016E-02 delta_en =   0.253499E+02 tol =   0.100000E-04
 Iteration #          2
 delta_qm =   0.212919E-02 delta_en =   0.783380E+01 tol =   0.100000E-04
 Iteration #          3
 delta_qm =   0.805970E-03 delta_en =   0.112249E+01 tol =   0.100000E-04
 Iteration #          4
 delta_qm =   0.497164E-03 delta_en =   0.427113E+00 tol =   0.100000E-04
 Iteration #          5
 delta_qm =   0.304812E-03 delta_en =   0.160549E+00 tol =   0.100000E-04
 Iteration #          6
 delta_qm =   0.171109E-03 delta_en =   0.505931E-01 tol =   0.100000E-04
 Iteration #          7
 delta_qm =   0.103521E-03 delta_en =   0.185184E-01 tol =   0.100000E-04
 Iteration #          8
 delta_qm =   0.670404E-04 delta_en =   0.776635E-02 tol =   0.100000E-04
 Iteration #          9
 delta_qm =   0.417432E-04 delta_en =   0.301102E-02 tol =   0.100000E-04
 Iteration #         10
 delta_qm =   0.249796E-04 delta_en =   0.107824E-02 tol =   0.100000E-04
 Iteration #         11
 delta_qm =   0.154758E-04 delta_en =   0.413854E-03 tol =   0.100000E-04
 Iteration #         12
 delta_qm =   0.100658E-04 delta_en =   0.175082E-03 tol =   0.100000E-04
 Iteration #         13
 delta_qm =   0.641525E-05 delta_en =   0.711167E-04 tol =   0.100000E-04
 Iteration #         14
 delta_qm =   0.387561E-05 delta_en =   0.259552E-04 tol =   0.100000E-04
 Iteration #         15
 delta_qm =   0.241886E-05 delta_en =   0.101103E-04 tol =   0.100000E-04
 Iteration #         16
 delta_qm =   0.162419E-05 delta_en =   0.455847E-05 tol =   0.100000E-04
 Charges are converged, EXIT

%%%% DENSITY %%%%%%%%%%%%%%%%%%%%%%%%%%%%%%%%%%%%%%%%%%%%%%%%%%%%%%%%%%%%%%%%%%%
 density label              = velectrostatic                                                                  
 integral of density        =    -0.6628442651E-13

%%%% CHARGES %%%%%%%%%%%%%%%%%%%%%%%%%%%%%%%%%%%%%%%%%%%%%%%%%%%%%%%%%%%%%%%%%%%
 total number of charges    =         34
 total charge               =     -1.0000000

%%%% ELECTRONS %%%%%%%%%%%%%%%%%%%%%%%%%%%%%%%%%%%%%%%%%%%%%%%%%%%%%%%%%%%%%%%%%
 number of electrons        =         24
 total electronic charge    =     24.0000000
 number of spin components  =  1

%%%% DENSITY %%%%%%%%%%%%%%%%%%%%%%%%%%%%%%%%%%%%%%%%%%%%%%%%%%%%%%%%%%%%%%%%%%%
 density label              = vreference                                                                      
 integral of density        =     0.5534930539E-11

%%%% COMPUTE ELECTROSTATIC POTENTIAL %%%%%%%%%%%%%%%%%%%%%%%%%%%%%%%%%%%%%%%%%%%
 Starting from polarization: rhoiter =      1.997440 jellium =      0.000000
 Iteration #          1
 delta_qm =   0.278056E-03 delta_en =   0.133600E+00 tol =   0.100000E-04
 Iteration #          2
 delta_qm =   0.198803E-03 delta_en =   0.682948E-01 tol =   0.100000E-04
 Iteration #          3
 delta_qm =   0.660512E-04 delta_en =   0.753885E-02 tol =   0.100000E-04
 Iteration #          4
 delta_qm =   0.416137E-04 delta_en =   0.299238E-02 tol =   0.100000E-04
 Iteration #          5
 delta_qm =   0.214329E-04 delta_en =   0.793791E-03 tol =   0.100000E-04
 Iteration #          6
 delta_qm =   0.113066E-04 delta_en =   0.220908E-03 tol =   0.100000E-04
 Iteration #          7
 delta_qm =   0.655083E-05 delta_en =   0.741544E-04 tol =   0.100000E-04
 Iteration #          8
 delta_qm =   0.388917E-05 delta_en =   0.261371E-04 tol =   0.100000E-04
 Iteration #          9
 delta_qm =   0.240326E-05 delta_en =   0.998035E-05 tol =   0.100000E-04
 Charges are converged, EXIT

%%%% DENSITY %%%%%%%%%%%%%%%%%%%%%%%%%%%%%%%%%%%%%%%%%%%%%%%%%%%%%%%%%%%%%%%%%%%
 density label              = velectrostatic                                                                  
 integral of density        =     0.9309425658E-14

%%%% CHARGES %%%%%%%%%%%%%%%%%%%%%%%%%%%%%%%%%%%%%%%%%%%%%%%%%%%%%%%%%%%%%%%%%%%
 total number of charges    =         34
 total charge               =     -1.0000000

%%%% ELECTRONS %%%%%%%%%%%%%%%%%%%%%%%%%%%%%%%%%%%%%%%%%%%%%%%%%%%%%%%%%%%%%%%%%
 number of electrons        =         24
 total electronic charge    =     24.0000000
 number of spin components  =  1

%%%% DENSITY %%%%%%%%%%%%%%%%%%%%%%%%%%%%%%%%%%%%%%%%%%%%%%%%%%%%%%%%%%%%%%%%%%%
 density label              = vreference                                                                      
 integral of density        =    -0.8054857193E-11

%%%% COMPUTE ELECTROSTATIC POTENTIAL %%%%%%%%%%%%%%%%%%%%%%%%%%%%%%%%%%%%%%%%%%%
 Starting from polarization: rhoiter =      1.952825 jellium =      0.000000
 Iteration #          1
 delta_qm =   0.135746E-03 delta_en =   0.318420E-01 tol =   0.100000E-04
 Iteration #          2
 delta_qm =   0.709835E-04 delta_en =   0.870679E-02 tol =   0.100000E-04
 Iteration #          3
 delta_qm =   0.334065E-04 delta_en =   0.192843E-02 tol =   0.100000E-04
 Iteration #          4
 delta_qm =   0.212996E-04 delta_en =   0.783948E-03 tol =   0.100000E-04
 Iteration #          5
 delta_qm =   0.140015E-04 delta_en =   0.338759E-03 tol =   0.100000E-04
 Iteration #          6
 delta_qm =   0.820535E-05 delta_en =   0.116342E-03 tol =   0.100000E-04
 Iteration #          7
 delta_qm =   0.496731E-05 delta_en =   0.426369E-04 tol =   0.100000E-04
 Iteration #          8
 delta_qm =   0.326778E-05 delta_en =   0.184523E-04 tol =   0.100000E-04
 Iteration #          9
 delta_qm =   0.205642E-05 delta_en =   0.730745E-05 tol =   0.100000E-04
 Charges are converged, EXIT

%%%% DENSITY %%%%%%%%%%%%%%%%%%%%%%%%%%%%%%%%%%%%%%%%%%%%%%%%%%%%%%%%%%%%%%%%%%%
 density label              = velectrostatic                                                                  
 integral of density        =    -0.2010572778E-12

%%%% CHARGES %%%%%%%%%%%%%%%%%%%%%%%%%%%%%%%%%%%%%%%%%%%%%%%%%%%%%%%%%%%%%%%%%%%
 total number of charges    =         34
 total charge               =     -1.0000000

%%%% ELECTRONS %%%%%%%%%%%%%%%%%%%%%%%%%%%%%%%%%%%%%%%%%%%%%%%%%%%%%%%%%%%%%%%%%
 number of electrons        =         24
 total electronic charge    =     24.0000000
 number of spin components  =  1

%%%% DENSITY %%%%%%%%%%%%%%%%%%%%%%%%%%%%%%%%%%%%%%%%%%%%%%%%%%%%%%%%%%%%%%%%%%%
 density label              = vreference                                                                      
 integral of density        =    -0.4786360608E-11

%%%% COMPUTE ELECTROSTATIC POTENTIAL %%%%%%%%%%%%%%%%%%%%%%%%%%%%%%%%%%%%%%%%%%%
 Starting from polarization: rhoiter =      1.976065 jellium =      0.000000
 Iteration #          1
 delta_qm =   0.126193E-03 delta_en =   0.275178E-01 tol =   0.100000E-04
 Iteration #          2
 delta_qm =   0.790635E-04 delta_en =   0.108018E-01 tol =   0.100000E-04
 Iteration #          3
 delta_qm =   0.401128E-04 delta_en =   0.278042E-02 tol =   0.100000E-04
 Iteration #          4
 delta_qm =   0.262310E-04 delta_en =   0.118897E-02 tol =   0.100000E-04
 Iteration #          5
 delta_qm =   0.168538E-04 delta_en =   0.490838E-03 tol =   0.100000E-04
 Iteration #          6
 delta_qm =   0.101078E-04 delta_en =   0.176544E-03 tol =   0.100000E-04
 Iteration #          7
 delta_qm =   0.609693E-05 delta_en =   0.642341E-04 tol =   0.100000E-04
 Iteration #          8
 delta_qm =   0.388492E-05 delta_en =   0.260800E-04 tol =   0.100000E-04
 Iteration #          9
 delta_qm =   0.246766E-05 delta_en =   0.105224E-04 tol =   0.100000E-04
 Iteration #         10
 delta_qm =   0.150593E-05 delta_en =   0.391879E-05 tol =   0.100000E-04
 Charges are converged, EXIT

%%%% DENSITY %%%%%%%%%%%%%%%%%%%%%%%%%%%%%%%%%%%%%%%%%%%%%%%%%%%%%%%%%%%%%%%%%%%
 density label              = velectrostatic                                                                  
 integral of density        =    -0.1722737179E-12

%%%% CHARGES %%%%%%%%%%%%%%%%%%%%%%%%%%%%%%%%%%%%%%%%%%%%%%%%%%%%%%%%%%%%%%%%%%%
 total number of charges    =         34
 total charge               =     -1.0000000

%%%% ELECTRONS %%%%%%%%%%%%%%%%%%%%%%%%%%%%%%%%%%%%%%%%%%%%%%%%%%%%%%%%%%%%%%%%%
 number of electrons        =         24
 total electronic charge    =     24.0000000
 number of spin components  =  1

%%%% DENSITY %%%%%%%%%%%%%%%%%%%%%%%%%%%%%%%%%%%%%%%%%%%%%%%%%%%%%%%%%%%%%%%%%%%
 density label              = vreference                                                                      
 integral of density        =     0.3338761366E-11

%%%% COMPUTE ELECTROSTATIC POTENTIAL %%%%%%%%%%%%%%%%%%%%%%%%%%%%%%%%%%%%%%%%%%%
 Starting from polarization: rhoiter =      1.974160 jellium =      0.000000
 Iteration #          1
 delta_qm =   0.169179E-03 delta_en =   0.494582E-01 tol =   0.100000E-04
 Iteration #          2
 delta_qm =   0.909895E-04 delta_en =   0.143063E-01 tol =   0.100000E-04
 Iteration #          3
 delta_qm =   0.497551E-04 delta_en =   0.427778E-02 tol =   0.100000E-04
 Iteration #          4
 delta_qm =   0.326393E-04 delta_en =   0.184087E-02 tol =   0.100000E-04
 Iteration #          5
 delta_qm =   0.218810E-04 delta_en =   0.827327E-03 tol =   0.100000E-04
 Iteration #          6
 delta_qm =   0.130337E-04 delta_en =   0.293550E-03 tol =   0.100000E-04
 Iteration #          7
 delta_qm =   0.784845E-05 delta_en =   0.106442E-03 tol =   0.100000E-04
 Iteration #          8
 delta_qm =   0.517540E-05 delta_en =   0.462841E-04 tol =   0.100000E-04
 Iteration #          9
 delta_qm =   0.327704E-05 delta_en =   0.185570E-04 tol =   0.100000E-04
 Iteration #         10
 delta_qm =   0.193423E-05 delta_en =   0.646489E-05 tol =   0.100000E-04
 Charges are converged, EXIT

%%%% DENSITY %%%%%%%%%%%%%%%%%%%%%%%%%%%%%%%%%%%%%%%%%%%%%%%%%%%%%%%%%%%%%%%%%%%
 density label              = velectrostatic                                                                  
 integral of density        =    -0.1068116788E-12

%%%% CHARGES %%%%%%%%%%%%%%%%%%%%%%%%%%%%%%%%%%%%%%%%%%%%%%%%%%%%%%%%%%%%%%%%%%%
 total number of charges    =         34
 total charge               =     -1.0000000

%%%% ELECTRONS %%%%%%%%%%%%%%%%%%%%%%%%%%%%%%%%%%%%%%%%%%%%%%%%%%%%%%%%%%%%%%%%%
 number of electrons        =         24
 total electronic charge    =     24.0000000
 number of spin components  =  1

%%%% DENSITY %%%%%%%%%%%%%%%%%%%%%%%%%%%%%%%%%%%%%%%%%%%%%%%%%%%%%%%%%%%%%%%%%%%
 density label              = vreference                                                                      
 integral of density        =     0.6995161652E-11

%%%% COMPUTE ELECTROSTATIC POTENTIAL %%%%%%%%%%%%%%%%%%%%%%%%%%%%%%%%%%%%%%%%%%%
 Starting from polarization: rhoiter =      1.992604 jellium =      0.000000
 Iteration #          1
 delta_qm =   0.278521E-04 delta_en =   0.134048E-02 tol =   0.100000E-04
 Iteration #          2
 delta_qm =   0.147693E-04 delta_en =   0.376934E-03 tol =   0.100000E-04
 Iteration #          3
 delta_qm =   0.671798E-05 delta_en =   0.779868E-04 tol =   0.100000E-04
 Iteration #          4
 delta_qm =   0.430494E-05 delta_en =   0.320242E-04 tol =   0.100000E-04
 Iteration #          5
 delta_qm =   0.274952E-05 delta_en =   0.130635E-04 tol =   0.100000E-04
 Iteration #          6
 delta_qm =   0.161879E-05 delta_en =   0.452819E-05 tol =   0.100000E-04
 Charges are converged, EXIT

%%%% DENSITY %%%%%%%%%%%%%%%%%%%%%%%%%%%%%%%%%%%%%%%%%%%%%%%%%%%%%%%%%%%%%%%%%%%
 density label              = velectrostatic                                                                  
 integral of density        =     0.1965505947E-12

%%%% CHARGES %%%%%%%%%%%%%%%%%%%%%%%%%%%%%%%%%%%%%%%%%%%%%%%%%%%%%%%%%%%%%%%%%%%
 total number of charges    =         34
 total charge               =     -1.0000000

%%%% ELECTRONS %%%%%%%%%%%%%%%%%%%%%%%%%%%%%%%%%%%%%%%%%%%%%%%%%%%%%%%%%%%%%%%%%
 number of electrons        =         24
 total electronic charge    =     24.0000000
 number of spin components  =  1

%%%% DENSITY %%%%%%%%%%%%%%%%%%%%%%%%%%%%%%%%%%%%%%%%%%%%%%%%%%%%%%%%%%%%%%%%%%%
 density label              = vreference                                                                      
 integral of density        =    -0.1010010182E-10

%%%% COMPUTE ELECTROSTATIC POTENTIAL %%%%%%%%%%%%%%%%%%%%%%%%%%%%%%%%%%%%%%%%%%%
 Starting from polarization: rhoiter =      1.997545 jellium =      0.000000
 Iteration #          1
 delta_qm =   0.420941E-04 delta_en =   0.306186E-02 tol =   0.100000E-04
 Iteration #          2
 delta_qm =   0.224832E-04 delta_en =   0.873495E-03 tol =   0.100000E-04
 Iteration #          3
 delta_qm =   0.128106E-04 delta_en =   0.283584E-03 tol =   0.100000E-04
 Iteration #          4
 delta_qm =   0.858327E-05 delta_en =   0.127306E-03 tol =   0.100000E-04
 Iteration #          5
 delta_qm =   0.558896E-05 delta_en =   0.539765E-04 tol =   0.100000E-04
 Iteration #          6
 delta_qm =   0.340878E-05 delta_en =   0.200790E-04 tol =   0.100000E-04
 Iteration #          7
 delta_qm =   0.213894E-05 delta_en =   0.790574E-05 tol =   0.100000E-04
 Charges are converged, EXIT

%%%% DENSITY %%%%%%%%%%%%%%%%%%%%%%%%%%%%%%%%%%%%%%%%%%%%%%%%%%%%%%%%%%%%%%%%%%%
 density label              = velectrostatic                                                                  
 integral of density        =     0.1944123874E-12

%%%% CHARGES %%%%%%%%%%%%%%%%%%%%%%%%%%%%%%%%%%%%%%%%%%%%%%%%%%%%%%%%%%%%%%%%%%%
 total number of charges    =         34
 total charge               =     -1.0000000

%%%% ELECTRONS %%%%%%%%%%%%%%%%%%%%%%%%%%%%%%%%%%%%%%%%%%%%%%%%%%%%%%%%%%%%%%%%%
 number of electrons        =         24
 total electronic charge    =     24.0000000
 number of spin components  =  1

%%%% DENSITY %%%%%%%%%%%%%%%%%%%%%%%%%%%%%%%%%%%%%%%%%%%%%%%%%%%%%%%%%%%%%%%%%%%
 density label              = vreference                                                                      
 integral of density        =    -0.6008494114E-11

%%%% COMPUTE ELECTROSTATIC POTENTIAL %%%%%%%%%%%%%%%%%%%%%%%%%%%%%%%%%%%%%%%%%%%
 Starting from polarization: rhoiter =      2.001537 jellium =      0.000000
 Iteration #          1
 delta_qm =   0.308092E-04 delta_en =   0.164023E-02 tol =   0.100000E-04
 Iteration #          2
 delta_qm =   0.155227E-04 delta_en =   0.416371E-03 tol =   0.100000E-04
 Iteration #          3
 delta_qm =   0.102196E-04 delta_en =   0.180472E-03 tol =   0.100000E-04
 Iteration #          4
 delta_qm =   0.728904E-05 delta_en =   0.918088E-04 tol =   0.100000E-04
 Iteration #          5
 delta_qm =   0.444658E-05 delta_en =   0.341661E-04 tol =   0.100000E-04
 Iteration #          6
 delta_qm =   0.283640E-05 delta_en =   0.139020E-04 tol =   0.100000E-04
 Iteration #          7
 delta_qm =   0.189684E-05 delta_en =   0.621732E-05 tol =   0.100000E-04
 Charges are converged, EXIT

%%%% DENSITY %%%%%%%%%%%%%%%%%%%%%%%%%%%%%%%%%%%%%%%%%%%%%%%%%%%%%%%%%%%%%%%%%%%
 density label              = velectrostatic                                                                  
 integral of density        =    -0.1282924384E-13

%%%% CHARGES %%%%%%%%%%%%%%%%%%%%%%%%%%%%%%%%%%%%%%%%%%%%%%%%%%%%%%%%%%%%%%%%%%%
 total number of charges    =         34
 total charge               =     -1.0000000

%%%% ELECTRONS %%%%%%%%%%%%%%%%%%%%%%%%%%%%%%%%%%%%%%%%%%%%%%%%%%%%%%%%%%%%%%%%%
 number of electrons        =         24
 total electronic charge    =     24.0000000
 number of spin components  =  1

%%%% DENSITY %%%%%%%%%%%%%%%%%%%%%%%%%%%%%%%%%%%%%%%%%%%%%%%%%%%%%%%%%%%%%%%%%%%
 density label              = vreference                                                                      
 integral of density        =    -0.1017984051E-10

%%%% COMPUTE ELECTROSTATIC POTENTIAL %%%%%%%%%%%%%%%%%%%%%%%%%%%%%%%%%%%%%%%%%%%
 Starting from polarization: rhoiter =      2.003612 jellium =      0.000000
 Iteration #          1
 delta_qm =   0.241461E-04 delta_en =   0.100748E-02 tol =   0.100000E-04
 Iteration #          2
 delta_qm =   0.159857E-04 delta_en =   0.441576E-03 tol =   0.100000E-04
 Iteration #          3
 delta_qm =   0.615704E-05 delta_en =   0.655071E-04 tol =   0.100000E-04
 Iteration #          4
 delta_qm =   0.407728E-05 delta_en =   0.287266E-04 tol =   0.100000E-04
 Iteration #          5
 delta_qm =   0.223881E-05 delta_en =   0.866122E-05 tol =   0.100000E-04
 Charges are converged, EXIT

%%%% DENSITY %%%%%%%%%%%%%%%%%%%%%%%%%%%%%%%%%%%%%%%%%%%%%%%%%%%%%%%%%%%%%%%%%%%
 density label              = velectrostatic                                                                  
 integral of density        =     0.8378483093E-13

%%%% CHARGES %%%%%%%%%%%%%%%%%%%%%%%%%%%%%%%%%%%%%%%%%%%%%%%%%%%%%%%%%%%%%%%%%%%
 total number of charges    =         34
 total charge               =     -1.0000000

%%%% ELECTRONS %%%%%%%%%%%%%%%%%%%%%%%%%%%%%%%%%%%%%%%%%%%%%%%%%%%%%%%%%%%%%%%%%
 number of electrons        =         24
 total electronic charge    =     24.0000000
 number of spin components  =  1

%%%% DENSITY %%%%%%%%%%%%%%%%%%%%%%%%%%%%%%%%%%%%%%%%%%%%%%%%%%%%%%%%%%%%%%%%%%%
 density label              = vreference                                                                      
 integral of density        =     0.2203998301E-11

%%%% COMPUTE ELECTROSTATIC POTENTIAL %%%%%%%%%%%%%%%%%%%%%%%%%%%%%%%%%%%%%%%%%%%
 Starting from polarization: rhoiter =      1.999777 jellium =      0.000000
 Iteration #          1
 delta_qm =   0.155187E-04 delta_en =   0.416153E-03 tol =   0.100000E-04
 Iteration #          2
 delta_qm =   0.859300E-05 delta_en =   0.127595E-03 tol =   0.100000E-04
 Iteration #          3
 delta_qm =   0.349258E-05 delta_en =   0.210784E-04 tol =   0.100000E-04
 Iteration #          4
 delta_qm =   0.231652E-05 delta_en =   0.927290E-05 tol =   0.100000E-04
 Charges are converged, EXIT

%%%% DENSITY %%%%%%%%%%%%%%%%%%%%%%%%%%%%%%%%%%%%%%%%%%%%%%%%%%%%%%%%%%%%%%%%%%%
 density label              = velectrostatic                                                                  
 integral of density        =     0.1904978233E-12

%%%% CHARGES %%%%%%%%%%%%%%%%%%%%%%%%%%%%%%%%%%%%%%%%%%%%%%%%%%%%%%%%%%%%%%%%%%%
 total number of charges    =         34
 total charge               =     -1.0000000

%%%% ELECTRONS %%%%%%%%%%%%%%%%%%%%%%%%%%%%%%%%%%%%%%%%%%%%%%%%%%%%%%%%%%%%%%%%%
 number of electrons        =         24
 total electronic charge    =     24.0000000
 number of spin components  =  1

%%%% DENSITY %%%%%%%%%%%%%%%%%%%%%%%%%%%%%%%%%%%%%%%%%%%%%%%%%%%%%%%%%%%%%%%%%%%
 density label              = vreference                                                                      
 integral of density        =    -0.3379551782E-11

%%%% COMPUTE ELECTROSTATIC POTENTIAL %%%%%%%%%%%%%%%%%%%%%%%%%%%%%%%%%%%%%%%%%%%
 Starting from polarization: rhoiter =      2.002644 jellium =      0.000000
 Iteration #          1
 delta_qm =   0.105948E-04 delta_en =   0.193968E-03 tol =   0.100000E-04
 Iteration #          2
 delta_qm =   0.721636E-05 delta_en =   0.899872E-04 tol =   0.100000E-04
 Iteration #          3
 delta_qm =   0.229551E-05 delta_en =   0.910544E-05 tol =   0.100000E-04
 Charges are converged, EXIT

%%%% DENSITY %%%%%%%%%%%%%%%%%%%%%%%%%%%%%%%%%%%%%%%%%%%%%%%%%%%%%%%%%%%%%%%%%%%
 density label              = velectrostatic                                                                  
 integral of density        =     0.9365348003E-13

%%%% CHARGES %%%%%%%%%%%%%%%%%%%%%%%%%%%%%%%%%%%%%%%%%%%%%%%%%%%%%%%%%%%%%%%%%%%
 total number of charges    =         34
 total charge               =     -1.0000000

%%%% ELECTRONS %%%%%%%%%%%%%%%%%%%%%%%%%%%%%%%%%%%%%%%%%%%%%%%%%%%%%%%%%%%%%%%%%
 number of electrons        =         24
 total electronic charge    =     24.0000000
 number of spin components  =  1

%%%% DENSITY %%%%%%%%%%%%%%%%%%%%%%%%%%%%%%%%%%%%%%%%%%%%%%%%%%%%%%%%%%%%%%%%%%%
 density label              = vreference                                                                      
 integral of density        =    -0.6741603160E-11

%%%% COMPUTE ELECTROSTATIC POTENTIAL %%%%%%%%%%%%%%%%%%%%%%%%%%%%%%%%%%%%%%%%%%%
 Starting from polarization: rhoiter =      2.001329 jellium =      0.000000
 Iteration #          1
 delta_qm =   0.489326E-04 delta_en =   0.413752E-02 tol =   0.100000E-04
 Iteration #          2
 delta_qm =   0.308897E-04 delta_en =   0.164881E-02 tol =   0.100000E-04
 Iteration #          3
 delta_qm =   0.998042E-05 delta_en =   0.172124E-03 tol =   0.100000E-04
 Iteration #          4
 delta_qm =   0.615416E-05 delta_en =   0.654457E-04 tol =   0.100000E-04
 Iteration #          5
 delta_qm =   0.315813E-05 delta_en =   0.172347E-04 tol =   0.100000E-04
 Iteration #          6
 delta_qm =   0.167302E-05 delta_en =   0.483664E-05 tol =   0.100000E-04
 Charges are converged, EXIT

%%%% DENSITY %%%%%%%%%%%%%%%%%%%%%%%%%%%%%%%%%%%%%%%%%%%%%%%%%%%%%%%%%%%%%%%%%%%
 density label              = velectrostatic                                                                  
 integral of density        =    -0.1453652014E-12

%%%% CHARGES %%%%%%%%%%%%%%%%%%%%%%%%%%%%%%%%%%%%%%%%%%%%%%%%%%%%%%%%%%%%%%%%%%%
 total number of charges    =         34
 total charge               =     -1.0000000

%%%% ELECTRONS %%%%%%%%%%%%%%%%%%%%%%%%%%%%%%%%%%%%%%%%%%%%%%%%%%%%%%%%%%%%%%%%%
 number of electrons        =         24
 total electronic charge    =     24.0000000
 number of spin components  =  1

%%%% DENSITY %%%%%%%%%%%%%%%%%%%%%%%%%%%%%%%%%%%%%%%%%%%%%%%%%%%%%%%%%%%%%%%%%%%
 density label              = vreference                                                                      
 integral of density        =     0.1731158426E-11

%%%% COMPUTE ELECTROSTATIC POTENTIAL %%%%%%%%%%%%%%%%%%%%%%%%%%%%%%%%%%%%%%%%%%%
 Starting from polarization: rhoiter =      2.010804 jellium =      0.000000
 Iteration #          1
 delta_qm =   0.327673E-05 delta_en =   0.185534E-04 tol =   0.100000E-04
 Iteration #          2
 delta_qm =   0.173277E-05 delta_en =   0.518828E-05 tol =   0.100000E-04
 Charges are converged, EXIT

%%%% DENSITY %%%%%%%%%%%%%%%%%%%%%%%%%%%%%%%%%%%%%%%%%%%%%%%%%%%%%%%%%%%%%%%%%%%
 density label              = velectrostatic                                                                  
 integral of density        =    -0.2124391198E-12

%%%% CHARGES %%%%%%%%%%%%%%%%%%%%%%%%%%%%%%%%%%%%%%%%%%%%%%%%%%%%%%%%%%%%%%%%%%%
 total number of charges    =         34
 total charge               =     -1.0000000

%%%% ELECTRONS %%%%%%%%%%%%%%%%%%%%%%%%%%%%%%%%%%%%%%%%%%%%%%%%%%%%%%%%%%%%%%%%%
 number of electrons        =         24
 total electronic charge    =     24.0000000
 number of spin components  =  1

%%%% DENSITY %%%%%%%%%%%%%%%%%%%%%%%%%%%%%%%%%%%%%%%%%%%%%%%%%%%%%%%%%%%%%%%%%%%
 density label              = vreference                                                                      
 integral of density        =    -0.2142812676E-11

%%%% COMPUTE ELECTROSTATIC POTENTIAL %%%%%%%%%%%%%%%%%%%%%%%%%%%%%%%%%%%%%%%%%%%
 Starting from polarization: rhoiter =      2.010001 jellium =      0.000000
 Iteration #          1
 delta_qm =   0.442243E-04 delta_en =   0.337961E-02 tol =   0.100000E-04
 Iteration #          2
 delta_qm =   0.280048E-04 delta_en =   0.135522E-02 tol =   0.100000E-04
 Iteration #          3
 delta_qm =   0.999163E-05 delta_en =   0.172511E-03 tol =   0.100000E-04
 Iteration #          4
 delta_qm =   0.652144E-05 delta_en =   0.734905E-04 tol =   0.100000E-04
 Iteration #          5
 delta_qm =   0.343249E-05 delta_en =   0.203593E-04 tol =   0.100000E-04
 Iteration #          6
 delta_qm =   0.200118E-05 delta_en =   0.692014E-05 tol =   0.100000E-04
 Charges are converged, EXIT

%%%% DENSITY %%%%%%%%%%%%%%%%%%%%%%%%%%%%%%%%%%%%%%%%%%%%%%%%%%%%%%%%%%%%%%%%%%%
 density label              = velectrostatic                                                                  
 integral of density        =    -0.2628350212E-13

%%%% CHARGES %%%%%%%%%%%%%%%%%%%%%%%%%%%%%%%%%%%%%%%%%%%%%%%%%%%%%%%%%%%%%%%%%%%
 total number of charges    =         34
 total charge               =     -1.0000000

%%%% ELECTRONS %%%%%%%%%%%%%%%%%%%%%%%%%%%%%%%%%%%%%%%%%%%%%%%%%%%%%%%%%%%%%%%%%
 number of electrons        =         24
 total electronic charge    =     24.0000000
 number of spin components  =  1

%%%% DENSITY %%%%%%%%%%%%%%%%%%%%%%%%%%%%%%%%%%%%%%%%%%%%%%%%%%%%%%%%%%%%%%%%%%%
 density label              = vreference                                                                      
 integral of density        =     0.3395736367E-11

%%%% COMPUTE ELECTROSTATIC POTENTIAL %%%%%%%%%%%%%%%%%%%%%%%%%%%%%%%%%%%%%%%%%%%
 Starting from polarization: rhoiter =      2.001579 jellium =      0.000000
 Iteration #          1
 delta_qm =   0.773949E-05 delta_en =   0.103507E-03 tol =   0.100000E-04
 Iteration #          2
 delta_qm =   0.401927E-05 delta_en =   0.279151E-04 tol =   0.100000E-04
 Iteration #          3
 delta_qm =   0.259494E-05 delta_en =   0.116358E-04 tol =   0.100000E-04
 Iteration #          4
 delta_qm =   0.182308E-05 delta_en =   0.574325E-05 tol =   0.100000E-04
 Charges are converged, EXIT

%%%% DENSITY %%%%%%%%%%%%%%%%%%%%%%%%%%%%%%%%%%%%%%%%%%%%%%%%%%%%%%%%%%%%%%%%%%%
 density label              = velectrostatic                                                                  
 integral of density        =     0.5756711980E-13

%%%% CHARGES %%%%%%%%%%%%%%%%%%%%%%%%%%%%%%%%%%%%%%%%%%%%%%%%%%%%%%%%%%%%%%%%%%%
 total number of charges    =         34
 total charge               =     -1.0000000

%%%% ELECTRONS %%%%%%%%%%%%%%%%%%%%%%%%%%%%%%%%%%%%%%%%%%%%%%%%%%%%%%%%%%%%%%%%%
 number of electrons        =         24
 total electronic charge    =     24.0000000
 number of spin components  =  1

%%%% DENSITY %%%%%%%%%%%%%%%%%%%%%%%%%%%%%%%%%%%%%%%%%%%%%%%%%%%%%%%%%%%%%%%%%%%
 density label              = vreference                                                                      
 integral of density        =    -0.4784386878E-11

%%%% COMPUTE ELECTROSTATIC POTENTIAL %%%%%%%%%%%%%%%%%%%%%%%%%%%%%%%%%%%%%%%%%%%
 Starting from polarization: rhoiter =      2.001572 jellium =      0.000000
 Iteration #          1
 delta_qm =   0.120408E-04 delta_en =   0.250525E-03 tol =   0.100000E-04
 Iteration #          2
 delta_qm =   0.753399E-05 delta_en =   0.980831E-04 tol =   0.100000E-04
 Iteration #          3
 delta_qm =   0.277753E-05 delta_en =   0.133310E-04 tol =   0.100000E-04
 Iteration #          4
 delta_qm =   0.179487E-05 delta_en =   0.556687E-05 tol =   0.100000E-04
 Charges are converged, EXIT

%%%% DENSITY %%%%%%%%%%%%%%%%%%%%%%%%%%%%%%%%%%%%%%%%%%%%%%%%%%%%%%%%%%%%%%%%%%%
 density label              = velectrostatic                                                                  
 integral of density        =    -0.6233696686E-13

%%%% CHARGES %%%%%%%%%%%%%%%%%%%%%%%%%%%%%%%%%%%%%%%%%%%%%%%%%%%%%%%%%%%%%%%%%%%
 total number of charges    =         34
 total charge               =     -1.0000000

%%%% ELECTRONS %%%%%%%%%%%%%%%%%%%%%%%%%%%%%%%%%%%%%%%%%%%%%%%%%%%%%%%%%%%%%%%%%
 number of electrons        =         24
 total electronic charge    =     24.0000000
 number of spin components  =  1

%%%% DENSITY %%%%%%%%%%%%%%%%%%%%%%%%%%%%%%%%%%%%%%%%%%%%%%%%%%%%%%%%%%%%%%%%%%%
 density label              = vreference                                                                      
 integral of density        =     0.5815792292E-11

%%%% COMPUTE ELECTROSTATIC POTENTIAL %%%%%%%%%%%%%%%%%%%%%%%%%%%%%%%%%%%%%%%%%%%
 Starting from polarization: rhoiter =      1.999444 jellium =      0.000000
 Iteration #          1
 delta_qm =   0.817695E-05 delta_en =   0.115539E-03 tol =   0.100000E-04
 Iteration #          2
 delta_qm =   0.473668E-05 delta_en =   0.387696E-04 tol =   0.100000E-04
 Iteration #          3
 delta_qm =   0.153435E-05 delta_en =   0.406812E-05 tol =   0.100000E-04
 Charges are converged, EXIT

%%%% DENSITY %%%%%%%%%%%%%%%%%%%%%%%%%%%%%%%%%%%%%%%%%%%%%%%%%%%%%%%%%%%%%%%%%%%
 density label              = velectrostatic                                                                  
 integral of density        =     0.1546088360E-13

%%%% CHARGES %%%%%%%%%%%%%%%%%%%%%%%%%%%%%%%%%%%%%%%%%%%%%%%%%%%%%%%%%%%%%%%%%%%
 total number of charges    =         34
 total charge               =     -1.0000000

%%%% ELECTRONS %%%%%%%%%%%%%%%%%%%%%%%%%%%%%%%%%%%%%%%%%%%%%%%%%%%%%%%%%%%%%%%%%
 number of electrons        =         24
 total electronic charge    =     24.0000000
 number of spin components  =  1

%%%% DENSITY %%%%%%%%%%%%%%%%%%%%%%%%%%%%%%%%%%%%%%%%%%%%%%%%%%%%%%%%%%%%%%%%%%%
 density label              = vreference                                                                      
 integral of density        =     0.4664449896E-11

%%%% COMPUTE ELECTROSTATIC POTENTIAL %%%%%%%%%%%%%%%%%%%%%%%%%%%%%%%%%%%%%%%%%%%
 Starting from polarization: rhoiter =      1.998094 jellium =      0.000000
 Iteration #          1
 delta_qm =   0.131171E-04 delta_en =   0.297317E-03 tol =   0.100000E-04
 Iteration #          2
 delta_qm =   0.863932E-05 delta_en =   0.128974E-03 tol =   0.100000E-04
 Iteration #          3
 delta_qm =   0.266336E-05 delta_en =   0.122575E-04 tol =   0.100000E-04
 Iteration #          4
 delta_qm =   0.163235E-05 delta_en =   0.460436E-05 tol =   0.100000E-04
 Charges are converged, EXIT

%%%% DENSITY %%%%%%%%%%%%%%%%%%%%%%%%%%%%%%%%%%%%%%%%%%%%%%%%%%%%%%%%%%%%%%%%%%%
 density label              = velectrostatic                                                                  
 integral of density        =    -0.1532930161E-12

%%%% CHARGES %%%%%%%%%%%%%%%%%%%%%%%%%%%%%%%%%%%%%%%%%%%%%%%%%%%%%%%%%%%%%%%%%%%
 total number of charges    =         34
 total charge               =     -1.0000000

%%%% ELECTRONS %%%%%%%%%%%%%%%%%%%%%%%%%%%%%%%%%%%%%%%%%%%%%%%%%%%%%%%%%%%%%%%%%
 number of electrons        =         24
 total electronic charge    =     24.0000000
 number of spin components  =  1

%%%% DENSITY %%%%%%%%%%%%%%%%%%%%%%%%%%%%%%%%%%%%%%%%%%%%%%%%%%%%%%%%%%%%%%%%%%%
 density label              = vreference                                                                      
 integral of density        =     0.2021296710E-11

%%%% COMPUTE ELECTROSTATIC POTENTIAL %%%%%%%%%%%%%%%%%%%%%%%%%%%%%%%%%%%%%%%%%%%
 Starting from polarization: rhoiter =      2.000239 jellium =      0.000000
 Iteration #          1
 delta_qm =   0.154654E-03 delta_en =   0.413303E-01 tol =   0.100000E-04
 Iteration #          2
 delta_qm =   0.992079E-04 delta_en =   0.170073E-01 tol =   0.100000E-04
 Iteration #          3
 delta_qm =   0.303242E-04 delta_en =   0.158899E-02 tol =   0.100000E-04
 Iteration #          4
 delta_qm =   0.187509E-04 delta_en =   0.607558E-03 tol =   0.100000E-04
 Iteration #          5
 delta_qm =   0.911287E-05 delta_en =   0.143501E-03 tol =   0.100000E-04
 Iteration #          6
 delta_qm =   0.444199E-05 delta_en =   0.340956E-04 tol =   0.100000E-04
 Iteration #          7
 delta_qm =   0.281190E-05 delta_en =   0.136629E-04 tol =   0.100000E-04
 Iteration #          8
 delta_qm =   0.159194E-05 delta_en =   0.437923E-05 tol =   0.100000E-04
 Charges are converged, EXIT

%%%% DENSITY %%%%%%%%%%%%%%%%%%%%%%%%%%%%%%%%%%%%%%%%%%%%%%%%%%%%%%%%%%%%%%%%%%%
 density label              = velectrostatic                                                                  
 integral of density        =    -0.2329001189E-12

%%%% CHARGES %%%%%%%%%%%%%%%%%%%%%%%%%%%%%%%%%%%%%%%%%%%%%%%%%%%%%%%%%%%%%%%%%%%
 total number of charges    =         34
 total charge               =     -1.0000000

%%%% ELECTRONS %%%%%%%%%%%%%%%%%%%%%%%%%%%%%%%%%%%%%%%%%%%%%%%%%%%%%%%%%%%%%%%%%
 number of electrons        =         24
 total electronic charge    =     24.0000000
 number of spin components  =  1

%%%% DENSITY %%%%%%%%%%%%%%%%%%%%%%%%%%%%%%%%%%%%%%%%%%%%%%%%%%%%%%%%%%%%%%%%%%%
 density label              = vreference                                                                      
 integral of density        =     0.6729694991E-11

%%%% COMPUTE ELECTROSTATIC POTENTIAL %%%%%%%%%%%%%%%%%%%%%%%%%%%%%%%%%%%%%%%%%%%
 Starting from polarization: rhoiter =      2.030836 jellium =      0.000000
 Iteration #          1
 delta_qm =   0.132259E-04 delta_en =   0.302268E-03 tol =   0.100000E-04
 Iteration #          2
 delta_qm =   0.684935E-05 delta_en =   0.810666E-04 tol =   0.100000E-04
 Iteration #          3
 delta_qm =   0.422162E-05 delta_en =   0.307966E-04 tol =   0.100000E-04
 Iteration #          4
 delta_qm =   0.308749E-05 delta_en =   0.164724E-04 tol =   0.100000E-04
 Iteration #          5
 delta_qm =   0.196869E-05 delta_en =   0.669727E-05 tol =   0.100000E-04
 Charges are converged, EXIT

%%%% DENSITY %%%%%%%%%%%%%%%%%%%%%%%%%%%%%%%%%%%%%%%%%%%%%%%%%%%%%%%%%%%%%%%%%%%
 density label              = velectrostatic                                                                  
 integral of density        =     0.3677716567E-13

%%%% CHARGES %%%%%%%%%%%%%%%%%%%%%%%%%%%%%%%%%%%%%%%%%%%%%%%%%%%%%%%%%%%%%%%%%%%
 total number of charges    =         34
 total charge               =     -1.0000000

%%%% ELECTRONS %%%%%%%%%%%%%%%%%%%%%%%%%%%%%%%%%%%%%%%%%%%%%%%%%%%%%%%%%%%%%%%%%
 number of electrons        =         24
 total electronic charge    =     24.0000000
 number of spin components  =  1

%%%% DENSITY %%%%%%%%%%%%%%%%%%%%%%%%%%%%%%%%%%%%%%%%%%%%%%%%%%%%%%%%%%%%%%%%%%%
 density label              = vreference                                                                      
 integral of density        =    -0.7816101675E-11

%%%% COMPUTE ELECTROSTATIC POTENTIAL %%%%%%%%%%%%%%%%%%%%%%%%%%%%%%%%%%%%%%%%%%%
 Starting from polarization: rhoiter =      2.031079 jellium =      0.000000
 Iteration #          1
 delta_qm =   0.178668E-04 delta_en =   0.551618E-03 tol =   0.100000E-04
 Iteration #          2
 delta_qm =   0.111835E-04 delta_en =   0.216121E-03 tol =   0.100000E-04
 Iteration #          3
 delta_qm =   0.455318E-05 delta_en =   0.358240E-04 tol =   0.100000E-04
 Iteration #          4
 delta_qm =   0.308847E-05 delta_en =   0.164828E-04 tol =   0.100000E-04
 Iteration #          5
 delta_qm =   0.169472E-05 delta_en =   0.496298E-05 tol =   0.100000E-04
 Charges are converged, EXIT

%%%% DENSITY %%%%%%%%%%%%%%%%%%%%%%%%%%%%%%%%%%%%%%%%%%%%%%%%%%%%%%%%%%%%%%%%%%%
 density label              = velectrostatic                                                                  
 integral of density        =    -0.1309240782E-12

%%%% CHARGES %%%%%%%%%%%%%%%%%%%%%%%%%%%%%%%%%%%%%%%%%%%%%%%%%%%%%%%%%%%%%%%%%%%
 total number of charges    =         34
 total charge               =     -1.0000000

%%%% ELECTRONS %%%%%%%%%%%%%%%%%%%%%%%%%%%%%%%%%%%%%%%%%%%%%%%%%%%%%%%%%%%%%%%%%
 number of electrons        =         24
 total electronic charge    =     24.0000000
 number of spin components  =  1

%%%% DENSITY %%%%%%%%%%%%%%%%%%%%%%%%%%%%%%%%%%%%%%%%%%%%%%%%%%%%%%%%%%%%%%%%%%%
 density label              = vreference                                                                      
 integral of density        =    -0.3120137893E-11

%%%% COMPUTE ELECTROSTATIC POTENTIAL %%%%%%%%%%%%%%%%%%%%%%%%%%%%%%%%%%%%%%%%%%%
 Starting from polarization: rhoiter =      2.028092 jellium =      0.000000
 Iteration #          1
 delta_qm =   0.208113E-04 delta_en =   0.748417E-03 tol =   0.100000E-04
 Iteration #          2
 delta_qm =   0.125888E-04 delta_en =   0.273850E-03 tol =   0.100000E-04
 Iteration #          3
 delta_qm =   0.521333E-05 delta_en =   0.469650E-04 tol =   0.100000E-04
 Iteration #          4
 delta_qm =   0.362727E-05 delta_en =   0.227354E-04 tol =   0.100000E-04
 Iteration #          5
 delta_qm =   0.212939E-05 delta_en =   0.783528E-05 tol =   0.100000E-04
 Charges are converged, EXIT

%%%% DENSITY %%%%%%%%%%%%%%%%%%%%%%%%%%%%%%%%%%%%%%%%%%%%%%%%%%%%%%%%%%%%%%%%%%%
 density label              = velectrostatic                                                                  
 integral of density        =    -0.1720434494E-12

%%%% CHARGES %%%%%%%%%%%%%%%%%%%%%%%%%%%%%%%%%%%%%%%%%%%%%%%%%%%%%%%%%%%%%%%%%%%
 total number of charges    =         34
 total charge               =     -1.0000000

%%%% ELECTRONS %%%%%%%%%%%%%%%%%%%%%%%%%%%%%%%%%%%%%%%%%%%%%%%%%%%%%%%%%%%%%%%%%
 number of electrons        =         24
 total electronic charge    =     24.0000000
 number of spin components  =  1

%%%% DENSITY %%%%%%%%%%%%%%%%%%%%%%%%%%%%%%%%%%%%%%%%%%%%%%%%%%%%%%%%%%%%%%%%%%%
 density label              = vreference                                                                      
 integral of density        =     0.6704102294E-12

%%%% COMPUTE ELECTROSTATIC POTENTIAL %%%%%%%%%%%%%%%%%%%%%%%%%%%%%%%%%%%%%%%%%%%
 Starting from polarization: rhoiter =      2.024994 jellium =      0.000000
 Iteration #          1
 delta_qm =   0.886147E-05 delta_en =   0.135692E-03 tol =   0.100000E-04
 Iteration #          2
 delta_qm =   0.580865E-05 delta_en =   0.583035E-04 tol =   0.100000E-04
 Iteration #          3
 delta_qm =   0.173144E-05 delta_en =   0.518032E-05 tol =   0.100000E-04
 Charges are converged, EXIT

%%%% DENSITY %%%%%%%%%%%%%%%%%%%%%%%%%%%%%%%%%%%%%%%%%%%%%%%%%%%%%%%%%%%%%%%%%%%
 density label              = velectrostatic                                                                  
 integral of density        =    -0.1288845573E-12

%%%% CHARGES %%%%%%%%%%%%%%%%%%%%%%%%%%%%%%%%%%%%%%%%%%%%%%%%%%%%%%%%%%%%%%%%%%%
 total number of charges    =         34
 total charge               =     -1.0000000

%%%% ELECTRONS %%%%%%%%%%%%%%%%%%%%%%%%%%%%%%%%%%%%%%%%%%%%%%%%%%%%%%%%%%%%%%%%%
 number of electrons        =         24
 total electronic charge    =     24.0000000
 number of spin components  =  1

%%%% DENSITY %%%%%%%%%%%%%%%%%%%%%%%%%%%%%%%%%%%%%%%%%%%%%%%%%%%%%%%%%%%%%%%%%%%
 density label              = vreference                                                                      
 integral of density        =    -0.9732461750E-11

%%%% COMPUTE ELECTROSTATIC POTENTIAL %%%%%%%%%%%%%%%%%%%%%%%%%%%%%%%%%%%%%%%%%%%
 Starting from polarization: rhoiter =      2.023783 jellium =      0.000000
 Iteration #          1
 delta_qm =   0.982381E-05 delta_en =   0.166765E-03 tol =   0.100000E-04
 Iteration #          2
 delta_qm =   0.600978E-05 delta_en =   0.624110E-04 tol =   0.100000E-04
 Iteration #          3
 delta_qm =   0.273534E-05 delta_en =   0.129290E-04 tol =   0.100000E-04
 Iteration #          4
 delta_qm =   0.191046E-05 delta_en =   0.630693E-05 tol =   0.100000E-04
 Charges are converged, EXIT

%%%% DENSITY %%%%%%%%%%%%%%%%%%%%%%%%%%%%%%%%%%%%%%%%%%%%%%%%%%%%%%%%%%%%%%%%%%%
 density label              = velectrostatic                                                                  
 integral of density        =     0.1436217400E-12

%%%% CHARGES %%%%%%%%%%%%%%%%%%%%%%%%%%%%%%%%%%%%%%%%%%%%%%%%%%%%%%%%%%%%%%%%%%%
 total number of charges    =         34
 total charge               =     -1.0000000

%%%% ELECTRONS %%%%%%%%%%%%%%%%%%%%%%%%%%%%%%%%%%%%%%%%%%%%%%%%%%%%%%%%%%%%%%%%%
 number of electrons        =         24
 total electronic charge    =     24.0000000
 number of spin components  =  1

%%%% DENSITY %%%%%%%%%%%%%%%%%%%%%%%%%%%%%%%%%%%%%%%%%%%%%%%%%%%%%%%%%%%%%%%%%%%
 density label              = vreference                                                                      
 integral of density        =     0.4851625274E-11

%%%% COMPUTE ELECTROSTATIC POTENTIAL %%%%%%%%%%%%%%%%%%%%%%%%%%%%%%%%%%%%%%%%%%%
 Starting from polarization: rhoiter =      2.024748 jellium =      0.000000
 Iteration #          1
 delta_qm =   0.160474E-04 delta_en =   0.444992E-03 tol =   0.100000E-04
 Iteration #          2
 delta_qm =   0.103074E-04 delta_en =   0.183588E-03 tol =   0.100000E-04
 Iteration #          3
 delta_qm =   0.375474E-05 delta_en =   0.243615E-04 tol =   0.100000E-04
 Iteration #          4
 delta_qm =   0.246851E-05 delta_en =   0.105296E-04 tol =   0.100000E-04
 Iteration #          5
 delta_qm =   0.134110E-05 delta_en =   0.310791E-05 tol =   0.100000E-04
 Charges are converged, EXIT

%%%% DENSITY %%%%%%%%%%%%%%%%%%%%%%%%%%%%%%%%%%%%%%%%%%%%%%%%%%%%%%%%%%%%%%%%%%%
 density label              = velectrostatic                                                                  
 integral of density        =    -0.4256677315E-13

%%%% CHARGES %%%%%%%%%%%%%%%%%%%%%%%%%%%%%%%%%%%%%%%%%%%%%%%%%%%%%%%%%%%%%%%%%%%
 total number of charges    =         34
 total charge               =     -1.0000000

%%%% ELECTRONS %%%%%%%%%%%%%%%%%%%%%%%%%%%%%%%%%%%%%%%%%%%%%%%%%%%%%%%%%%%%%%%%%
 number of electrons        =         24
 total electronic charge    =     24.0000000
 number of spin components  =  1

%%%% DENSITY %%%%%%%%%%%%%%%%%%%%%%%%%%%%%%%%%%%%%%%%%%%%%%%%%%%%%%%%%%%%%%%%%%%
 density label              = vreference                                                                      
 integral of density        =    -0.8931522189E-11

%%%% COMPUTE ELECTROSTATIC POTENTIAL %%%%%%%%%%%%%%%%%%%%%%%%%%%%%%%%%%%%%%%%%%%
 Starting from polarization: rhoiter =      2.021920 jellium =      0.000000
 Iteration #          1
 delta_qm =   0.405098E-04 delta_en =   0.283572E-02 tol =   0.100000E-04
 Iteration #          2
 delta_qm =   0.265580E-04 delta_en =   0.121880E-02 tol =   0.100000E-04
 Iteration #          3
 delta_qm =   0.775527E-05 delta_en =   0.103929E-03 tol =   0.100000E-04
 Iteration #          4
 delta_qm =   0.467078E-05 delta_en =   0.376983E-04 tol =   0.100000E-04
 Iteration #          5
 delta_qm =   0.216882E-05 delta_en =   0.812816E-05 tol =   0.100000E-04
 Charges are converged, EXIT

%%%% DENSITY %%%%%%%%%%%%%%%%%%%%%%%%%%%%%%%%%%%%%%%%%%%%%%%%%%%%%%%%%%%%%%%%%%%
 density label              = velectrostatic                                                                  
 integral of density        =    -0.6296198131E-13

%%%% CHARGES %%%%%%%%%%%%%%%%%%%%%%%%%%%%%%%%%%%%%%%%%%%%%%%%%%%%%%%%%%%%%%%%%%%
 total number of charges    =         34
 total charge               =     -1.0000000

%%%% ELECTRONS %%%%%%%%%%%%%%%%%%%%%%%%%%%%%%%%%%%%%%%%%%%%%%%%%%%%%%%%%%%%%%%%%
 number of electrons        =         24
 total electronic charge    =     24.0000000
 number of spin components  =  1

%%%% DENSITY %%%%%%%%%%%%%%%%%%%%%%%%%%%%%%%%%%%%%%%%%%%%%%%%%%%%%%%%%%%%%%%%%%%
 density label              = vreference                                                                      
 integral of density        =    -0.8931522189E-11

%%%% DENSITY %%%%%%%%%%%%%%%%%%%%%%%%%%%%%%%%%%%%%%%%%%%%%%%%%%%%%%%%%%%%%%%%%%%
 density label              = velectrostatic                                                                  
 integral of density        =    -0.6296198131E-13

%%%% CHARGES %%%%%%%%%%%%%%%%%%%%%%%%%%%%%%%%%%%%%%%%%%%%%%%%%%%%%%%%%%%%%%%%%%%
 total number of charges    =         34
 total charge               =     -1.0000000
