
     Program PWSCF v.6.1 (svn rev. 13369) starts on  1Feb2018 at 12:14:33 

     This program is part of the open-source Quantum ESPRESSO suite
     for quantum simulation of materials; please cite
         "P. Giannozzi et al., J. Phys.:Condens. Matter 21 395502 (2009);
          URL http://www.quantum-espresso.org", 
     in publications or presentations arising from this work. More details at
     http://www.quantum-espresso.org/quote

     Parallel version (MPI), running on     1 processors
     Reading input from charged.in

     Current dimensions of program PWSCF are:
     Max number of different atomic species (ntypx) = 10
     Max number of k-points (npk) =  40000
     Max angular momentum in pseudopotentials (lmaxx) =  3
               file C.pbe-rrkjus.UPF: wavefunction(s)  2S 2P renormalized
               file H.pbe-rrkjus.UPF: wavefunction(s)  1S renormalized
               file N.pbe-rrkjus.UPF: wavefunction(s)  2S renormalized
               file O.pbe-rrkjus.UPF: wavefunction(s)  2S renormalized

     gamma-point specific algorithms are used

     Subspace diagonalization in iterative solution of the eigenvalue problem:
     a serial algorithm will be used

 
     G-vector sticks info
     --------------------
     sticks:   dense  smooth     PW     G-vecs:    dense   smooth      PW
     Sum        9549    3809    949               701475   177509   22119
 


     bravais-lattice index     =            1
     lattice parameter (alat)  =      20.0000  a.u.
     unit-cell volume          =    8000.0000 (a.u.)^3
     number of atoms/cell      =           10
     number of atomic types    =            4
     number of electrons       =        24.00
     number of Kohn-Sham states=           12
     kinetic-energy cutoff     =      30.0000  Ry
     charge density cutoff     =     300.0000  Ry
     convergence threshold     =      5.0E-03
     mixing beta               =       0.7000
     number of iterations used =            8  plain     mixing
     Exchange-correlation      =  SLA  PW   PBE  PBE ( 1  4  3  4 0 0)
 

     Environ Module
     ==============

     Plese cite
         O. Andreussi, I. Dabo and N. Marzari, J. Chem. Phys. 136, 064102 (2012)         
     in publications or presentations arising from this work.

     compensation onset threshold      =               0.1000E+03 
     static permittivity               =                   100.00 
     epsilon calculation mode          =               electronic 

     Electrostatic Setup
     -------------------
     electrostatic problem to solve    = generalized              
     numerical solver adopted          = iterative                
     type of auxiliary density adopted = full                     
     type of core tool for poisson     = fft                      
     type of core tool for s(r) deriv  = analytic                 



     celldm(1)=  20.000000  celldm(2)=   0.000000  celldm(3)=   0.000000
     celldm(4)=   0.000000  celldm(5)=   0.000000  celldm(6)=   0.000000

     crystal axes: (cart. coord. in units of alat)
               a(1) = (   1.000000   0.000000   0.000000 )  
               a(2) = (   0.000000   1.000000   0.000000 )  
               a(3) = (   0.000000   0.000000   1.000000 )  

     reciprocal axes: (cart. coord. in units 2 pi/alat)
               b(1) = (  1.000000  0.000000  0.000000 )  
               b(2) = (  0.000000  1.000000  0.000000 )  
               b(3) = (  0.000000  0.000000  1.000000 )  


     PseudoPot. # 1 for C  read from file:
     /home/fnattino/Programs/qe-6.1/Environ/tests/../..//pseudo/C.pbe-rrkjus.UPF
     MD5 check sum: 00fb224312de0c5b6853bd333518df6f
     Pseudo is Ultrasoft, Zval =  4.0
     Generated by new atomic code, or converted to UPF format
     Using radial grid of  627 points,  4 beta functions with: 
                l(1) =   0
                l(2) =   0
                l(3) =   1
                l(4) =   1
     Q(r) pseudized with 0 coefficients 


     PseudoPot. # 2 for H  read from file:
     /home/fnattino/Programs/qe-6.1/Environ/tests/../..//pseudo/H.pbe-rrkjus.UPF
     MD5 check sum: 7cc9d459525c9a0585f487a71c3c9563
     Pseudo is Ultrasoft, Zval =  1.0
     Generated by new atomic code, or converted to UPF format
     Using radial grid of 1061 points,  2 beta functions with: 
                l(1) =   0
                l(2) =   0
     Q(r) pseudized with 0 coefficients 


     PseudoPot. # 3 for N  read from file:
     /home/fnattino/Programs/qe-6.1/Environ/tests/../..//pseudo/N.pbe-rrkjus.UPF
     MD5 check sum: 0c3fbe5807a93f9ba59d5a7019aa238b
     Pseudo is Ultrasoft, Zval =  5.0
     Generated by new atomic code, or converted to UPF format
     Using radial grid of 1257 points,  4 beta functions with: 
                l(1) =   0
                l(2) =   0
                l(3) =   1
                l(4) =   1
     Q(r) pseudized with 0 coefficients 


     PseudoPot. # 4 for O  read from file:
     /home/fnattino/Programs/qe-6.1/Environ/tests/../..//pseudo/O.pbe-rrkjus.UPF
     MD5 check sum: 390ba29e75625707450f3bd3f0eb6be9
     Pseudo is Ultrasoft, Zval =  6.0
     Generated by new atomic code, or converted to UPF format
     Using radial grid of 1269 points,  4 beta functions with: 
                l(1) =   0
                l(2) =   0
                l(3) =   1
                l(4) =   1
     Q(r) pseudized with 0 coefficients 


     atomic species   valence    mass     pseudopotential
        C              4.00    12.00000     C ( 1.00)
        H              1.00     1.00000     H ( 1.00)
        N              5.00    14.00000     N ( 1.00)
        O              6.00    16.00000     O ( 1.00)

     No symmetry found



   Cartesian axes

     site n.     atom                  positions (alat units)
         1           C   tau(   1) = (   0.0000000   0.0000000   0.0000000  )
         2           C   tau(   2) = (   0.0000000   0.0000000   0.1455089  )
         3           N   tau(   3) = (   0.1170969   0.0000000  -0.0545024  )
         4           H   tau(   4) = (   0.0476617  -0.0825466   0.1792090  )
         5           H   tau(   5) = (  -0.0953183  -0.0000030   0.1792090  )
         6           H   tau(   6) = (   0.0476566   0.0825496   0.1792090  )
         7           O   tau(   7) = (  -0.0984002  -0.0000019  -0.0641310  )
         8           H   tau(   8) = (   0.1263131  -0.0000015  -0.1475548  )
         9           H   tau(   9) = (   0.1944645   0.0000134  -0.0025716  )
        10           H   tau(  10) = (  -0.0770366  -0.0000045  -0.1522861  )

     number of k points=     1
                       cart. coord. in units 2pi/alat
        k(    1) = (   0.0000000   0.0000000   0.0000000), wk =   2.0000000

     Dense  grid:   350738 G-vectors     FFT dimensions: ( 120, 120, 120)

     Smooth grid:    88755 G-vectors     FFT dimensions: (  72,  72,  72)

     Estimated max dynamical RAM per process >     298.98MB

     Initial potential from superposition of free atoms
     Check: negative starting charge=   -0.000452

     starting charge   24.42266, renormalised to   24.00000

     negative rho (up, down):  4.438E-04 0.000E+00
     Starting wfc are   22 randomized atomic wfcs

     total cpu time spent up to now is        3.9 secs

     per-process dynamical memory:   594.1 Mb

     Self-consistent Calculation

     iteration #  1     ecut=    30.00 Ry     beta=0.70
     Davidson diagonalization with overlap
     ethr =  1.00E-02,  avg # of iterations =  2.0

     negative rho (up, down):  1.277E-04 0.000E+00

     add environment contribution to local potential
     polarization accuracy = 6.6E-06, # of iterations =  16

     total cpu time spent up to now is        9.1 secs

     total energy              =     -80.23903180 Ry
     Harris-Foulkes estimate   =     -83.01879009 Ry
     estimated scf accuracy    <       3.73442311 Ry
     electrostatic embedding   =       0.00000000 Ry
     correction to one-el term =       0.00000000 Ry

     iteration #  2     ecut=    30.00 Ry     beta=0.70
     Davidson diagonalization with overlap
     ethr =  1.00E-02,  avg # of iterations =  4.0

     negative rho (up, down):  6.917E-04 0.000E+00

     add environment contribution to local potential
     polarization accuracy = 5.7E-06, # of iterations =  16

     total cpu time spent up to now is       14.3 secs

     total energy              =     -80.96003228 Ry
     Harris-Foulkes estimate   =     -76.60187620 Ry
     estimated scf accuracy    <       1.54109436 Ry
     electrostatic embedding   =      -0.18395264 Ry
     correction to one-el term =      -4.99956134 Ry

     iteration #  3     ecut=    30.00 Ry     beta=0.70
     Davidson diagonalization with overlap
     ethr =  6.42E-03,  avg # of iterations =  3.0

     negative rho (up, down):  3.247E-04 0.000E+00

     add environment contribution to local potential
     polarization accuracy = 5.8E-06, # of iterations =  16

     total cpu time spent up to now is       19.3 secs

     total energy              =     -81.31870575 Ry
     Harris-Foulkes estimate   =     -77.02309192 Ry
     estimated scf accuracy    <       0.24329050 Ry
     electrostatic embedding   =      -0.15144949 Ry
     correction to one-el term =      -4.27381519 Ry

     iteration #  4     ecut=    30.00 Ry     beta=0.70
     Davidson diagonalization with overlap
     ethr =  1.01E-03,  avg # of iterations =  4.0

     negative rho (up, down):  8.627E-05 0.000E+00

     add environment contribution to local potential
     polarization accuracy = 6.5E-06, # of iterations =  17

     total cpu time spent up to now is       24.4 secs

     total energy              =     -81.37792952 Ry
     Harris-Foulkes estimate   =     -77.22353031 Ry
     estimated scf accuracy    <       0.02088982 Ry
     electrostatic embedding   =      -0.12707599 Ry
     correction to one-el term =      -4.03793766 Ry

     iteration #  5     ecut=    30.00 Ry     beta=0.70
     Davidson diagonalization with overlap
     ethr =  8.70E-05,  avg # of iterations =  4.0

     negative rho (up, down):  2.757E-04 0.000E+00

     total cpu time spent up to now is       26.2 secs

     End of self-consistent calculation

          k = 0.0000 0.0000 0.0000 ( 11060 PWs)   bands (ev):

   -28.9429 -23.2049 -18.6866 -16.0170 -14.7237 -13.4491 -11.7111 -10.9685
    -9.6107  -9.5960  -9.3593  -7.4452

     highest occupied level (ev):    -7.4452

!    total energy              =     -81.38331903 Ry
     Harris-Foulkes estimate   =     -77.45698245 Ry
     estimated scf accuracy    <       0.00248965 Ry

     The total energy is the sum of the following terms:

     one-electron contribution =    -241.95970849 Ry
     hartree contribution      =     123.14248436 Ry
     xc contribution           =     -22.94574042 Ry
     ewald contribution        =      64.30784006 Ry
     electrostatic embedding   =      -0.12132837 Ry
     correction to one-el term =      -3.80686617 Ry

     convergence has been achieved in   5 iterations

     Forces acting on atoms (cartesian axes, Ry/au):

     atom    1 type  1   force =     0.21840117    0.00001185    0.10003295
     atom    2 type  1   force =    -0.03315316   -0.00000467   -0.08131832
     atom    3 type  3   force =    -0.13992126   -0.00000081    0.04567381
     atom    4 type  2   force =     0.01760777   -0.02836477    0.00832083
     atom    5 type  2   force =    -0.03270772   -0.00000250    0.01164687
     atom    6 type  2   force =     0.01761122    0.02837071    0.00832222
     atom    7 type  4   force =    -0.08232987   -0.00003018   -0.00937743
     atom    8 type  2   force =     0.00505995    0.00000590   -0.04792264
     atom    9 type  2   force =     0.03808627    0.00001012    0.03882339
     atom   10 type  2   force =    -0.00865438    0.00000434   -0.07420169

     Total force =     0.329214     Total SCF correction =     0.121335
     SCF correction compared to forces is large: reduce conv_thr to get better values

     Writing output data file pwscf.save
 
     init_run     :      3.70s CPU      3.82s WALL (       1 calls)
     electrons    :     21.28s CPU     22.36s WALL (       1 calls)
     forces       :      0.72s CPU      0.78s WALL (       1 calls)

     Called by init_run:
     wfcinit      :      0.09s CPU      0.10s WALL (       1 calls)
     potinit      :      1.49s CPU      1.52s WALL (       1 calls)

     Called by electrons:
     c_bands      :      0.85s CPU      0.85s WALL (       5 calls)
     sum_band     :      2.25s CPU      2.48s WALL (       5 calls)
     v_of_rho     :      3.29s CPU      3.38s WALL (       6 calls)
     newd         :      1.33s CPU      1.60s WALL (       6 calls)
     mix_rho      :      0.24s CPU      0.25s WALL (       5 calls)

     Called by c_bands:
     init_us_2    :      0.04s CPU      0.05s WALL (      11 calls)
     regterg      :      0.79s CPU      0.79s WALL (       5 calls)

     Called by sum_band:
     sum_band:bec :      0.00s CPU      0.00s WALL (       5 calls)
     addusdens    :      1.66s CPU      1.88s WALL (       5 calls)

     Called by *egterg:
     h_psi        :      0.76s CPU      0.77s WALL (      23 calls)
     s_psi        :      0.02s CPU      0.02s WALL (      23 calls)
     g_psi        :      0.00s CPU      0.01s WALL (      17 calls)
     rdiaghg      :      0.00s CPU      0.01s WALL (      22 calls)

     Called by h_psi:
     h_psi:pot    :      0.76s CPU      0.76s WALL (      23 calls)
     h_psi:calbec :      0.02s CPU      0.02s WALL (      23 calls)
     vloc_psi     :      0.72s CPU      0.72s WALL (      23 calls)
     add_vuspsi   :      0.01s CPU      0.02s WALL (      23 calls)

     General routines
     calbec       :      0.03s CPU      0.03s WALL (      32 calls)
     fft          :      8.93s CPU      9.24s WALL (     427 calls)
     ffts         :      0.04s CPU      0.04s WALL (      11 calls)
     fftw         :      0.55s CPU      0.55s WALL (     244 calls)
     interpolate  :      0.33s CPU      0.35s WALL (      11 calls)
     davcio       :      0.00s CPU      0.00s WALL (       1 calls)
 
     Parallel routines
     fft_scatter  :      2.57s CPU      2.70s WALL (     682 calls)
 
     Environ routines
     calc_eelect  :      0.02s CPU      0.01s WALL (      10 calls)
     calc_velect  :     10.78s CPU     11.15s WALL (       8 calls)
     dielectric   :      0.26s CPU      0.25s WALL (       7 calls)
     calc_felect  :      0.08s CPU      0.09s WALL (       1 calls)
 
     PWSCF        :    25.87s CPU        27.16s WALL

 
   This run was terminated on:  12:15: 0   1Feb2018            

=------------------------------------------------------------------------------=
   JOB DONE.
=------------------------------------------------------------------------------=

%%%% IONS %%%%%%%%%%%%%%%%%%%%%%%%%%%%%%%%%%%%%%%%%%%%%%%%%%%%%%%%%%%%%%%%%%%%%%
 number of ions             =         10
 ionic center of charge     =      0.0095530    -0.0000002     0.0063981
 total ionic charge         =    -25.0000000
 ionic dipole               =      0.0000000     0.0000000     0.0000000
 ionic quadrupole (pc)      =    -79.0828058    -5.4513517  -105.8059629
 ionic quadrupole (gauss)   =    -82.2078058    -8.5763517  -108.9309629
 ion   1 type =  1 coordinates =      0.0000000     0.0000000     0.0000000
 ion   2 type =  1 coordinates =      0.0000000     0.0000000     2.9101782
 ion   3 type =  3 coordinates =      2.3419379     0.0000000    -1.0900479
 ion   4 type =  2 coordinates =      0.9532347    -1.6509323     3.5841800
 ion   5 type =  2 coordinates =     -1.9063663    -0.0000596     3.5841809
 ion   6 type =  2 coordinates =      0.9531315     1.6509919     3.5841800
 ion   7 type =  4 coordinates =     -1.9680045    -0.0000375    -1.2826193
 ion   8 type =  2 coordinates =      2.5262613    -0.0000303    -2.9510950
 ion   9 type =  2 coordinates =      3.8892907     0.0002681    -0.0514326
 ion  10 type =  2 coordinates =     -1.5407317    -0.0000890    -3.0457220

%%%% SYSTEM %%%%%%%%%%%%%%%%%%%%%%%%%%%%%%%%%%%%%%%%%%%%%%%%%%%%%%%%%%%%%%%%%%%%
 system is built from all present ionic types
 system defined dimension   =  0 
 system defined axis        =  3 
 system center              =      0.0095530    -0.0000002     0.0063981 
 system width               =      0.2021425 

%%%% ELECTRONS %%%%%%%%%%%%%%%%%%%%%%%%%%%%%%%%%%%%%%%%%%%%%%%%%%%%%%%%%%%%%%%%%
 number of electrons        =         24
 total electronic charge    =     24.0000000
 number of spin components  =  1

%%%% BOUNDARY %%%%%%%%%%%%%%%%%%%%%%%%%%%%%%%%%%%%%%%%%%%%%%%%%%%%%%%%%%%%%%%%%%
 boundary mode              = electronic           
 boundary is built as a function of a smooth density
 function type              =  2 
 using the modified SCCS function with parameters 
 rhomax                     =      0.0050000 
 rhomin                     =      0.0001000 
 volume of the QM region    =   2771.6247530 
 surface of the QM region   =    905.6008160 

%%%% DIELECTRIC %%%%%%%%%%%%%%%%%%%%%%%%%%%%%%%%%%%%%%%%%%%%%%%%%%%%%%%%%%%%%%%%%
 dielectric build on homogeneous background
 environment bulk permitt.  =    100.0000000 
 dielectric flags
 need gradient              =  F 
 need factor depend. sqrt   =  F 
 total dielectric charge    =      0.0000000

%%%% ELECTRONS %%%%%%%%%%%%%%%%%%%%%%%%%%%%%%%%%%%%%%%%%%%%%%%%%%%%%%%%%%%%%%%%%
 number of electrons        =         24
 total electronic charge    =     24.0000000
 number of spin components  =  1

%%%% BOUNDARY %%%%%%%%%%%%%%%%%%%%%%%%%%%%%%%%%%%%%%%%%%%%%%%%%%%%%%%%%%%%%%%%%%
 boundary mode              = electronic           
 boundary is built as a function of a smooth density
 function type              =  2 
 using the modified SCCS function with parameters 
 rhomax                     =      0.0050000 
 rhomin                     =      0.0001000 
 volume of the QM region    =    989.6663489 
 surface of the QM region   =    490.3846933 

%%%% DIELECTRIC %%%%%%%%%%%%%%%%%%%%%%%%%%%%%%%%%%%%%%%%%%%%%%%%%%%%%%%%%%%%%%%%%
 dielectric build on homogeneous background
 environment bulk permitt.  =    100.0000000 
 dielectric flags
 need gradient              =  F 
 need factor depend. sqrt   =  F 
 total dielectric charge    =      0.0000000

%%%% COMPUTE ELECTROSTATIC POTENTIAL %%%%%%%%%%%%%%%%%%%%%%%%%%%%%%%%%%%%%%%%%%%
 Starting from polarization: rhoiter =      0.000000 jellium =      0.000000
 Iteration #          1
 delta_qm =   0.365417E-02 delta_en =   0.230740E+02 tol =   0.100000E-04
 Iteration #          2
 delta_qm =   0.210155E-02 delta_en =   0.763171E+01 tol =   0.100000E-04
 Iteration #          3
 delta_qm =   0.108865E-02 delta_en =   0.204795E+01 tol =   0.100000E-04
 Iteration #          4
 delta_qm =   0.579864E-03 delta_en =   0.581026E+00 tol =   0.100000E-04
 Iteration #          5
 delta_qm =   0.366763E-03 delta_en =   0.232442E+00 tol =   0.100000E-04
 Iteration #          6
 delta_qm =   0.160731E-03 delta_en =   0.446422E-01 tol =   0.100000E-04
 Iteration #          7
 delta_qm =   0.103970E-03 delta_en =   0.186792E-01 tol =   0.100000E-04
 Iteration #          8
 delta_qm =   0.630513E-04 delta_en =   0.686960E-02 tol =   0.100000E-04
 Iteration #          9
 delta_qm =   0.339969E-04 delta_en =   0.199720E-02 tol =   0.100000E-04
 Iteration #         10
 delta_qm =   0.231611E-04 delta_en =   0.926964E-03 tol =   0.100000E-04
 Iteration #         11
 delta_qm =   0.158680E-04 delta_en =   0.435099E-03 tol =   0.100000E-04
 Iteration #         12
 delta_qm =   0.982412E-05 delta_en =   0.166775E-03 tol =   0.100000E-04
 Iteration #         13
 delta_qm =   0.653129E-05 delta_en =   0.737127E-04 tol =   0.100000E-04
 Iteration #         14
 delta_qm =   0.463182E-05 delta_en =   0.370721E-04 tol =   0.100000E-04
 Iteration #         15
 delta_qm =   0.301289E-05 delta_en =   0.156859E-04 tol =   0.100000E-04
 Iteration #         16
 delta_qm =   0.195363E-05 delta_en =   0.659520E-05 tol =   0.100000E-04
 Charges are converged, EXIT

%%%% ELECTRONS %%%%%%%%%%%%%%%%%%%%%%%%%%%%%%%%%%%%%%%%%%%%%%%%%%%%%%%%%%%%%%%%%
 number of electrons        =         23
 total electronic charge    =     24.0000000
 number of spin components  =  1

%%%% BOUNDARY %%%%%%%%%%%%%%%%%%%%%%%%%%%%%%%%%%%%%%%%%%%%%%%%%%%%%%%%%%%%%%%%%%
 boundary mode              = electronic           
 boundary is built as a function of a smooth density
 function type              =  2 
 using the modified SCCS function with parameters 
 rhomax                     =      0.0050000 
 rhomin                     =      0.0001000 
 volume of the QM region    =    837.3013112 
 surface of the QM region   =    448.8709810 

%%%% DIELECTRIC %%%%%%%%%%%%%%%%%%%%%%%%%%%%%%%%%%%%%%%%%%%%%%%%%%%%%%%%%%%%%%%%%
 dielectric build on homogeneous background
 environment bulk permitt.  =    100.0000000 
 dielectric flags
 need gradient              =  F 
 need factor depend. sqrt   =  F 
 total dielectric charge    =      0.9886184

%%%% COMPUTE ELECTROSTATIC POTENTIAL %%%%%%%%%%%%%%%%%%%%%%%%%%%%%%%%%%%%%%%%%%%
 Starting from polarization: rhoiter =      1.773882 jellium =      0.000000
 Iteration #          1
 delta_qm =   0.890175E-03 delta_en =   0.136929E+01 tol =   0.100000E-04
 Iteration #          2
 delta_qm =   0.583175E-03 delta_en =   0.587680E+00 tol =   0.100000E-04
 Iteration #          3
 delta_qm =   0.362149E-03 delta_en =   0.226631E+00 tol =   0.100000E-04
 Iteration #          4
 delta_qm =   0.232946E-03 delta_en =   0.937677E-01 tol =   0.100000E-04
 Iteration #          5
 delta_qm =   0.148904E-03 delta_en =   0.383140E-01 tol =   0.100000E-04
 Iteration #          6
 delta_qm =   0.931763E-04 delta_en =   0.150022E-01 tol =   0.100000E-04
 Iteration #          7
 delta_qm =   0.585383E-04 delta_en =   0.592139E-02 tol =   0.100000E-04
 Iteration #          8
 delta_qm =   0.389053E-04 delta_en =   0.261554E-02 tol =   0.100000E-04
 Iteration #          9
 delta_qm =   0.256531E-04 delta_en =   0.113716E-02 tol =   0.100000E-04
 Iteration #         10
 delta_qm =   0.167119E-04 delta_en =   0.482611E-03 tol =   0.100000E-04
 Iteration #         11
 delta_qm =   0.117455E-04 delta_en =   0.238388E-03 tol =   0.100000E-04
 Iteration #         12
 delta_qm =   0.810039E-05 delta_en =   0.113385E-03 tol =   0.100000E-04
 Iteration #         13
 delta_qm =   0.537165E-05 delta_en =   0.498609E-04 tol =   0.100000E-04
 Iteration #         14
 delta_qm =   0.381188E-05 delta_en =   0.251086E-04 tol =   0.100000E-04
 Iteration #         15
 delta_qm =   0.271285E-05 delta_en =   0.127174E-04 tol =   0.100000E-04
 Iteration #         16
 delta_qm =   0.181149E-05 delta_en =   0.567045E-05 tol =   0.100000E-04
 Charges are converged, EXIT

%%%% ELECTRONS %%%%%%%%%%%%%%%%%%%%%%%%%%%%%%%%%%%%%%%%%%%%%%%%%%%%%%%%%%%%%%%%%
 number of electrons        =         23
 total electronic charge    =     24.0000000
 number of spin components  =  1

%%%% BOUNDARY %%%%%%%%%%%%%%%%%%%%%%%%%%%%%%%%%%%%%%%%%%%%%%%%%%%%%%%%%%%%%%%%%%
 boundary mode              = electronic           
 boundary is built as a function of a smooth density
 function type              =  2 
 using the modified SCCS function with parameters 
 rhomax                     =      0.0050000 
 rhomin                     =      0.0001000 
 volume of the QM region    =    756.8199194 
 surface of the QM region   =    424.0812340 

%%%% DIELECTRIC %%%%%%%%%%%%%%%%%%%%%%%%%%%%%%%%%%%%%%%%%%%%%%%%%%%%%%%%%%%%%%%%%
 dielectric build on homogeneous background
 environment bulk permitt.  =    100.0000000 
 dielectric flags
 need gradient              =  F 
 need factor depend. sqrt   =  F 
 total dielectric charge    =      0.9888486

%%%% COMPUTE ELECTROSTATIC POTENTIAL %%%%%%%%%%%%%%%%%%%%%%%%%%%%%%%%%%%%%%%%%%%
 Starting from polarization: rhoiter =      1.556978 jellium =      0.000000
 Iteration #          1
 delta_qm =   0.532086E-03 delta_en =   0.489224E+00 tol =   0.100000E-04
 Iteration #          2
 delta_qm =   0.303192E-03 delta_en =   0.158847E+00 tol =   0.100000E-04
 Iteration #          3
 delta_qm =   0.221588E-03 delta_en =   0.848469E-01 tol =   0.100000E-04
 Iteration #          4
 delta_qm =   0.143525E-03 delta_en =   0.355959E-01 tol =   0.100000E-04
 Iteration #          5
 delta_qm =   0.935643E-04 delta_en =   0.151274E-01 tol =   0.100000E-04
 Iteration #          6
 delta_qm =   0.637735E-04 delta_en =   0.702789E-02 tol =   0.100000E-04
 Iteration #          7
 delta_qm =   0.437251E-04 delta_en =   0.330374E-02 tol =   0.100000E-04
 Iteration #          8
 delta_qm =   0.290884E-04 delta_en =   0.146212E-02 tol =   0.100000E-04
 Iteration #          9
 delta_qm =   0.200073E-04 delta_en =   0.691705E-03 tol =   0.100000E-04
 Iteration #         10
 delta_qm =   0.145083E-04 delta_en =   0.363729E-03 tol =   0.100000E-04
 Iteration #         11
 delta_qm =   0.103082E-04 delta_en =   0.183616E-03 tol =   0.100000E-04
 Iteration #         12
 delta_qm =   0.706531E-05 delta_en =   0.862594E-04 tol =   0.100000E-04
 Iteration #         13
 delta_qm =   0.507654E-05 delta_en =   0.445327E-04 tol =   0.100000E-04
 Iteration #         14
 delta_qm =   0.377339E-05 delta_en =   0.246041E-04 tol =   0.100000E-04
 Iteration #         15
 delta_qm =   0.263886E-05 delta_en =   0.120330E-04 tol =   0.100000E-04
 Iteration #         16
 delta_qm =   0.182878E-05 delta_en =   0.577920E-05 tol =   0.100000E-04
 Charges are converged, EXIT

%%%% ELECTRONS %%%%%%%%%%%%%%%%%%%%%%%%%%%%%%%%%%%%%%%%%%%%%%%%%%%%%%%%%%%%%%%%%
 number of electrons        =         23
 total electronic charge    =     24.0000000
 number of spin components  =  1

%%%% BOUNDARY %%%%%%%%%%%%%%%%%%%%%%%%%%%%%%%%%%%%%%%%%%%%%%%%%%%%%%%%%%%%%%%%%%
 boundary mode              = electronic           
 boundary is built as a function of a smooth density
 function type              =  2 
 using the modified SCCS function with parameters 
 rhomax                     =      0.0050000 
 rhomin                     =      0.0001000 
 volume of the QM region    =    716.8148133 
 surface of the QM region   =    412.3316474 

%%%% DIELECTRIC %%%%%%%%%%%%%%%%%%%%%%%%%%%%%%%%%%%%%%%%%%%%%%%%%%%%%%%%%%%%%%%%%
 dielectric build on homogeneous background
 environment bulk permitt.  =    100.0000000 
 dielectric flags
 need gradient              =  F 
 need factor depend. sqrt   =  F 
 total dielectric charge    =      0.9889668

%%%% COMPUTE ELECTROSTATIC POTENTIAL %%%%%%%%%%%%%%%%%%%%%%%%%%%%%%%%%%%%%%%%%%%
 Starting from polarization: rhoiter =      1.396839 jellium =      0.000000
 Iteration #          1
 delta_qm =   0.428243E-03 delta_en =   0.316902E+00 tol =   0.100000E-04
 Iteration #          2
 delta_qm =   0.280361E-03 delta_en =   0.135825E+00 tol =   0.100000E-04
 Iteration #          3
 delta_qm =   0.222541E-03 delta_en =   0.855783E-01 tol =   0.100000E-04
 Iteration #          4
 delta_qm =   0.144621E-03 delta_en =   0.361417E-01 tol =   0.100000E-04
 Iteration #          5
 delta_qm =   0.101803E-03 delta_en =   0.179087E-01 tol =   0.100000E-04
 Iteration #          6
 delta_qm =   0.748808E-04 delta_en =   0.968912E-02 tol =   0.100000E-04
 Iteration #          7
 delta_qm =   0.505131E-04 delta_en =   0.440912E-02 tol =   0.100000E-04
 Iteration #          8
 delta_qm =   0.344230E-04 delta_en =   0.204758E-02 tol =   0.100000E-04
 Iteration #          9
 delta_qm =   0.257520E-04 delta_en =   0.114595E-02 tol =   0.100000E-04
 Iteration #         10
 delta_qm =   0.185092E-04 delta_en =   0.591999E-03 tol =   0.100000E-04
 Iteration #         11
 delta_qm =   0.129427E-04 delta_en =   0.289463E-03 tol =   0.100000E-04
 Iteration #         12
 delta_qm =   0.951977E-05 delta_en =   0.156602E-03 tol =   0.100000E-04
 Iteration #         13
 delta_qm =   0.696392E-05 delta_en =   0.838015E-04 tol =   0.100000E-04
 Iteration #         14
 delta_qm =   0.504052E-05 delta_en =   0.439030E-04 tol =   0.100000E-04
 Iteration #         15
 delta_qm =   0.369379E-05 delta_en =   0.235770E-04 tol =   0.100000E-04
 Iteration #         16
 delta_qm =   0.265776E-05 delta_en =   0.122060E-04 tol =   0.100000E-04
 Iteration #         17
 delta_qm =   0.193287E-05 delta_en =   0.645580E-05 tol =   0.100000E-04
 Charges are converged, EXIT

%%%% ELECTRONS %%%%%%%%%%%%%%%%%%%%%%%%%%%%%%%%%%%%%%%%%%%%%%%%%%%%%%%%%%%%%%%%%
 number of electrons        =         23
 total electronic charge    =     24.0000000
 number of spin components  =  1

%%%% BOUNDARY %%%%%%%%%%%%%%%%%%%%%%%%%%%%%%%%%%%%%%%%%%%%%%%%%%%%%%%%%%%%%%%%%%
 boundary mode              = electronic           
 boundary is built as a function of a smooth density
 function type              =  2 
 using the modified SCCS function with parameters 
 rhomax                     =      0.0050000 
 rhomin                     =      0.0001000 
 volume of the QM region    =    716.8148133 
 surface of the QM region   =    412.3316474 

%%%% DIELECTRIC %%%%%%%%%%%%%%%%%%%%%%%%%%%%%%%%%%%%%%%%%%%%%%%%%%%%%%%%%%%%%%%%%
 dielectric build on homogeneous background
 environment bulk permitt.  =    100.0000000 
 dielectric flags
 need gradient              =  F 
 need factor depend. sqrt   =  F 
 total dielectric charge    =      0.9890240
