
     Program PWSCF v.6.7+ starts on 20Apr2021 at 13:13:25 

     This program is part of the open-source Quantum ESPRESSO suite
     for quantum simulation of materials; please cite
         "P. Giannozzi et al., J. Phys.:Condens. Matter 21 395502 (2009);
         "P. Giannozzi et al., J. Phys.:Condens. Matter 29 465901 (2017);
          URL http://www.quantum-espresso.org", 
     in publications or presentations arising from this work. More details at
     http://www.quantum-espresso.org/quote

     Parallel version (MPI), running on     1 processors

     MPI processes distributed on     1 nodes
     Reading input from charged-dblcell.in

     Current dimensions of program PWSCF are:
     Max number of different atomic species (ntypx) = 10
     Max number of k-points (npk) =  40000
     Max angular momentum in pseudopotentials (lmaxx) =  3
     file C.pbe-rrkjus.UPF: wavefunction(s)  2S 2P renormalized
     file H.pbe-rrkjus.UPF: wavefunction(s)  1S renormalized
     file N.pbe-rrkjus.UPF: wavefunction(s)  2S renormalized
     file O.pbe-rrkjus.UPF: wavefunction(s)  2S renormalized

     gamma-point specific algorithms are used

     Subspace diagonalization in iterative solution of the eigenvalue problem:
     a serial algorithm will be used


     G-vector sticks info
     --------------------
     sticks:   dense  smooth     PW     G-vecs:    dense   smooth      PW
     Sum        5385    2145    545               296459    74773    9315



     bravais-lattice index     =            1
     lattice parameter (alat)  =      15.0000  a.u.
     unit-cell volume          =    3375.0000 (a.u.)^3
     number of atoms/cell      =           10
     number of atomic types    =            4
     number of electrons       =        24.00
     number of Kohn-Sham states=           12
     kinetic-energy cutoff     =      30.0000  Ry
     charge density cutoff     =     300.0000  Ry
     scf convergence threshold =      5.0E-06
     mixing beta               =       0.7000
     number of iterations used =            8  plain     mixing
     Exchange-correlation= SLA  PW   PBE  PBE
                           (   1   4   3   4   0   0   0)


     Environ Module
     ==============

     Plese cite
         O. Andreussi, I. Dabo and N. Marzari, J. Chem. Phys. 136, 064102 (2012)         
     in publications or presentations arising from this work.

     compensation onset threshold      =               0.1000E+03 
     static permittivity               =                   100.00 
     epsilon calculation mode          =               electronic 

     Electrostatic Setup
     -------------------
     electrostatic problem to solve    = generalized              
     numerical solver adopted          = sd                       
     type of auxiliary density adopted = none                     
     type of core tool for poisson     = fft                      



     celldm(1)=  15.000000  celldm(2)=   0.000000  celldm(3)=   0.000000
     celldm(4)=   0.000000  celldm(5)=   0.000000  celldm(6)=   0.000000

     crystal axes: (cart. coord. in units of alat)
               a(1) = (   1.000000   0.000000   0.000000 )  
               a(2) = (   0.000000   1.000000   0.000000 )  
               a(3) = (   0.000000   0.000000   1.000000 )  

     reciprocal axes: (cart. coord. in units 2 pi/alat)
               b(1) = (  1.000000  0.000000  0.000000 )  
               b(2) = (  0.000000  1.000000  0.000000 )  
               b(3) = (  0.000000  0.000000  1.000000 )  


     PseudoPot. # 1 for C  read from file:
     /Users/gabrielmedrano/Desktop/q-e/Environ/tests/../..//pseudo/C.pbe-rrkjus.UPF
     MD5 check sum: c9ac5a99bc85b198593446162950cd17
     Pseudo is Ultrasoft, Zval =  4.0
     Generated by new atomic code, or converted to UPF format
     Using radial grid of  627 points,  4 beta functions with: 
                l(1) =   0
                l(2) =   0
                l(3) =   1
                l(4) =   1
     Q(r) pseudized with 0 coefficients 


     PseudoPot. # 2 for H  read from file:
     /Users/gabrielmedrano/Desktop/q-e/Environ/tests/../..//pseudo/H.pbe-rrkjus.UPF
     MD5 check sum: 2d52a7f45632fd764c17cc6affed14c8
     Pseudo is Ultrasoft, Zval =  1.0
     Generated by new atomic code, or converted to UPF format
     Using radial grid of 1061 points,  2 beta functions with: 
                l(1) =   0
                l(2) =   0
     Q(r) pseudized with 0 coefficients 


     PseudoPot. # 3 for N  read from file:
     /Users/gabrielmedrano/Desktop/q-e/Environ/tests/../..//pseudo/N.pbe-rrkjus.UPF
     MD5 check sum: 28c76d763763edb36c62a6ca2be9aebd
     Pseudo is Ultrasoft, Zval =  5.0
     Generated by new atomic code, or converted to UPF format
     Using radial grid of 1257 points,  4 beta functions with: 
                l(1) =   0
                l(2) =   0
                l(3) =   1
                l(4) =   1
     Q(r) pseudized with 0 coefficients 


     PseudoPot. # 4 for O  read from file:
     /Users/gabrielmedrano/Desktop/q-e/Environ/tests/../..//pseudo/O.pbe-rrkjus.UPF
     MD5 check sum: fadcf19ee70a498d3030e2e79cf929a4
     Pseudo is Ultrasoft, Zval =  6.0
     Generated by new atomic code, or converted to UPF format
     Using radial grid of 1269 points,  4 beta functions with: 
                l(1) =   0
                l(2) =   0
                l(3) =   1
                l(4) =   1
     Q(r) pseudized with 0 coefficients 


     atomic species   valence    mass     pseudopotential
        C              4.00    12.00000     C ( 1.00)
        H              1.00     1.00000     H ( 1.00)
        N              5.00    14.00000     N ( 1.00)
        O              6.00    16.00000     O ( 1.00)

     No symmetry found



   Cartesian axes

     site n.     atom                  positions (alat units)
         1           C   tau(   1) = (   0.0000000   0.0000000   0.0000000  )
         2           C   tau(   2) = (   0.0000000   0.0000000   0.1940119  )
         3           N   tau(   3) = (   0.1561292   0.0000000  -0.0726699  )
         4           H   tau(   4) = (   0.0635490  -0.1100622   0.2389453  )
         5           H   tau(   5) = (  -0.1270911  -0.0000040   0.2389454  )
         6           H   tau(   6) = (   0.0635421   0.1100661   0.2389453  )
         7           O   tau(   7) = (  -0.1312003  -0.0000025  -0.0855080  )
         8           H   tau(   8) = (   0.1684174  -0.0000020  -0.1967397  )
         9           H   tau(   9) = (   0.2592860   0.0000179  -0.0034288  )
        10           H   tau(  10) = (  -0.1027154  -0.0000059  -0.2030481  )

     number of k points=     1
                       cart. coord. in units 2pi/alat
        k(    1) = (   0.0000000   0.0000000   0.0000000), wk =   2.0000000

     Dense  grid:   148230 G-vectors     FFT dimensions: (  90,  90,  90)

     Smooth grid:    37387 G-vectors     FFT dimensions: (  54,  54,  54)

     Estimated max dynamical RAM per process >     264.59 MB

     Initial potential from superposition of free atoms

     starting charge   24.42266, renormalised to   24.00000

     negative rho (up, down):  4.665E-08 0.000E+00
     Starting wfcs are   22 randomized atomic wfcs

     total cpu time spent up to now is       28.7 secs

     Self-consistent Calculation

     iteration #  1     ecut=    30.00 Ry     beta= 0.70
     Davidson diagonalization with overlap
     ethr =  1.00E-02,  avg # of iterations =  2.0

     negative rho (up, down):  1.463E-08 0.000E+00

     add environment contribution to local potential
 Warning: Polarization charge not converged
     polarization accuracy = 1.7E+00, # of iterations = 201

     total cpu time spent up to now is      521.6 secs

     total energy              =     -80.35719684 Ry
     estimated scf accuracy    <       3.59640490 Ry
     electrostatic embedding   =       0.01120458 Ry
     correction to one-el term =      -0.00000000 Ry

     iteration #  2     ecut=    30.00 Ry     beta= 0.70
     Davidson diagonalization with overlap
     ethr =  1.00E-02,  avg # of iterations =  4.0

     negative rho (up, down):  1.142E-08 0.000E+00

     add environment contribution to local potential
 Warning: Polarization charge not converged
     polarization accuracy = 5.2E+01, # of iterations = 201

     total cpu time spent up to now is     1031.2 secs

     total energy              =     -81.16518613 Ry
     estimated scf accuracy    <       1.03526965 Ry
     electrostatic embedding   =      -0.07092243 Ry
     correction to one-el term =      -1.30363317 Ry

     iteration #  3     ecut=    30.00 Ry     beta= 0.70
     Davidson diagonalization with overlap
     ethr =  4.31E-03,  avg # of iterations =  4.0

     add environment contribution to local potential
 Warning: Polarization charge not converged
     polarization accuracy = 2.0E-03, # of iterations = 201

     total cpu time spent up to now is     1540.0 secs

     total energy              =     -81.38224110 Ry
     estimated scf accuracy    <       0.11316859 Ry
     electrostatic embedding   =      -0.03371185 Ry
     correction to one-el term =      -0.48232635 Ry

     iteration #  4     ecut=    30.00 Ry     beta= 0.70
     Davidson diagonalization with overlap
     ethr =  4.72E-04,  avg # of iterations =  4.0

     negative rho (up, down):  1.801E-08 0.000E+00

     add environment contribution to local potential
 Warning: Polarization charge not converged
     polarization accuracy = 1.4E-05, # of iterations = 201

     total cpu time spent up to now is     2071.2 secs

     total energy              =     -81.36434723 Ry
     estimated scf accuracy    <       0.01745313 Ry
     electrostatic embedding   =      -0.03002424 Ry
     correction to one-el term =      -0.71382050 Ry

     iteration #  5     ecut=    30.00 Ry     beta= 0.70
     Davidson diagonalization with overlap
     ethr =  7.27E-05,  avg # of iterations =  4.0

     negative rho (up, down):  4.163E-08 0.000E+00

     add environment contribution to local potential
 Warning: Polarization charge not converged
     polarization accuracy = 1.4E-05, # of iterations = 201

     total cpu time spent up to now is     2796.5 secs

     total energy              =     -81.36826887 Ry
     estimated scf accuracy    <       0.00195383 Ry
     electrostatic embedding   =      -0.02856983 Ry
     correction to one-el term =      -0.62100266 Ry

     iteration #  6     ecut=    30.00 Ry     beta= 0.70
     Davidson diagonalization with overlap
     ethr =  8.14E-06,  avg # of iterations =  2.0

     negative rho (up, down):  4.698E-07 0.000E+00

     add environment contribution to local potential
 Warning: Polarization charge not converged
     polarization accuracy = 1.4E-05, # of iterations = 201

     total cpu time spent up to now is     3564.6 secs

     total energy              =     -81.36886495 Ry
     estimated scf accuracy    <       0.00025922 Ry
     electrostatic embedding   =      -0.03031319 Ry
     correction to one-el term =      -0.60849205 Ry

     iteration #  7     ecut=    30.00 Ry     beta= 0.70
     Davidson diagonalization with overlap
     ethr =  1.08E-06,  avg # of iterations =  2.0

     negative rho (up, down):  8.147E-05 0.000E+00

     add environment contribution to local potential
 Warning: Polarization charge not converged
     polarization accuracy = 1.6E-05, # of iterations = 201

     total cpu time spent up to now is     4416.6 secs

     total energy              =     -81.36910443 Ry
     estimated scf accuracy    <       0.00003228 Ry
     electrostatic embedding   =      -0.03227657 Ry
     correction to one-el term =      -0.60745348 Ry

     iteration #  8     ecut=    30.00 Ry     beta= 0.70
     Davidson diagonalization with overlap
     ethr =  1.35E-07,  avg # of iterations =  5.0

     negative rho (up, down):  1.109E-04 0.000E+00

     add environment contribution to local potential
 Warning: Polarization charge not converged
     polarization accuracy = 1.7E-05, # of iterations = 201

     total cpu time spent up to now is     5142.2 secs

     total energy              =     -81.36925346 Ry
     estimated scf accuracy    <       0.00002712 Ry
     electrostatic embedding   =      -0.03440067 Ry
     correction to one-el term =      -0.61200646 Ry

     iteration #  9     ecut=    30.00 Ry     beta= 0.70
     Davidson diagonalization with overlap
     ethr =  1.13E-07,  avg # of iterations =  3.0

     negative rho (up, down):  6.109E-05 0.000E+00

     add environment contribution to local potential
 Warning: Polarization charge not converged
     polarization accuracy = 1.7E-05, # of iterations = 201

     total cpu time spent up to now is     5721.4 secs

     total energy              =     -81.36930081 Ry
     estimated scf accuracy    <       0.00000779 Ry
     electrostatic embedding   =      -0.03541717 Ry
     correction to one-el term =      -0.61772501 Ry

     iteration # 10     ecut=    30.00 Ry     beta= 0.70
     Davidson diagonalization with overlap
     ethr =  3.25E-08,  avg # of iterations =  6.0

     negative rho (up, down):  6.123E-05 0.000E+00

     add environment contribution to local potential
 Warning: Polarization charge not converged
     polarization accuracy = 1.7E-05, # of iterations = 201

     total cpu time spent up to now is     6220.8 secs

     total energy              =     -81.36936646 Ry
     estimated scf accuracy    <       0.00000848 Ry
     electrostatic embedding   =      -0.03809106 Ry
     correction to one-el term =      -0.63283374 Ry

     iteration # 11     ecut=    30.00 Ry     beta= 0.70
     Davidson diagonalization with overlap
     ethr =  3.25E-08,  avg # of iterations =  4.0

     negative rho (up, down):  5.825E-05 0.000E+00

     the potential shift due to the Gaussian-smeared nuclei is    -0.0059 ev

     total cpu time spent up to now is     6232.1 secs

     End of self-consistent calculation

          k = 0.0000 0.0000 0.0000 (  4658 PWs)   bands (ev):

   -29.1423 -23.3259 -18.8787 -16.2288 -14.8621 -13.6250 -11.9114 -11.1846
    -9.8771  -9.8668  -9.5446  -7.6153

     highest occupied level (ev):    -7.6153

!    total energy              =     -81.36939633 Ry
     estimated scf accuracy    <       0.00000106 Ry

     The total energy is the sum of the following terms:
     one-electron contribution =    -196.14358174 Ry
     hartree contribution      =     100.03417135 Ry
     xc contribution           =     -22.96767224 Ry
     ewald contribution        =      38.38659548 Ry
     electrostatic embedding   =      -0.03930707 Ry
     correction to one-el term =      -0.63960210 Ry

     convergence has been achieved in  11 iterations
 forces lc
       1    0.0390    0.0000   -0.0851
       2    0.0402    0.0000    0.0295
       3    2.1866   -0.0358    7.2443
       4    0.0585   -0.0424    0.1022
       5   -0.1036    0.0000   -0.1230
       6    0.0584    0.0423    0.1020
       7**********   98.6863**********
       8   -0.0253   -0.0001   -0.0275
       9    0.1083    0.0000    0.0474
      10    0.0489    0.0000    0.0095

     Forces acting on atoms (cartesian axes, Ry/au):

     atom    1 type  1   force =  3558.73180845   -9.86503850 2146.95725229
     atom    2 type  1   force =  3558.48559945   -9.86503911 2146.82000280
     atom    3 type  3   force =  3560.55149229   -9.90084961 2154.24660087
     atom    4 type  2   force =  3558.58123739   -9.93500385 2146.96688764
     atom    5 type  2   force =  3558.37819848   -9.86503871 2146.73916966
     atom    6 type  2   force =  3558.58114850   -9.79513271 2146.96675246
     atom    7 type  4   force = **************   88.82123977**************
     atom    8 type  2   force =  3558.51525327   -9.86512837 2146.82139305
     atom    9 type  2   force =  3558.63654860   -9.86501049 2146.92839001
     atom   10 type  2   force =  3558.51159205   -9.86499842 2146.89924391

     Total force = 39433.300147     Total SCF correction =     0.001354

     Writing output data file /Users/gabrielmedrano/Desktop/q-e/Environ/tests/../..//tempdir/pwscf.save/

     init_run     :     25.09s CPU     28.63s WALL (       1 calls)
     electrons    :   5244.20s CPU   6203.43s WALL (       1 calls)
     forces       :      5.36s CPU      6.39s WALL (       1 calls)

     Called by init_run:
     wfcinit      :      0.05s CPU      0.06s WALL (       1 calls)
     potinit      :      9.34s CPU     10.96s WALL (       1 calls)
     hinit0       :     13.46s CPU     14.66s WALL (       1 calls)

     Called by electrons:
     c_bands      :      1.41s CPU      1.51s WALL (      11 calls)
     sum_band     :      6.28s CPU      4.02s WALL (      11 calls)
     v_of_rho     :      3.31s CPU      3.88s WALL (      12 calls)
     newd         :      2.25s CPU      3.28s WALL (      12 calls)
     mix_rho      :      0.42s CPU      0.76s WALL (      11 calls)

     Called by c_bands:
     init_us_2    :      0.04s CPU      0.16s WALL (      23 calls)
     regterg      :      1.35s CPU      1.34s WALL (      11 calls)

     Called by *egterg:
     rdiaghg      :      0.01s CPU      0.02s WALL (      51 calls)
     h_psi        :      1.16s CPU      1.18s WALL (      52 calls)
     s_psi        :      0.07s CPU      0.05s WALL (      52 calls)
     g_psi        :      0.01s CPU      0.01s WALL (      40 calls)

     Called by h_psi:
     h_psi:calbec :      0.03s CPU      0.03s WALL (      52 calls)
     vloc_psi     :      1.02s CPU      1.04s WALL (      52 calls)
     add_vuspsi   :      0.11s CPU      0.11s WALL (      52 calls)

     General routines
     calbec       :      0.04s CPU      0.04s WALL (      67 calls)
     fft          :   3587.19s CPU   4101.84s WALL (    4331 calls)
     ffts         :      0.06s CPU      0.06s WALL (      23 calls)
     fftw         :      0.93s CPU      0.95s WALL (     532 calls)
     interpolate  :      0.23s CPU      0.42s WALL (      12 calls)

     Parallel routines
     fft_scatt_xy :    351.85s CPU    370.10s WALL (    4195 calls)
     fft_scatt_yz :    629.44s CPU    686.32s WALL (    4195 calls)

     Environ routines
     calc_eelect  :      0.36s CPU      0.50s WALL (      22 calls)
     calc_velect  :   4997.81s CPU   5865.12s WALL (      20 calls)
     dielectric   :     11.83s CPU     21.88s WALL (      13 calls)
     calc_felect  :      4.95s CPU      5.92s WALL (       1 calls)

     PWSCF        :      1h27m CPU      1h43m WALL


   This run was terminated on:  14:57:24  20Apr2021            

=------------------------------------------------------------------------------=
   JOB DONE.
=------------------------------------------------------------------------------=
 Calling electrostatic_initbase now
 electrolyte_distance:    0.0000000000000000     
 sc_distance:    0.0000000000000000     
 velectrostatic started
 vreference created

%%%% IONS %%%%%%%%%%%%%%%%%%%%%%%%%%%%%%%%%%%%%%%%%%%%%%%%%%%%%%%%%%%%%%%%%%%%%%
 number of ions             =         10
 ionic center of charge     =      0.0127373    -0.0000002     0.0085308
 total ionic charge         =    -25.0000000
 ionic dipole               =      0.0000000     0.0000000     0.0000000
 ionic quadrupole (pc)      =    -79.0828051    -5.4513517  -105.8059620
 ionic quadrupole (gauss)   =    -82.2078051    -8.5763517  -108.9309620
 ion   1 type =  1 coordinates =      0.0000000     0.0000000     0.0000000
 ion   2 type =  1 coordinates =      0.0000000     0.0000000     2.9101782
 ion   3 type =  3 coordinates =      2.3419379     0.0000000    -1.0900479
 ion   4 type =  2 coordinates =      0.9532347    -1.6509323     3.5841800
 ion   5 type =  2 coordinates =     -1.9063663    -0.0000596     3.5841809
 ion   6 type =  2 coordinates =      0.9531315     1.6509919     3.5841800
 ion   7 type =  4 coordinates =     -1.9680045    -0.0000375    -1.2826193
 ion   8 type =  2 coordinates =      2.5262613    -0.0000303    -2.9510950
 ion   9 type =  2 coordinates =      3.8892907     0.0002681    -0.0514326
 ion  10 type =  2 coordinates =     -1.5407317    -0.0000890    -3.0457220

%%%% SYSTEM %%%%%%%%%%%%%%%%%%%%%%%%%%%%%%%%%%%%%%%%%%%%%%%%%%%%%%%%%%%%%%%%%%%%
 system is built from all present ionic types
 system defined dimension   =  0 
 system defined axis        =  3 
 system center              =      0.0127373    -0.0000002     0.0085308 
 system width               =      0.2695234 

%%%% IONS %%%%%%%%%%%%%%%%%%%%%%%%%%%%%%%%%%%%%%%%%%%%%%%%%%%%%%%%%%%%%%%%%%%%%%
 number of ions             =         10
 ionic center of charge     =      0.0127373    -0.0000002     0.0085308
 total ionic charge         =    -25.0000000
 ionic dipole               =      0.0000000     0.0000000     0.0000000
 ionic quadrupole (pc)      =    -79.0828051    -5.4513517  -105.8059620
 ionic quadrupole (gauss)   =    -82.2078051    -8.5763517  -108.9309620
 ion   1 type =  1 coordinates =      0.0000000     0.0000000     0.0000000
 ion   2 type =  1 coordinates =      0.0000000     0.0000000     2.9101782
 ion   3 type =  3 coordinates =      2.3419379     0.0000000    -1.0900479
 ion   4 type =  2 coordinates =      0.9532347    -1.6509323     3.5841800
 ion   5 type =  2 coordinates =     -1.9063663    -0.0000596     3.5841809
 ion   6 type =  2 coordinates =      0.9531315     1.6509919     3.5841800
 ion   7 type =  4 coordinates =     -1.9680045    -0.0000375    -1.2826193
 ion   8 type =  2 coordinates =      2.5262613    -0.0000303    -2.9510950
 ion   9 type =  2 coordinates =      3.8892907     0.0002681    -0.0514326
 ion  10 type =  2 coordinates =     -1.5407317    -0.0000890    -3.0457220

%%%% SYSTEM %%%%%%%%%%%%%%%%%%%%%%%%%%%%%%%%%%%%%%%%%%%%%%%%%%%%%%%%%%%%%%%%%%%%
 system is built from all present ionic types
 system defined dimension   =  0 
 system defined axis        =  3 
 system center              =      0.0127373    -0.0000002     0.0085308 
 system width               =      0.2695234 

%%%% ELECTRONS %%%%%%%%%%%%%%%%%%%%%%%%%%%%%%%%%%%%%%%%%%%%%%%%%%%%%%%%%%%%%%%%%
 number of electrons        =         24
 total electronic charge    =     24.0000000

%%%% ELECTRONS %%%%%%%%%%%%%%%%%%%%%%%%%%%%%%%%%%%%%%%%%%%%%%%%%%%%%%%%%%%%%%%%%
 number of electrons        =         24
 total electronic charge    =     24.0000000

%%%% BOUNDARY %%%%%%%%%%%%%%%%%%%%%%%%%%%%%%%%%%%%%%%%%%%%%%%%%%%%%%%%%%%%%%%%%%
 boundary label             = solvent              
 boundary mode              = electronic           
 boundary is built as a function of a smooth density
 function type              =  2 
 using the modified SCCS function with parameters 
 rhomax                     =      0.0050000 
 rhomin                     =      0.0001000 
 volume of the QM region    =   2795.5021428 
 surface of the QM region   =    971.7150809 

%%%% DIELECTRIC %%%%%%%%%%%%%%%%%%%%%%%%%%%%%%%%%%%%%%%%%%%%%%%%%%%%%%%%%%%%%%%%%
 dielectric build on homogeneous background
 environment bulk permitt.  =    100.0000000 
 dielectric flags
 need gradient              =  F 
 need factor depend. sqrt   =  T 
 total dielectric charge    =      0.0000000

%%%% DENSITY %%%%%%%%%%%%%%%%%%%%%%%%%%%%%%%%%%%%%%%%%%%%%%%%%%%%%%%%%%%%%%%%%%%
 density label              = dvtot                                                                           
 integral of density        =      0.000000000    

%%%% DENSITY %%%%%%%%%%%%%%%%%%%%%%%%%%%%%%%%%%%%%%%%%%%%%%%%%%%%%%%%%%%%%%%%%%%
 density label              = vreference                                                                      
 integral of density        =      0.000000000    

%%%% DENSITY %%%%%%%%%%%%%%%%%%%%%%%%%%%%%%%%%%%%%%%%%%%%%%%%%%%%%%%%%%%%%%%%%%%
 density label              = velectrostatic                                                                  
 integral of density        =      0.000000000    

%%%% CHARGES %%%%%%%%%%%%%%%%%%%%%%%%%%%%%%%%%%%%%%%%%%%%%%%%%%%%%%%%%%%%%%%%%%%
 total number of charges    =         34
 total charge               =     -1.0000000

%%%% DENSITY %%%%%%%%%%%%%%%%%%%%%%%%%%%%%%%%%%%%%%%%%%%%%%%%%%%%%%%%%%%%%%%%%%%
 density label              = vsoftcavity                                                                     
 integral of density        =      0.000000000    

%%%% ELECTRONS %%%%%%%%%%%%%%%%%%%%%%%%%%%%%%%%%%%%%%%%%%%%%%%%%%%%%%%%%%%%%%%%%
 number of electrons        =         24
 total electronic charge    =     24.0000000

%%%% ELECTRONS %%%%%%%%%%%%%%%%%%%%%%%%%%%%%%%%%%%%%%%%%%%%%%%%%%%%%%%%%%%%%%%%%
 number of electrons        =         24
 total electronic charge    =     24.0000000

%%%% BOUNDARY %%%%%%%%%%%%%%%%%%%%%%%%%%%%%%%%%%%%%%%%%%%%%%%%%%%%%%%%%%%%%%%%%%
 boundary label             = solvent              
 boundary mode              = electronic           
 boundary is built as a function of a smooth density
 function type              =  2 
 using the modified SCCS function with parameters 
 rhomax                     =      0.0050000 
 rhomin                     =      0.0001000 
 volume of the QM region    =   1217.3185229 
 surface of the QM region   =    908.6770082 

%%%% DIELECTRIC %%%%%%%%%%%%%%%%%%%%%%%%%%%%%%%%%%%%%%%%%%%%%%%%%%%%%%%%%%%%%%%%%
 dielectric build on homogeneous background
 environment bulk permitt.  =    100.0000000 
 dielectric flags
 need gradient              =  F 
 need factor depend. sqrt   =  T 
 total dielectric charge    =      0.0000000

%%%% DENSITY %%%%%%%%%%%%%%%%%%%%%%%%%%%%%%%%%%%%%%%%%%%%%%%%%%%%%%%%%%%%%%%%%%%
 density label              = vreference                                                                      
 integral of density        =    -0.1029250759E-11

%%%% COMPUTE ELECTROSTATIC POTENTIAL %%%%%%%%%%%%%%%%%%%%%%%%%%%%%%%%%%%%%%%%%%%
 Iteration #          1
  pAp =    102.08475986070759       rzold =    89.903997523128936       alpha =   0.88067991388529454     
 delta_qm =   0.489229E-01 delta_en =   0.471104E+05 tol =   0.100000E-04
 Iteration #          2
  pAp =    2866.8558347668650       rzold =    154.96202286390917       alpha =    5.4052952710302853E-002
 delta_qm =   0.156250E-01 delta_en =   0.480543E+04 tol =   0.100000E-04
 Iteration #          3
  pAp =    31.918199026317655       rzold =    4.2876283779104876       alpha =   0.13433177650077280     
 delta_qm =   0.785005E-02 delta_en =   0.121293E+04 tol =   0.100000E-04
 Iteration #          4
  pAp =    24.033924406391826       rzold =    2.2418159873628269       alpha =    9.3277150641557963E-002
 delta_qm =   0.577090E-02 delta_en =   0.655509E+03 tol =   0.100000E-04
 Iteration #          5
  pAp =    13.383261469905630       rzold =    1.3934031264274040       alpha =   0.10411536302721801     
 delta_qm =   0.445358E-02 delta_en =   0.390400E+03 tol =   0.100000E-04
 Iteration #          6
  pAp =    13.340400385920409       rzold =    1.2334900504392536       alpha =    9.2462745851398229E-002
 delta_qm =   0.416022E-02 delta_en =   0.340662E+03 tol =   0.100000E-04
 Iteration #          7
  pAp =    8.4998452398528013       rzold =   0.88170857392104252       alpha =   0.10373230912334962     
 delta_qm =   0.370978E-02 delta_en =   0.270887E+03 tol =   0.100000E-04
 Iteration #          8
  pAp =    8.6465512545108947       rzold =   0.79940513150288961       alpha =    9.2453639372789345E-002
 delta_qm =   0.321989E-02 delta_en =   0.204068E+03 tol =   0.100000E-04
 Iteration #          9
  pAp =    5.5622010463725182       rzold =   0.57725657378818762       alpha =   0.10378204041449654     
 delta_qm =   0.307237E-02 delta_en =   0.185797E+03 tol =   0.100000E-04
 Iteration #         10
  pAp =    5.6850870203941763       rzold =   0.52580333899793918       alpha =    9.2488177773131522E-002
 delta_qm =   0.256215E-02 delta_en =   0.129212E+03 tol =   0.100000E-04
 Iteration #         11
  pAp =    3.6660384141734630       rzold =   0.38057687597967971       alpha =   0.10381148067306428     
 delta_qm =   0.252640E-02 delta_en =   0.125630E+03 tol =   0.100000E-04
 Iteration #         12
  pAp =    3.7526274309890697       rzold =   0.34712965050538391       alpha =    9.2503094668764357E-002
 delta_qm =   0.205984E-02 delta_en =   0.835137E+02 tol =   0.100000E-04
 Iteration #         13
  pAp =    2.4218228849420189       rzold =   0.25144223927055687       alpha =   0.10382354582324325     
 delta_qm =   0.207100E-02 delta_en =   0.844215E+02 tol =   0.100000E-04
 Iteration #         14
  pAp =    2.4803804569306132       rzold =   0.22945881654109990       alpha =    9.2509524456198713E-002
 delta_qm =   0.166294E-02 delta_en =   0.544305E+02 tol =   0.100000E-04
 Iteration #         15
  pAp =    1.6012698076211538       rzold =   0.16625891142739638       alpha =   0.10382941752607613     
 delta_qm =   0.169605E-02 delta_en =   0.566197E+02 tol =   0.100000E-04
 Iteration #         16
  pAp =    1.6404017353069165       rzold =   0.15175893598501494       alpha =    9.2513274473353987E-002
 delta_qm =   0.134493E-02 delta_en =   0.356032E+02 tol =   0.100000E-04
 Iteration #         17
  pAp =    1.0591888078313181       rzold =   0.10997947617318303       alpha =   0.10383368419306210     
 delta_qm =   0.138935E-02 delta_en =   0.379940E+02 tol =   0.100000E-04
 Iteration #         18
  pAp =    1.0852624306395990       rzold =   0.10040487172142898       alpha =    9.2516675125531994E-002
 delta_qm =   0.108864E-02 delta_en =   0.233270E+02 tol =   0.100000E-04
 Iteration #         19
  pAp =   0.70084875790084133       rzold =    7.2774975683590218E-002  alpha =   0.10383834581024783     
 delta_qm =   0.113945E-02 delta_en =   0.255555E+02 tol =   0.100000E-04
 Iteration #         20
  pAp =   0.71823301496338321       rzold =    6.6451581855443448E-002  alpha =    9.2520923531802926E-002
 delta_qm =   0.881661E-03 delta_en =   0.153001E+02 tol =   0.100000E-04
 Iteration #         21
  pAp =   0.46391204095737476       rzold =    4.8174802987029385E-002  alpha =   0.10384469195412797     
 delta_qm =   0.936398E-03 delta_en =   0.172589E+02 tol =   0.100000E-04
 Iteration #         22
  pAp =   0.47553608266066039       rzold =    4.3999932076597366E-002  alpha =    9.2527010422457145E-002
 delta_qm =   0.714516E-03 delta_en =   0.100488E+02 tol =   0.100000E-04
 Iteration #         23
  pAp =   0.30723332095541989       rzold =    3.1907425877297488E-002  alpha =   0.10385405390949543     
 delta_qm =   0.771820E-03 delta_en =   0.117253E+02 tol =   0.100000E-04
 Iteration #         24
  pAp =   0.31504517522822229       rzold =    2.9153063640312841E-002  alpha =    9.2536137457728193E-002
 delta_qm =   0.579787E-03 delta_en =   0.661651E+01 tol =   0.100000E-04
 Iteration #         25
  pAp =   0.20362396941569999       rzold =    2.1150058869542767E-002  alpha =   0.10386821811907983     
 delta_qm =   0.638809E-03 delta_en =   0.803219E+01 tol =   0.100000E-04
 Iteration #         26
  pAp =   0.20891521192745544       rzold =    1.9335105183409491E-002  alpha =    9.2550011102702709E-002
 delta_qm =   0.471596E-03 delta_en =   0.437755E+01 tol =   0.100000E-04
 Iteration #         27
  pAp =   0.13510957509170884       rzold =    1.4036506318410710E-002  alpha =   0.10388979692137361     
 delta_qm =   0.531703E-03 delta_en =   0.556455E+01 tol =   0.100000E-04
 Iteration #         28
  pAp =   0.13873549737159740       rzold =    1.2842905943513934E-002  alpha =    9.2571160134415575E-002
 delta_qm =   0.385264E-03 delta_en =   0.292152E+01 tol =   0.100000E-04
 Iteration #         29
  pAp =    8.9804864413185706E-002  rzold =    9.3327621048264926E-003  alpha =   0.10392267908659299     
 delta_qm =   0.445884E-03 delta_en =   0.391323E+01 tol =   0.100000E-04
 Iteration #         30
  pAp =    9.2331572183231042E-002  rzold =    8.5502123909260812E-003  alpha =    9.2603344541326280E-002
 delta_qm =   0.317060E-03 delta_en =   0.197868E+01 tol =   0.100000E-04
 Iteration #         31
  pAp =    5.9850169090023844E-002  rzold =    6.2227789412729025E-003  alpha =   0.10397262089456903     
 delta_qm =   0.377587E-03 delta_en =   0.280624E+01 tol =   0.100000E-04
 Iteration #         32
  pAp =    6.1652307447693823E-002  rzold =    5.7122148910557701E-003  alpha =    9.2652085988866623E-002
 delta_qm =   0.263987E-03 delta_en =   0.137169E+01 tol =   0.100000E-04
 Iteration #         33
  pAp =    4.0047698837376217E-002  rzold =    4.1668825321865728E-003  alpha =   0.10404798910187700     
 delta_qm =   0.323731E-03 delta_en =   0.206282E+01 tol =   0.100000E-04
 Iteration #         34
  pAp =    4.1373229124709067E-002  rzold =    3.8363449456243637E-003  alpha =    9.2725296690298900E-002
 delta_qm =   0.223590E-03 delta_en =   0.984004E+00 tol =   0.100000E-04
 Iteration #         35
  pAp =    2.6959964604577957E-002  rzold =    2.8081652192724826E-003  alpha =   0.10416056773292796     
 delta_qm =   0.281773E-03 delta_en =   0.156276E+01 tol =   0.100000E-04
 Iteration #         36
  pAp =    2.7973062394907339E-002  rzold =    2.5968474761086865E-003  alpha =    9.2833864217221271E-002
 delta_qm =   0.193769E-03 delta_en =   0.739027E+00 tol =   0.100000E-04
 Iteration #         37
  pAp =    1.8313634122031974E-002  rzold =    1.9105904324245621E-003  alpha =   0.10432612225915618     
 delta_qm =   0.249584E-03 delta_en =   0.122610E+01 tol =   0.100000E-04
 Iteration #         38
  pAp =    1.9123088579457707E-002  rzold =    1.7782905621092520E-003  alpha =    9.2991806983497266E-002
 delta_qm =   0.172621E-03 delta_en =   0.586513E+00 tol =   0.100000E-04
 Iteration #         39
  pAp =    1.2605311883848761E-002  rzold =    1.3180619912620630E-003  alpha =   0.10456401264858042     
 delta_qm =   0.225355E-03 delta_en =   0.999597E+00 tol =   0.100000E-04
 Iteration #         40
  pAp =    1.3283322904282026E-002  rzold =    1.2382079592662457E-003  alpha =    9.3215226957036157E-002
 delta_qm =   0.158350E-03 delta_en =   0.493543E+00 tol =   0.100000E-04
 Iteration #         41
  pAp =    8.8408292794840762E-003  rzold =    9.2735539981025374E-004  alpha =   0.10489461683897275     
 delta_qm =   0.207534E-03 delta_en =   0.847756E+00 tol =   0.100000E-04
 Iteration #         42
  pAp =    9.4354396141639058E-003  rzold =    8.8239220091590898E-004  alpha =    9.3518928316950453E-002
 delta_qm =   0.149277E-03 delta_en =   0.438607E+00 tol =   0.100000E-04
 Iteration #         43
  pAp =    6.3628063228943384E-003  rzold =    6.7021438860187348E-004  alpha =   0.10533314304889980     
 delta_qm =   0.194791E-03 delta_en =   0.746846E+00 tol =   0.100000E-04
 Iteration #         44
  pAp =    6.9061010816149080E-003  rzold =    6.4855125354615622E-004  alpha =    9.3909898781050036E-002
 delta_qm =   0.143923E-03 delta_en =   0.407712E+00 tol =   0.100000E-04
 Iteration #         45
  pAp =    4.7365640583232962E-003  rzold =    5.0150623224956765E-004  alpha =   0.10587975293362688     
 delta_qm =   0.185999E-03 delta_en =   0.680944E+00 tol =   0.100000E-04
 Iteration #         46
  pAp =    5.2500414751404040E-003  rzold =    4.9549337430520245E-004  alpha =    9.4378944747660551E-002
 delta_qm =   0.141091E-03 delta_en =   0.391824E+00 tol =   0.100000E-04
 Iteration #         47
  pAp =    3.6746065124948282E-003  rzold =    3.9138186381449704E-004  alpha =   0.10650987050822298     
 delta_qm =   0.180219E-03 delta_en =   0.639279E+00 tol =   0.100000E-04
 Iteration #         48
  pAp =    4.1726601894228046E-003  rzold =    3.9596698423655536E-004  alpha =    9.4895574108882483E-002
 delta_qm =   0.139891E-03 delta_en =   0.385184E+00 tol =   0.100000E-04
 Iteration #         49
  pAp =    2.9866241623380816E-003  rzold =    3.2008540458602685E-004  alpha =   0.10717297764558621     
 delta_qm =   0.176688E-03 delta_en =   0.614476E+00 tol =   0.100000E-04
 Iteration #         50
  pAp =    3.4787977612359411E-003  rzold =    3.3192193716712645E-004  alpha =    9.5412829358956994E-002
 delta_qm =   0.139709E-03 delta_en =   0.384185E+00 tol =   0.100000E-04
 Iteration #         51
  pAp =    2.5464423419504978E-003  rzold =    2.7452182947221445E-004  alpha =   0.10780602605827667     
 delta_qm =   0.174800E-03 delta_en =   0.601412E+00 tol =   0.100000E-04
 Iteration #         52
  pAp =    3.0389358285794798E-003  rzold =    2.9138147907785427E-004  alpha =    9.5882735113251016E-002
 delta_qm =   0.140152E-03 delta_en =   0.386623E+00 tol =   0.100000E-04
 Iteration #         53
  pAp =    2.2702604357171426E-003  rzold =    2.4599572839890623E-004  alpha =   0.10835573070329252     
 delta_qm =   0.174083E-03 delta_en =   0.596492E+00 tol =   0.100000E-04
 Iteration #         54
  pAp =    2.7670012645985751E-003  rzold =    2.6638708960422214E-004  alpha =    9.6272847075430754E-002
 delta_qm =   0.140974E-03 delta_en =   0.391175E+00 tol =   0.100000E-04
 Iteration #         55
  pAp =    2.1023844428779510E-003  rzold =    2.2872809759522865E-004  alpha =   0.10879461098091227     
 delta_qm =   0.174184E-03 delta_en =   0.597187E+00 tol =   0.100000E-04
 Iteration #         56
  pAp =    2.6058179290271125E-003  rzold =    2.5165144310258455E-004  alpha =    9.6572918736705121E-002
 delta_qm =   0.142031E-03 delta_en =   0.397063E+00 tol =   0.100000E-04
 Iteration #         57
  pAp =    2.0058576268155203E-003  rzold =    2.1888290653704942E-004  alpha =   0.10912185571442862     
 delta_qm =   0.174846E-03 delta_en =   0.601735E+00 tol =   0.100000E-04
 Iteration #         58
  pAp =    2.5175123334052903E-003  rzold =    2.4367088326772342E-004  alpha =    9.6790343401465764E-002
 delta_qm =   0.143236E-03 delta_en =   0.403828E+00 tol =   0.100000E-04
 Iteration #         59
  pAp =    1.9562488014983580E-003  rzold =    2.1392273826436483E-004  alpha =   0.10935354342480061     
 delta_qm =   0.175888E-03 delta_en =   0.608927E+00 tol =   0.100000E-04
 Iteration #         60
  pAp =    2.4771116108404496E-003  rzold =    2.4013397072950740E-004  alpha =    9.6941118712060487E-002
 delta_qm =   0.144538E-03 delta_en =   0.411201E+00 tol =   0.100000E-04
 Iteration #         61
  pAp =    1.9374870689419076E-003  rzold =    2.1217731967149722E-004  alpha =   0.10951160555996413     
 delta_qm =   0.177186E-03 delta_en =   0.617946E+00 tol =   0.100000E-04
 Iteration #         62
  pAp =    2.4682334416714028E-003  rzold =    2.3952358367974311E-004  alpha =    9.7042516172030302E-002
 delta_qm =   0.145906E-03 delta_en =   0.419020E+00 tol =   0.100000E-04
 Iteration #         63
  pAp =    1.9390538400534888E-003  rzold =    2.1255274654266077E-004  alpha =   0.10961673273435125     
 delta_qm =   0.178657E-03 delta_en =   0.628250E+00 tol =   0.100000E-04
 Iteration #         64
  pAp =    2.4801816708749512E-003  rzold =    2.4084874053698993E-004  alpha =    9.7109313952805726E-002
 delta_qm =   0.147321E-03 delta_en =   0.427188E+00 tol =   0.100000E-04
 Iteration #         65
  pAp =    1.9540946584796865E-003  rzold =    2.1433582414447460E-004  alpha =   0.10968548694116534     
 delta_qm =   0.180247E-03 delta_en =   0.639482E+00 tol =   0.100000E-04
 Iteration #         66
  pAp =    2.5060001796881979E-003  rzold =    2.4346476341723542E-004  alpha =    9.7152731827628139E-002
 delta_qm =   0.148772E-03 delta_en =   0.435645E+00 tol =   0.100000E-04
 Iteration #         67
  pAp =    1.9781587552910717E-003  rzold =    2.1706330538579226E-004  alpha =   0.10972997228114433     
 delta_qm =   0.181921E-03 delta_en =   0.651411E+00 tol =   0.100000E-04
 Iteration #         68
  pAp =    2.5411796052244970E-003  rzold =    2.4695365670462011E-004  alpha =    9.7180717253081889E-002
 delta_qm =   0.150252E-03 delta_en =   0.444357E+00 tol =   0.100000E-04
 Iteration #         69
  pAp =    2.0083646523399623E-003  rzold =    2.2043522790025726E-004  alpha =   0.10975856781955724     
 delta_qm =   0.183655E-03 delta_en =   0.663889E+00 tol =   0.100000E-04
 Iteration #         70
  pAp =    2.5828047377048514E-003  rzold =    2.5104517920978073E-004  alpha =    9.7198667613125928E-002
 delta_qm =   0.151757E-03 delta_en =   0.453301E+00 tol =   0.100000E-04
 Iteration #         71
  pAp =    2.0428518337517205E-003  rzold =    2.2425790852186557E-004  alpha =   0.10977688387219615     
 delta_qm =   0.185435E-03 delta_en =   0.676821E+00 tol =   0.100000E-04
 Iteration #         72
  pAp =    2.6289960409095637E-003  rzold =    2.5556511021722388E-004  alpha =    9.7210154081785932E-002
 delta_qm =   0.153283E-03 delta_en =   0.462466E+00 tol =   0.100000E-04
 Iteration #         73
  pAp =    2.0804224255067351E-003  rzold =    2.2840666502277324E-004  alpha =   0.10978859976821270     
 delta_qm =   0.187252E-03 delta_en =   0.690150E+00 tol =   0.100000E-04
 Iteration #         74
  pAp =    2.6785455500628898E-003  rzold =    2.6040150555432687E-004  alpha =    9.7217501322018909E-002
 delta_qm =   0.154830E-03 delta_en =   0.471845E+00 tol =   0.100000E-04
 Iteration #         75
  pAp =    2.1203079741253642E-003  rzold =    2.3280154067058663E-004  alpha =   0.10979609731771076     
 delta_qm =   0.189100E-03 delta_en =   0.703839E+00 tol =   0.100000E-04
 Iteration #         76
  pAp =    2.7306802670112634E-003  rzold =    2.6548276269992995E-004  alpha =    9.7222207193997670E-002
 delta_qm =   0.156395E-03 delta_en =   0.481436E+00 tol =   0.100000E-04
 Iteration #         77
  pAp =    2.1620180611536992E-003  rzold =    2.3739154163643451E-004  alpha =   0.10980090587668694     
 delta_qm =   0.190975E-03 delta_en =   0.717867E+00 tol =   0.100000E-04
 Iteration #         78
  pAp =    2.7849087424409061E-003  rzold =    2.7076339487313786E-004  alpha =    9.7225230667996751E-002
 delta_qm =   0.157979E-03 delta_en =   0.491237E+00 tol =   0.100000E-04
 Iteration #         79
  pAp =    2.2052422148672785E-003  rzold =    2.4214442159725224E-004  alpha =   0.10980400246501974     
 delta_qm =   0.192875E-03 delta_en =   0.732224E+00 tol =   0.100000E-04
 Iteration #         80
  pAp =    2.8409217404133315E-003  rzold =    2.7621481871654822E-004  alpha =    9.7227183271990147E-002
 delta_qm =   0.159581E-03 delta_en =   0.501252E+00 tol =   0.100000E-04
 Iteration #         81
  pAp =    2.2497864301827858E-003  rzold =    2.4704006967609174E-004  alpha =   0.10980600930018977     
 delta_qm =   0.194799E-03 delta_en =   0.746905E+00 tol =   0.100000E-04
 Iteration #         82
  pAp =    2.8985279804964949E-003  rzold =    2.8181939452934002E-004  alpha =    9.7228454037923961E-002
 delta_qm =   0.161201E-03 delta_en =   0.511481E+00 tol =   0.100000E-04
 Iteration #         83
  pAp =    2.2955321176912412E-003  rzold =    2.5206623420927503E-004  alpha =   0.10980732191314041     
 delta_qm =   0.196746E-03 delta_en =   0.761910E+00 tol =   0.100000E-04
 Iteration #         84
  pAp =    2.9576125963138534E-003  rzold =    2.8756657318285275E-004  alpha =    9.7229290117730141E-002
 delta_qm =   0.162839E-03 delta_en =   0.521928E+00 tol =   0.100000E-04
 Iteration #         85
  pAp =    2.3424095705656986E-003  rzold =    2.5721575867280620E-004  alpha =   0.10980819149005093     
 delta_qm =   0.198716E-03 delta_en =   0.777240E+00 tol =   0.100000E-04
 Iteration #         86
  pAp =    3.0181102909062466E-003  rzold =    2.9345040612551555E-004  alpha =    9.7229848428567967E-002
 delta_qm =   0.164495E-03 delta_en =   0.532597E+00 tol =   0.100000E-04
 Iteration #         87
  pAp =    2.3903808210527832E-003  rzold =    2.6248479570972983E-004  alpha =   0.10980877749601631     
 delta_qm =   0.200707E-03 delta_en =   0.792898E+00 tol =   0.100000E-04
 Iteration #         88
  pAp =    3.0799879945559226E-003  rzold =    2.9946793677022485E-004  alpha =    9.7230228591654824E-002
 delta_qm =   0.166169E-03 delta_en =   0.543491E+00 tol =   0.100000E-04
 Iteration #         89
  pAp =    2.4394285667221197E-003  rzold =    2.6787165347621030E-004  alpha =   0.10980918118711369     
 delta_qm =   0.202721E-03 delta_en =   0.808891E+00 tol =   0.100000E-04
 Iteration #         90
  pAp =    3.1432336641555761E-003  rzold =    3.0561816155216277E-004  alpha =    9.7230493881932417E-002
 delta_qm =   0.167861E-03 delta_en =   0.554615E+00 tol =   0.100000E-04
 Iteration #         91
  pAp =    2.4895490191816985E-003  rzold =    2.7337605062886794E-004  alpha =   0.10980946690446175     
 delta_qm =   0.204758E-03 delta_en =   0.825223E+00 tol =   0.100000E-04
 Iteration #         92
  pAp =    3.2078490509945476E-003  rzold =    3.1190135909424106E-004  alpha =    9.7230684529105424E-002
 delta_qm =   0.169571E-03 delta_en =   0.565973E+00 tol =   0.100000E-04
 Iteration #         93
  pAp =    2.5407472871353289E-003  rzold =    2.7899863534633861E-004  alpha =   0.10980967558599944     
 delta_qm =   0.206816E-03 delta_en =   0.841902E+00 tol =   0.100000E-04
 Iteration #         94
  pAp =    3.2738450324012055E-003  rzold =    3.1831865719875901E-004  alpha =    9.7230826153456573E-002
 delta_qm =   0.171300E-03 delta_en =   0.577569E+00 tol =   0.100000E-04
 Iteration #         95
  pAp =    2.5930343967346258E-003  rzold =    2.8474067493165702E-004  alpha =   0.10980983333280392     
 delta_qm =   0.208898E-03 delta_en =   0.858932E+00 tol =   0.100000E-04
 Iteration #         96
  pAp =    3.3412385996900587E-003  rzold =    3.2487175348214789E-004  alpha =    9.7230935112590816E-002
 delta_qm =   0.173047E-03 delta_en =   0.589409E+00 tol =   0.100000E-04
 Iteration #         97
  pAp =    2.6464253696474390E-003  rzold =    2.9060385561440198E-004  alpha =   0.10980995683740619     
 delta_qm =   0.211002E-03 delta_en =   0.876323E+00 tol =   0.100000E-04
 Iteration #         98
  pAp =    3.4100509161185412E-003  rzold =    3.3156273526726876E-004  alpha =    9.7231021888865801E-002
 delta_qm =   0.174812E-03 delta_en =   0.601497E+00 tol =   0.100000E-04
 Iteration #         99
  pAp =    2.7009379844228449E-003  rzold =    2.9659015354425940E-004  alpha =   0.10981005682277330     
 delta_qm =   0.213129E-03 delta_en =   0.894080E+00 tol =   0.100000E-04
 Iteration #        100
  pAp =    3.4803060660946188E-003  rzold =    3.3839396360003731E-004  alpha =    9.7231093235360708E-002
 delta_qm =   0.176596E-03 delta_en =   0.613839E+00 tol =   0.100000E-04
 Iteration #        101
  pAp =    2.7565919793229475E-003  rzold =    3.0270175178055561E-004  alpha =   0.10981014022064406     
 delta_qm =   0.215279E-03 delta_en =   0.912211E+00 tol =   0.100000E-04
 Iteration #        102
  pAp =    3.5520302509999976E-003  rzold =    3.4536799869690931E-004  alpha =    9.7231153535271383E-002
 delta_qm =   0.178399E-03 delta_en =   0.626438E+00 tol =   0.100000E-04
 Iteration #        103
  pAp =    2.8134085403887766E-003  rzold =    3.0894098700135766E-004  alpha =   0.10981021155166680     
 delta_qm =   0.217453E-03 delta_en =   0.930724E+00 tol =   0.100000E-04
 Iteration #        104
  pAp =    3.6252512736257977E-003  rzold =    3.5248755216646952E-004  alpha =    9.7231205663139822E-002
 delta_qm =   0.180222E-03 delta_en =   0.639301E+00 tol =   0.100000E-04
 Iteration #        105
  pAp =    2.8714099738479867E-003  rzold =    3.1531031541982661E-004  alpha =   0.10981027379983574     
 delta_qm =   0.219650E-03 delta_en =   0.949626E+00 tol =   0.100000E-04
 Iteration #        106
  pAp =    3.6999982091375679E-003  rzold =    3.5975545653592426E-004  alpha =    9.7231251530735099E-002
 delta_qm =   0.182063E-03 delta_en =   0.652432E+00 tol =   0.100000E-04
 Iteration #        107
  pAp =    2.9306194976916615E-003  rzold =    3.2181229111844526E-004  alpha =   0.10981032896693844     
 delta_qm =   0.221871E-03 delta_en =   0.968926E+00 tol =   0.100000E-04
 Iteration #        108
  pAp =    3.7763011966745106E-003  rzold =    3.6717464596953687E-004  alpha =    9.7231292433156161E-002
 delta_qm =   0.183924E-03 delta_en =   0.665838E+00 tol =   0.100000E-04
 Iteration #        109
  pAp =    2.9910611103332960E-003  rzold =    3.2844955241536722E-004  alpha =   0.10981037842411981     
 delta_qm =   0.224115E-03 delta_en =   0.988631E+00 tol =   0.100000E-04
 Iteration #        110
  pAp =    3.8541913089809817E-003  rzold =    3.7474814422739971E-004  alpha =    9.7231329268520461E-002
 delta_qm =   0.185805E-03 delta_en =   0.679523E+00 tol =   0.100000E-04
 Iteration #        111
  pAp =    3.0527595091546962E-003  rzold =    3.3522481343034301E-004  alpha =   0.10981042313521977     
 delta_qm =   0.226384E-03 delta_en =   0.100875E+01 tol =   0.100000E-04
 Iteration #        112
  pAp =    3.9337004725917358E-003  rzold =    3.8247905731526323E-004  alpha =    9.7231362677510938E-002
 delta_qm =   0.187705E-03 delta_en =   0.693494E+00 tol =   0.100000E-04
 Iteration #        113
  pAp =    3.1157400413859564E-003  rzold =    3.4214085902082317E-004  alpha =   0.10981046379871623     
 delta_qm =   0.228678E-03 delta_en =   0.102929E+01 tol =   0.100000E-04
 Iteration #        114
  pAp =    4.0148614207960480E-003  rzold =    3.9037056917663363E-004  alpha =    9.7231393132177588E-002
 delta_qm =   0.189625E-03 delta_en =   0.707756E+00 tol =   0.100000E-04
 Iteration #        115
  pAp =    3.1800286759692802E-003  rzold =    3.4920054190600166E-004  alpha =   0.10981050093819186     
 delta_qm =   0.230996E-03 delta_en =   0.105026E+01 tol =   0.100000E-04
 Iteration #        116
  pAp =    4.0977076679067082E-003  rzold =    3.9842593936310357E-004  alpha =    9.7231420992663770E-002
 delta_qm =   0.191566E-03 delta_en =   0.722315E+00 tol =   0.100000E-04
 Iteration #        117
  pAp =    3.2456519890935900E-003  rzold =    3.5640678121676985E-004  alpha =   0.10981053496012776     
 delta_qm =   0.233338E-03 delta_en =   0.107168E+01 tol =   0.100000E-04
 Iteration #        118
  pAp =    4.1822734974389991E-003  rzold =    4.0664850199620558E-004  alpha =    9.7231446543420794E-002
 delta_qm =   0.193526E-03 delta_en =   0.737177E+00 tol =   0.100000E-04
 Iteration #        119
  pAp =    3.3126371586512963E-003  rzold =    3.6376256197693163E-004  alpha =   0.10981056619102635     
 delta_qm =   0.235706E-03 delta_en =   0.109354E+01 tol =   0.100000E-04
 Iteration #        120
  pAp =    4.2685939593942162E-003  rzold =    4.1504166557580524E-004  alpha =    9.7231470016582819E-002
 delta_qm =   0.195508E-03 delta_en =   0.752348E+00 tol =   0.100000E-04
 Iteration #        121
  pAp =    3.3810119645774554E-003  rzold =    3.7127093519877534E-004  alpha =   0.10981059490133310     
 delta_qm =   0.238099E-03 delta_en =   0.111586E+01 tol =   0.100000E-04
 Iteration #        122
  pAp =    4.3567048735699441E-003  rzold =    4.2360891334905759E-004  alpha =    9.7231491607083914E-002
 delta_qm =   0.197510E-03 delta_en =   0.767835E+00 tol =   0.100000E-04
 Iteration #        123
  pAp =    3.4508047930873757E-003  rzold =    3.7893501838651253E-004  alpha =   0.10981062132102984     
 delta_qm =   0.240518E-03 delta_en =   0.113864E+01 tol =   0.100000E-04
 Iteration #        124
  pAp =    4.4466428368935126E-003  rzold =    4.3235380405432769E-004  alpha =    9.7231511482576402E-002
 delta_qm =   0.199533E-03 delta_en =   0.783644E+00 tol =   0.100000E-04
 Iteration #        125
  pAp =    3.5220446435465223E-003  rzold =    3.8675799631540837E-004  alpha =   0.10981064564984119     
 delta_qm =   0.242963E-03 delta_en =   0.116190E+01 tol =   0.100000E-04
 Iteration #        126
  pAp =    4.5384452334954681E-003  rzold =    4.4127997292074125E-004  alpha =    9.7231529789965437E-002
 delta_qm =   0.201577E-03 delta_en =   0.799781E+00 tol =   0.100000E-04
 Iteration #        127
  pAp =    3.5947611371351211E-003  rzold =    3.9474312199997048E-004  alpha =   0.10981066806418319     
 delta_qm =   0.245433E-03 delta_en =   0.118565E+01 tol =   0.100000E-04
 Iteration #        128
  pAp =    4.6321502466921821E-003  rzold =    4.5039113284668159E-004  alpha =    9.7231546659848914E-002
 delta_qm =   0.203642E-03 delta_en =   0.816254E+00 tol =   0.100000E-04
 Iteration #        129
  pAp =    3.6689845268016393E-003  rzold =    4.0289371779746386E-004  alpha =   0.10981068872173141     
 delta_qm =   0.247930E-03 delta_en =   0.120990E+01 tol =   0.100000E-04
 Iteration #        130
  pAp =    4.7277968723326074E-003  rzold =    4.5969107570628708E-004  alpha =    9.7231562209542224E-002
 delta_qm =   0.205729E-03 delta_en =   0.833069E+00 tol =   0.100000E-04
 Iteration #        131
  pAp =    3.7447457081328617E-003  rzold =    4.1121317660927084E-004  alpha =   0.10981070776480110     
 delta_qm =   0.250453E-03 delta_en =   0.123465E+01 tol =   0.100000E-04
 Iteration #        132
  pAp =    4.8254249331778519E-003  rzold =    4.6918367375381676E-004  alpha =    9.7231576545286594E-002
 delta_qm =   0.207837E-03 delta_en =   0.850233E+00 tol =   0.100000E-04
 Iteration #        133
  pAp =    3.8220762309562153E-003  rzold =    4.1970496315939042E-004  alpha =   0.10981072532255269     
 delta_qm =   0.253003E-03 delta_en =   0.125992E+01 tol =   0.100000E-04
 Iteration #        134
  pAp =    4.9250750940759156E-003  rzold =    4.7887288110301529E-004  alpha =    9.7231589763783183E-002
 delta_qm =   0.209968E-03 delta_en =   0.867753E+00 tol =   0.100000E-04
 Iteration #        135
  pAp =    3.9010083114918949E-003  rzold =    4.2837261533294833E-004  alpha =   0.10981074151290958     
 delta_qm =   0.255580E-03 delta_en =   0.128572E+01 tol =   0.100000E-04
 Iteration #        136
  pAp =    5.0267888778127764E-003  rzold =    4.8876273527122304E-004  alpha =    9.7231601953390631E-002
 delta_qm =   0.212120E-03 delta_en =   0.885637E+00 tol =   0.100000E-04
 Iteration #        137
  pAp =    3.9815748450074693E-003  rzold =    4.3721974556758632E-004  alpha =   0.10981075644372726     
 delta_qm =   0.258184E-03 delta_en =   0.131205E+01 tol =   0.100000E-04
 Iteration #        138
  pAp =    5.1306086815111115E-003  rzold =    4.9885735877631889E-004  alpha =    9.7231613195140634E-002
 delta_qm =   0.214295E-03 delta_en =   0.903892E+00 tol =   0.100000E-04
 Iteration #        139
  pAp =    4.0638094188882121E-003  rzold =    4.4625004229088112E-004  alpha =   0.10981077021396525     
 delta_qm =   0.260816E-03 delta_en =   0.133893E+01 tol =   0.100000E-04
 Iteration #        140
  pAp =    5.2365777935750816E-003  rzold =    5.0916096078533544E-004  alpha =    9.7231623563396818E-002
 delta_qm =   0.216493E-03 delta_en =   0.922526E+00 tol =   0.100000E-04
 Iteration #        141
  pAp =    4.1477463260949643E-003  rzold =    4.5546727139951005E-004  alpha =   0.10981078291456775     
 delta_qm =   0.263475E-03 delta_en =   0.136638E+01 tol =   0.100000E-04
 Iteration #        142
  pAp =    5.3447404110966139E-003  rzold =    5.1967783880819550E-004  alpha =    9.7231633126513242E-002
 delta_qm =   0.218713E-03 delta_en =   0.941546E+00 tol =   0.100000E-04
 Iteration #        143
  pAp =    4.2334205789958277E-003  rzold =    4.6487527777916426E-004  alpha =   0.10981079462920577     
 delta_qm =   0.266163E-03 delta_en =   0.139439E+01 tol =   0.100000E-04
 Iteration #        144
  pAp =    5.4551416577283936E-003  rzold =    5.3041238043663008E-004  alpha =    9.7231641947406758E-002
 delta_qm =   0.220957E-03 delta_en =   0.960960E+00 tol =   0.100000E-04
 Iteration #        145
  pAp =    4.3208679235576695E-003  rzold =    4.7447798686351344E-004  alpha =   0.10981080543485876     
 delta_qm =   0.268878E-03 delta_en =   0.142299E+01 tol =   0.100000E-04
 Iteration #        146
  pAp =    5.5678276020024202E-003  rzold =    5.4136906512602880E-004  alpha =    9.7231650084016644E-002
 delta_qm =   0.223223E-03 delta_en =   0.980777E+00 tol =   0.100000E-04
 Iteration #        147
  pAp =    4.4101248538797816E-003  rzold =    4.8427940623127746E-004  alpha =   0.10981081540247901     
 delta_qm =   0.271623E-03 delta_en =   0.145219E+01 tol =   0.100000E-04
 Iteration #        148
  pAp =    5.6828452761068099E-003  rzold =    5.5255246602179937E-004  alpha =    9.7231657589724269E-002
 delta_qm =   0.225513E-03 delta_en =   0.100100E+01 tol =   0.100000E-04
 Iteration #        149
  pAp =    4.5012286270904060E-003  rzold =    4.9428362724202892E-004  alpha =   0.10981082459735751     
 delta_qm =   0.274396E-03 delta_en =   0.148199E+01 tol =   0.100000E-04
 Iteration #        150
  pAp =    5.8002426950865783E-003  rzold =    5.6396725182681869E-004  alpha =    9.7231664513720922E-002
 delta_qm =   0.227827E-03 delta_en =   0.102165E+01 tol =   0.100000E-04
 Iteration #        151
  pAp =    4.5942172785691125E-003  rzold =    5.0449482670905351E-004  alpha =   0.10981083307974943     
 delta_qm =   0.277198E-03 delta_en =   0.151241E+01 tol =   0.100000E-04
 Iteration #        152
  pAp =    5.9200688765152680E-003  rzold =    5.7561818871448107E-004  alpha =    9.7231670901320219E-002
 delta_qm =   0.230165E-03 delta_en =   0.104273E+01 tol =   0.100000E-04
 Iteration #        153
  pAp =    4.6891296375422839E-003  rzold =    5.1491726861196475E-004  alpha =   0.10981084090518953     
 delta_qm =   0.280029E-03 delta_en =   0.154347E+01 tol =   0.100000E-04
 Iteration #        154
  pAp =    6.0423738605959584E-003  rzold =    5.8751014228376926E-004  alpha =    9.7231676794296076E-002
 delta_qm =   0.232527E-03 delta_en =   0.106424E+01 tol =   0.100000E-04
 Iteration #        155
  pAp =    4.7860053430236636E-003  rzold =    5.2555530584763241E-004  alpha =   0.10981084812487930     
 delta_qm =   0.282891E-03 delta_en =   0.157517E+01 tol =   0.100000E-04
 Iteration #        156
  pAp =    6.1672087307238013E-003  rzold =    5.9964807955915857E-004  alpha =    9.7231682231190206E-002
 delta_qm =   0.234914E-03 delta_en =   0.108619E+01 tol =   0.100000E-04
 Iteration #        157
  pAp =    4.8848848601218521E-003  rzold =    5.3641338202103461E-004  alpha =   0.10981085478597216     
 delta_qm =   0.285782E-03 delta_en =   0.160754E+01 tol =   0.100000E-04
 Iteration #        158
  pAp =    6.2946256345084890E-003  rzold =    6.1203707103485319E-004  alpha =    9.7231687247536155E-002
 delta_qm =   0.237325E-03 delta_en =   0.110861E+01 tol =   0.100000E-04
 Iteration #        159
  pAp =    4.9858094966957010E-003  rzold =    5.4749603327496196E-004  alpha =   0.10981086093197301     
 delta_qm =   0.288703E-03 delta_en =   0.164057E+01 tol =   0.100000E-04
 Iteration #        160
  pAp =    6.4246778052688830E-003  rzold =    6.2468229276522276E-004  alpha =    9.7231691876115620E-002
 delta_qm =   0.239761E-03 delta_en =   0.113148E+01 tol =   0.100000E-04
 Iteration #        161
  pAp =    5.0888214203978436E-003  rzold =    5.5880789016153826E-004  alpha =   0.10981086660294924     
 delta_qm =   0.291655E-03 delta_en =   0.167429E+01 tol =   0.100000E-04
 Iteration #        162
  pAp =    6.5574195839961935E-003  rzold =    6.3758902850055579E-004  alpha =    9.7231696147160235E-002
 delta_qm =   0.242222E-03 delta_en =   0.115483E+01 tol =   0.100000E-04
 Iteration #        163
  pAp =    5.1939636760738725E-003  rzold =    5.7035367955375052E-004  alpha =   0.10981087183591588     
 delta_qm =   0.294638E-03 delta_en =   0.170871E+01 tol =   0.100000E-04
 Iteration #        164
  pAp =    6.6929064418159304E-003  rzold =    6.5076267187093556E-004  alpha =    9.7231700088484960E-002
 delta_qm =   0.244709E-03 delta_en =   0.117866E+01 tol =   0.100000E-04
 Iteration #        165
  pAp =    5.3012802035550984E-003  rzold =    5.8213822659932562E-004  alpha =   0.10981087666502463     
 delta_qm =   0.297652E-03 delta_en =   0.174385E+01 tol =   0.100000E-04
 Iteration #        166
  pAp =    6.8311950029141108E-003  rzold =    6.6420872861633492E-004  alpha =    9.7231703725774332E-002
 delta_qm =   0.247221E-03 delta_en =   0.120299E+01 tol =   0.100000E-04
 Iteration #        167
  pAp =    5.4108158558470853E-003  rzold =    5.9416645671789487E-004  alpha =   0.10981088112171131     
 delta_qm =   0.300697E-03 delta_en =   0.177972E+01 tol =   0.100000E-04
 Iteration #        168
  pAp =    6.9723430679725570E-003  rzold =    6.7793281886536388E-004  alpha =    9.7231707082723287E-002
 delta_qm =   0.249759E-03 delta_en =   0.122782E+01 tol =   0.100000E-04
 Iteration #        169
  pAp =    5.5226164176941910E-003  rzold =    6.0644339764041291E-004  alpha =   0.10981088523501255     
 delta_qm =   0.303775E-03 delta_en =   0.181633E+01 tol =   0.100000E-04
 Iteration #        170
  pAp =    7.1164096381274005E-003  rzold =    6.9194067946499701E-004  alpha =    9.7231710181185274E-002
 delta_qm =   0.252324E-03 delta_en =   0.125316E+01 tol =   0.100000E-04
 Iteration #        171
  pAp =    5.6367286245629098E-003  rzold =    6.1897418149343801E-004  alpha =   0.10981088903165624     
 delta_qm =   0.306884E-03 delta_en =   0.185370E+01 tol =   0.100000E-04
 Iteration #        172
  pAp =    7.2634549394225848E-003  rzold =    7.0623816635862098E-004  alpha =    9.7231713041337334E-002
 delta_qm =   0.254915E-03 delta_en =   0.127903E+01 tol =   0.100000E-04
 Iteration #        173
  pAp =    5.7532001820232905E-003  rzold =    6.3176404692793164E-004  alpha =   0.10981089253629139     
 delta_qm =   0.310025E-03 delta_en =   0.189185E+01 tol =   0.100000E-04
 Iteration #        174
  pAp =    7.4135404478057583E-003  rzold =    7.2083125701599595E-004  alpha =    9.7231715681722064E-002
 delta_qm =   0.257532E-03 delta_en =   0.130543E+01 tol =   0.100000E-04
 Iteration #        175
  pAp =    5.8720797855350403E-003  rzold =    6.4481834129279255E-004  alpha =   0.10981089577175071     
 delta_qm =   0.313200E-03 delta_en =   0.193079E+01 tol =   0.100000E-04
 Iteration #        176
  pAp =    7.5667289146581582E-003  rzold =    7.3572605291605947E-004  alpha =    9.7231718119413738E-002
 delta_qm =   0.260177E-03 delta_en =   0.133238E+01 tol =   0.100000E-04
 Iteration #        177
  pAp =    5.9934171406870211E-003  rzold =    6.5814252285686882E-004  alpha =   0.10981089875907192     
 delta_qm =   0.316407E-03 delta_en =   0.197053E+01 tol =   0.100000E-04
 Iteration #        178
  pAp =    7.7230843928518447E-003  rzold =    7.5092878208094763E-004  alpha =    9.7231720370163907E-002
 delta_qm =   0.262849E-03 delta_en =   0.135989E+01 tol =   0.100000E-04
 Iteration #        179
  pAp =    6.1172629838456621E-003  rzold =    6.7174216307677075E-004  alpha =   0.10981090151767109     
 delta_qm =   0.319648E-03 delta_en =   0.201110E+01 tol =   0.100000E-04
 Iteration #        180
  pAp =    7.8826722633800732E-003  rzold =    7.6644580166587706E-004  alpha =    9.7231722448552840E-002
 delta_qm =   0.265549E-03 delta_en =   0.138797E+01 tol =   0.100000E-04
 Iteration #        181
  pAp =    6.2436691032701774E-003  rzold =    6.8562294891518318E-004  alpha =   0.10981090406538073     
 delta_qm =   0.322922E-03 delta_en =   0.205252E+01 tol =   0.100000E-04
 Iteration #        182
  pAp =    8.0455592625503485E-003  rzold =    7.8228360060306570E-004  alpha =    9.7231724368044850E-002
 delta_qm =   0.268276E-03 delta_en =   0.141663E+01 tol =   0.100000E-04
 Iteration #        183
  pAp =    6.3726883606471359E-003  rzold =    6.9979068520584361E-004  alpha =   0.10981090641858737     
 delta_qm =   0.326230E-03 delta_en =   0.209479E+01 tol =   0.100000E-04
 Iteration #        184
  pAp =    8.2118135097430205E-003  rzold =    7.9844880230087276E-004  alpha =    9.7231726141070063E-002
 delta_qm =   0.271032E-03 delta_en =   0.144588E+01 tol =   0.100000E-04
 Iteration #        185
  pAp =    6.5043747130821518E-003  rzold =    7.1425129706924827E-004  alpha =   0.10981090859244091     
 delta_qm =   0.329573E-03 delta_en =   0.213794E+01 tol =   0.100000E-04
 Iteration #        186
  pAp =    8.3815045357848381E-003  rzold =    8.1494816740254421E-004  alpha =    9.7231727779078639E-002
 delta_qm =   0.273815E-03 delta_en =   0.147573E+01 tol =   0.100000E-04
 Iteration #        187
  pAp =    6.6387832355712714E-003  rzold =    7.2901083238007913E-004  alpha =   0.10981091060090130     
 delta_qm =   0.332951E-03 delta_en =   0.218198E+01 tol =   0.100000E-04
 Iteration #        188
  pAp =    8.5547033118977267E-003  rzold =    8.3178859660136637E-004  alpha =    9.7231729292648852E-002
 delta_qm =   0.276628E-03 delta_en =   0.150620E+01 tol =   0.100000E-04
 Iteration #        189
  pAp =    6.7759701439436782E-003  rzold =    7.4407546428723482E-004  alpha =   0.10981091245690996     
 delta_qm =   0.336363E-03 delta_en =   0.222694E+01 tol =   0.100000E-04
 Iteration #        190
  pAp =    8.7314822792937292E-003  rzold =    8.4897713351753373E-004  alpha =    9.7231730691458920E-002
 delta_qm =   0.279470E-03 delta_en =   0.153731E+01 tol =   0.100000E-04
 Iteration #        191
  pAp =    6.9159928182804921E-003  rzold =    7.5945149378509925E-004  alpha =   0.10981091417239498     
 delta_qm =   0.339811E-03 delta_en =   0.227282E+01 tol =   0.100000E-04
 Iteration #        192
  pAp =    8.9119153793358625E-003  rzold =    8.6652096763167191E-004  alpha =    9.7231731984448802E-002
 delta_qm =   0.282341E-03 delta_en =   0.156905E+01 tol =   0.100000E-04
 Iteration #        193
  pAp =    7.0589098268331518E-003  rzold =    7.7514535234049454E-004  alpha =   0.10981091575839680     
 delta_qm =   0.343294E-03 delta_en =   0.231966E+01 tol =   0.100000E-04
 Iteration #        194
  pAp =    9.0960780843804129E-003  rzold =    8.8442743728368725E-004  alpha =    9.7231733179864277E-002
 delta_qm =   0.285241E-03 delta_en =   0.160146E+01 tol =   0.100000E-04
 Iteration #        195
  pAp =    7.2047809504566023E-003  rzold =    7.9116360457500779E-004  alpha =   0.10981091722502234     
 delta_qm =   0.346814E-03 delta_en =   0.236747E+01 tol =   0.100000E-04
 Iteration #        196
  pAp =    9.2840474292302851E-003  rzold =    9.0270403273153390E-004  alpha =    9.7231734285353019E-002
 delta_qm =   0.288171E-03 delta_en =   0.163453E+01 tol =   0.100000E-04
 Iteration #        197
  pAp =    7.3536672075369559E-003  rzold =    8.0751295100303796E-004  alpha =   0.10981091858160211     
 delta_qm =   0.350370E-03 delta_en =   0.241627E+01 tol =   0.100000E-04
 Iteration #        198
  pAp =    9.4759020432859734E-003  rzold =    9.2135839927726506E-004  alpha =    9.7231735307994394E-002
 delta_qm =   0.291132E-03 delta_en =   0.166829E+01 tol =   0.100000E-04
 Iteration #        199
  pAp =    7.5056308794580785E-003  rzold =    8.2420023082791047E-004  alpha =   0.10981091983668392     
 delta_qm =   0.353963E-03 delta_en =   0.246608E+01 tol =   0.100000E-04
 Iteration #        200
  pAp =    9.6717221833507901E-003  rzold =    9.4039834045627456E-004  alpha =    9.7231736254284287E-002
 delta_qm =   0.294123E-03 delta_en =   0.170274E+01 tol =   0.100000E-04

%%%% DENSITY %%%%%%%%%%%%%%%%%%%%%%%%%%%%%%%%%%%%%%%%%%%%%%%%%%%%%%%%%%%%%%%%%%%
 density label              = velectrostatic                                                                  
 integral of density        =     0.2795112304E-10

%%%% CHARGES %%%%%%%%%%%%%%%%%%%%%%%%%%%%%%%%%%%%%%%%%%%%%%%%%%%%%%%%%%%%%%%%%%%
 total number of charges    =         34
 total charge               =     -1.0000000

%%%% DENSITY %%%%%%%%%%%%%%%%%%%%%%%%%%%%%%%%%%%%%%%%%%%%%%%%%%%%%%%%%%%%%%%%%%%
 density label              = vsoftcavity                                                                     
 integral of density        =      101.7650774    

%%%% DENSITY %%%%%%%%%%%%%%%%%%%%%%%%%%%%%%%%%%%%%%%%%%%%%%%%%%%%%%%%%%%%%%%%%%%
 density label              = dvtot                                                                           
 integral of density        =     -132.4116799    

%%%% ELECTRONS %%%%%%%%%%%%%%%%%%%%%%%%%%%%%%%%%%%%%%%%%%%%%%%%%%%%%%%%%%%%%%%%%
 number of electrons        =         24
 total electronic charge    =     24.0000000

%%%% ELECTRONS %%%%%%%%%%%%%%%%%%%%%%%%%%%%%%%%%%%%%%%%%%%%%%%%%%%%%%%%%%%%%%%%%
 number of electrons        =         24
 total electronic charge    =     24.0000000

%%%% BOUNDARY %%%%%%%%%%%%%%%%%%%%%%%%%%%%%%%%%%%%%%%%%%%%%%%%%%%%%%%%%%%%%%%%%%
 boundary label             = solvent              
 boundary mode              = electronic           
 boundary is built as a function of a smooth density
 function type              =  2 
 using the modified SCCS function with parameters 
 rhomax                     =      0.0050000 
 rhomin                     =      0.0001000 
 volume of the QM region    =    863.9055345 
 surface of the QM region   =    516.6636142 

%%%% DIELECTRIC %%%%%%%%%%%%%%%%%%%%%%%%%%%%%%%%%%%%%%%%%%%%%%%%%%%%%%%%%%%%%%%%%
 dielectric build on homogeneous background
 environment bulk permitt.  =    100.0000000 
 dielectric flags
 need gradient              =  F 
 need factor depend. sqrt   =  T 
 total dielectric charge    =      0.9778846

%%%% DENSITY %%%%%%%%%%%%%%%%%%%%%%%%%%%%%%%%%%%%%%%%%%%%%%%%%%%%%%%%%%%%%%%%%%%
 density label              = vreference                                                                      
 integral of density        =    -0.2168059970E-12

%%%% COMPUTE ELECTROSTATIC POTENTIAL %%%%%%%%%%%%%%%%%%%%%%%%%%%%%%%%%%%%%%%%%%%
 Warning: bad guess with residual norm =   0.837498E+04, reset to no guess
 Iteration #          1
  pAp =    102.50595377339924       rzold =    92.974890538409099       alpha =   0.90701941805195418     
 delta_qm =   0.188054E-01 delta_en =   0.696074E+04 tol =   0.100000E-04
 Iteration #          2
  pAp =    1791.8810033536026       rzold =    113.31601561712341       alpha =    6.3238583033720611E-002
 delta_qm =   0.326678E-02 delta_en =   0.210054E+03 tol =   0.100000E-04
 Iteration #          3
  pAp =    7.0251074421108761       rzold =    1.5048342054967279       alpha =   0.21420799865298021     
 delta_qm =   0.251389E-02 delta_en =   0.124390E+03 tol =   0.100000E-04
 Iteration #          4
  pAp =    8.4068458969376092       rzold =    1.1097536772121310       alpha =   0.13200594977200483     
 delta_qm =   0.188704E-02 delta_en =   0.700897E+02 tol =   0.100000E-04
 Iteration #          5
  pAp =    6.1642555885617094       rzold =   0.69520171437410139       alpha =   0.11277950830982839     
 delta_qm =   0.138208E-02 delta_en =   0.375976E+02 tol =   0.100000E-04
 Iteration #          6
  pAp =    4.1029379155179804       rzold =   0.49607802180107236       alpha =   0.12090800105086269     
 delta_qm =   0.129679E-02 delta_en =   0.331002E+02 tol =   0.100000E-04
 Iteration #          7
  pAp =    3.6763307228965898       rzold =   0.41457740215937083       alpha =   0.11276934351344874     
 delta_qm =   0.113770E-02 delta_en =   0.254771E+02 tol =   0.100000E-04
 Iteration #          8
  pAp =    2.4932458165570335       rzold =   0.30153640544571197       alpha =   0.12094130608513719     
 delta_qm =   0.968543E-03 delta_en =   0.184641E+02 tol =   0.100000E-04
 Iteration #          9
  pAp =    2.2370217295943622       rzold =   0.25231988502930042       alpha =   0.11279277339655232     
 delta_qm =   0.938728E-03 delta_en =   0.173449E+02 tol =   0.100000E-04
 Iteration #         10
  pAp =    1.5184956442822315       rzold =   0.18368909770200154       alpha =   0.12096781337086313     
 delta_qm =   0.737821E-03 delta_en =   0.107150E+02 tol =   0.100000E-04
 Iteration #         11
  pAp =    1.3636918439676298       rzold =   0.15384993014192611       alpha =   0.11281869201058159     
 delta_qm =   0.779941E-03 delta_en =   0.119733E+02 tol =   0.100000E-04
 Iteration #         12
  pAp =   0.92654598960990009       rzold =   0.11211561470223914       alpha =   0.12100383139043398     
 delta_qm =   0.572247E-03 delta_en =   0.644554E+01 tol =   0.100000E-04
 Iteration #         13
  pAp =   0.83308837599307817       rzold =    9.4020611710804503E-002  alpha =   0.11285790850067710     
 delta_qm =   0.656582E-03 delta_en =   0.848534E+01 tol =   0.100000E-04
 Iteration #         14
  pAp =   0.56682222245788172       rzold =    6.8620202039453695E-002  alpha =   0.12106124163922063     
 delta_qm =   0.455292E-03 delta_en =   0.408010E+01 tol =   0.100000E-04
 Iteration #         15
  pAp =   0.51061619769013555       rzold =    5.7659754665436783E-002  alpha =   0.11292190675946255     
 delta_qm =   0.563125E-03 delta_en =   0.624167E+01 tol =   0.100000E-04
 Iteration #         16
  pAp =   0.34820366471365244       rzold =    4.2186899923035065E-002  alpha =   0.12115581827011423     
 delta_qm =   0.376398E-03 delta_en =   0.278860E+01 tol =   0.100000E-04
 Iteration #         17
  pAp =   0.31465513198354489       rzold =    3.5564688908170085E-002  alpha =   0.11302751899825986     
 delta_qm =   0.494142E-03 delta_en =   0.480611E+01 tol =   0.100000E-04
 Iteration #         18
  pAp =   0.21537431886124847       rzold =    2.6127376629755492E-002  alpha =   0.12131147653953879     
 delta_qm =   0.327305E-03 delta_en =   0.210861E+01 tol =   0.100000E-04
 Iteration #         19
  pAp =   0.19562396332078777       rzold =    2.2144679516791489E-002  alpha =   0.11320023958659009     
 delta_qm =   0.444678E-03 delta_en =   0.389208E+01 tol =   0.100000E-04
 Iteration #         20
  pAp =   0.13471958854641874       rzold =    1.6377012895503060E-002  alpha =   0.12156370927350499     
 delta_qm =   0.300371E-03 delta_en =   0.177585E+01 tol =   0.100000E-04
 Iteration #         21
  pAp =   0.12338612328877921       rzold =    1.4001425650993000E-002  alpha =   0.11347650187714664     
 delta_qm =   0.410408E-03 delta_en =   0.331530E+01 tol =   0.100000E-04
 Iteration #         22
  pAp =    8.5805303399973637E-002  rzold =    1.0464865066053703E-002  alpha =   0.12196058578422227     
 delta_qm =   0.288452E-03 delta_en =   0.163771E+01 tol =   0.100000E-04
 Iteration #         23
  pAp =    7.9620626918444654E-002  rzold =    9.0689391187041054E-003  alpha =   0.11390188032547661     
 delta_qm =   0.387704E-03 delta_en =   0.295863E+01 tol =   0.100000E-04
 Iteration #         24
  pAp =    5.6208794961963814E-002  rzold =    6.8887169508347100E-003  alpha =   0.12255585545814081     
 delta_qm =   0.285640E-03 delta_en =   0.160594E+01 tol =   0.100000E-04
 Iteration #         25
  pAp =    5.3189860383949024E-002  rzold =    6.0912441563893581E-003  alpha =   0.11451889725635561     
 delta_qm =   0.373640E-03 delta_en =   0.274788E+01 tol =   0.100000E-04
 Iteration #         26
  pAp =    3.8378503347389854E-002  rzold =    4.7353722475706904E-003  alpha =   0.12338605819793506     
 delta_qm =   0.287766E-03 delta_en =   0.162993E+01 tol =   0.100000E-04
 Iteration #         27
  pAp =    3.7323695820929023E-002  rzold =    4.3048741712179532E-003  alpha =   0.11533890405365545     
 delta_qm =   0.365944E-03 delta_en =   0.263584E+01 tol =   0.100000E-04
 Iteration #         28
  pAp =    2.7723901915237152E-002  rzold =    3.4497171582958904E-003  alpha =   0.12443115578907434     
 delta_qm =   0.292271E-03 delta_en =   0.168137E+01 tol =   0.100000E-04
 Iteration #         29
  pAp =    2.7905648383735403E-002  rzold =    3.2456433638400825E-003  alpha =   0.11630775673830182     
 delta_qm =   0.362885E-03 delta_en =   0.259196E+01 tol =   0.100000E-04
 Iteration #         30
  pAp =    2.1452252669353095E-002  rzold =    2.6940922900490845E-003  alpha =   0.12558551922604808     
 delta_qm =   0.297776E-03 delta_en =   0.174530E+01 tol =   0.100000E-04
 Iteration #         31
  pAp =    2.2428772697889943E-002  rzold =    2.6309305385292026E-003  alpha =   0.11730158283590415     
 delta_qm =   0.363150E-03 delta_en =   0.259575E+01 tol =   0.100000E-04
 Iteration #         32
  pAp =    1.7860314674033387E-002  rzold =    2.2626479814313238E-003  alpha =   0.12668578480987933     
 delta_qm =   0.303635E-03 delta_en =   0.181466E+01 tol =   0.100000E-04
 Iteration #         33
  pAp =    1.9361211106734881E-002  rzold =    2.2881128958284012E-003  alpha =   0.11818025655597915     
 delta_qm =   0.365746E-03 delta_en =   0.263299E+01 tol =   0.100000E-04
 Iteration #         34
  pAp =    1.5905522745568723E-002  rzold =    2.0294398212437770E-003  alpha =   0.12759340599535962     
 delta_qm =   0.309608E-03 delta_en =   0.188676E+01 tol =   0.100000E-04
 Iteration #         35
  pAp =    1.7764043054636400E-002  rzold =    2.1114118650862480E-003  alpha =   0.11885874508366333     
 delta_qm =   0.369938E-03 delta_en =   0.269370E+01 tol =   0.100000E-04
 Iteration #         36
  pAp =    1.4948768840036286E-002  rzold =    1.9172620677089809E-003  alpha =   0.12825551643919372     
 delta_qm =   0.315644E-03 delta_en =   0.196104E+01 tol =   0.100000E-04
 Iteration #         37
  pAp =    1.7062417398497842E-002  rzold =    2.0360440011506402E-003  alpha =   0.11932916383407027     
 delta_qm =   0.375210E-03 delta_en =   0.277103E+01 tol =   0.100000E-04
 Iteration #         38
  pAp =    1.4599800832246181E-002  rzold =    1.8789364798690073E-003  alpha =   0.12869603506638608     
 delta_qm =   0.321756E-03 delta_en =   0.203772E+01 tol =   0.100000E-04
 Iteration #         39
  pAp =    1.6906756956989302E-002  rzold =    2.0225784709320235E-003  alpha =   0.11963136845685143     
 delta_qm =   0.381219E-03 delta_en =   0.286050E+01 tol =   0.100000E-04
 Iteration #         40
  pAp =    1.4622393277445217E-002  rzold =    1.8858715472239588E-003  alpha =   0.12897146940596121     
 delta_qm =   0.327973E-03 delta_en =   0.211722E+01 tol =   0.100000E-04
 Iteration #         41
  pAp =    1.7086598226375323E-002  rzold =    2.0472512139513644E-003  alpha =   0.11981619669567542     
 delta_qm =   0.387748E-03 delta_en =   0.295931E+01 tol =   0.100000E-04
 Iteration #         42
  pAp =    1.4875034273414689E-002  rzold =    1.9209202181688244E-003  alpha =   0.12913719611402691     
 delta_qm =   0.334317E-03 delta_en =   0.219992E+01 tol =   0.100000E-04
 Iteration #         43
  pAp =    1.7476523089911253E-002  rzold =    2.0958894870736515E-003  alpha =   0.11992599879798485     
 delta_qm =   0.394664E-03 delta_en =   0.306582E+01 tol =   0.100000E-04
 Iteration #         44
  pAp =    1.5273777185316955E-002  rzold =    1.9739032813525419E-003  alpha =   0.12923478307972844     
 delta_qm =   0.340803E-03 delta_en =   0.228612E+01 tol =   0.100000E-04
 Iteration #         45
  pAp =    1.8002484781804485E-002  rzold =    2.1601225762730497E-003  alpha =   0.11999024592740298     
 delta_qm =   0.401888E-03 delta_en =   0.317907E+01 tol =   0.100000E-04
 Iteration #         46
  pAp =    1.5769271688103433E-002  rzold =    2.0388355147616731E-003  alpha =   0.12929167275999184     
 delta_qm =   0.347443E-03 delta_en =   0.237606E+01 tol =   0.100000E-04
 Iteration #         47
  pAp =    1.8621163564628118E-002  rzold =    2.2350541523965860E-003  alpha =   0.12002763117564733     
 delta_qm =   0.409372E-03 delta_en =   0.329859E+01 tol =   0.100000E-04
 Iteration #         48
  pAp =    1.6332788189476064E-002  rzold =    2.1122342766819709E-003  alpha =   0.12932478228322195     
 delta_qm =   0.354240E-03 delta_en =   0.246994E+01 tol =   0.100000E-04
 Iteration #         49
  pAp =    1.9307498504669448E-002  rzold =    2.3178541468299348E-003  alpha =   0.12004942775312763     
 delta_qm =   0.417091E-03 delta_en =   0.342415E+01 tol =   0.100000E-04
 Iteration #         50
  pAp =    1.6947825693281075E-002  rzold =    2.1921021859334453E-003  alpha =   0.12934415456033979     
 delta_qm =   0.361199E-03 delta_en =   0.256794E+01 tol =   0.100000E-04
 Iteration #         51
  pAp =    2.0047239756409627E-002  rzold =    2.4069166565371587E-003  alpha =   0.12006224726112753     
 delta_qm =   0.425028E-03 delta_en =   0.355571E+01 tol =   0.100000E-04
 Iteration #         52
  pAp =    1.7605118049280163E-002  rzold =    2.2773211165167035E-003  alpha =   0.12935562886553995     
 delta_qm =   0.368323E-03 delta_en =   0.267023E+01 tol =   0.100000E-04
 Iteration #         53
  pAp =    2.0832531742185200E-002  rzold =    2.5013601810963495E-003  alpha =   0.12006990854746552     
[...]
  pAp =    8.0494784609498288E-006  rzold =    7.3076064875558889E-007  alpha =    9.0783601981259288E-002
 delta_qm =   0.862144E-05 delta_en =   0.146302E-02 tol =   0.100000E-04
 Iteration #        120
  pAp =    5.9711906761084305E-006  rzold =    6.1359755503919694E-007  alpha =   0.10275966525307702     
 delta_qm =   0.711911E-05 delta_en =   0.997569E-03 tol =   0.100000E-04
 Iteration #        121
  pAp =    7.2713554877115275E-006  rzold =    6.6012572463276429E-007  alpha =    9.0784410932509899E-002
 delta_qm =   0.819317E-05 delta_en =   0.132128E-02 tol =   0.100000E-04
 Iteration #        122
  pAp =    5.3941671866128073E-006  rzold =    5.5430822495913205E-007  alpha =   0.10276066828903800     
 delta_qm =   0.676390E-05 delta_en =   0.900503E-03 tol =   0.100000E-04
 Iteration #        123
  pAp =    6.5689526113976382E-006  rzold =    5.9636348038788074E-007  alpha =    9.0785170127905046E-002
 delta_qm =   0.778644E-05 delta_en =   0.119335E-02 tol =   0.100000E-04
 Iteration #        124
  pAp =    4.8732646144763444E-006  rzold =    5.0078453399983541E-007  alpha =   0.10276161333661687     
 delta_qm =   0.642667E-05 delta_en =   0.812948E-03 tol =   0.100000E-04
 Iteration #        125
  pAp =    5.9348260555842593E-006  rzold =    5.3879845335939749E-007  alpha =    9.0785887962533549E-002
 delta_qm =   0.740016E-05 delta_en =   0.107789E-02 tol =   0.100000E-04
 Iteration #        126
  pAp =    4.4029715451406935E-006  rzold =    4.5246040628011100E-007  alpha =   0.10276250973719454     
 delta_qm =   0.610649E-05 delta_en =   0.733963E-03 tol =   0.100000E-04
 Iteration #        127
  pAp =    5.3622777558208785E-006  rzold =    4.8682280900905477E-007  alpha =    9.0786570777800002E-002
 delta_qm =   0.703328E-05 delta_en =   0.973660E-03 tol =   0.100000E-04
 Iteration #        128
  pAp =    3.9783273547656767E-006  rzold =    4.0882630432796801E-007  alpha =   0.10276336456783303     
 delta_qm =   0.580248E-05 delta_en =   0.662704E-03 tol =   0.100000E-04
 Iteration #        129
  pAp =    4.8452773951321095E-006  rzold =    4.3988928127613278E-007  alpha =    9.0787223393664740E-002
 delta_qm =   0.668480E-05 delta_en =   0.879566E-03 tol =   0.100000E-04
 Iteration #        130
  pAp =    3.5948649986125285E-006  rzold =    3.6942336539483966E-007  alpha =   0.10276418322730396     
 delta_qm =   0.551382E-05 delta_en =   0.598407E-03 tol =   0.100000E-04
 Iteration #        131
  pAp =    4.3783934920363648E-006  rzold =    3.9750492941582414E-007  alpha =    9.0787849502066323E-002
 delta_qm =   0.635379E-05 delta_en =   0.794616E-03 tol =   0.100000E-04
 Iteration #        132
  pAp =    3.2485603317919871E-006  rzold =    3.3383820461563818E-007  alpha =   0.10276496986943280     
 delta_qm =   0.523971E-05 delta_en =   0.540388E-03 tol =   0.100000E-04
 Iteration #        133
  pAp =    3.9567322248036722E-006  rzold =    3.5922559350027875E-007  alpha =    9.0788451957499613E-002
 delta_qm =   0.603935E-05 delta_en =   0.717914E-03 tol =   0.100000E-04
 Iteration #        134
  pAp =    2.9357870434708207E-006  rzold =    3.0169829196213345E-007  alpha =   0.10276572772303404     
 delta_qm =   0.497940E-05 delta_en =   0.488028E-03 tol =   0.100000E-04
 Iteration #        135
  pAp =    3.5758829410535992E-006  rzold =    3.2465095430987002E-007  alpha =    9.0789032991727289E-002
 delta_qm =   0.574065E-05 delta_en =   0.648654E-03 tol =   0.100000E-04
 Iteration #        136
  pAp =    2.6532764638146673E-006  rzold =    2.7266782780575065E-007  alpha =   0.10276645932845264     
 delta_qm =   0.473218E-05 delta_en =   0.440772E-03 tol =   0.100000E-04
 Iteration #        137
  pAp =    3.2318694968527820E-006  rzold =    2.9342012068430103E-007  alpha =    9.0789594372556098E-002
 delta_qm =   0.545687E-05 delta_en =   0.586109E-03 tol =   0.100000E-04
 Iteration #        138
  pAp =    2.3980816350692161E-006  rzold =    2.4644405518085304E-007  alpha =   0.10276716671229581     
 delta_qm =   0.449739E-05 delta_en =   0.398118E-03 tol =   0.100000E-04
 Iteration #        139
  pAp =    2.9211067154123579E-006  rzold =    2.6520768040583109E-007  alpha =    9.0790137521009076E-002
 delta_qm =   0.518727E-05 delta_en =   0.529625E-03 tol =   0.100000E-04
 Iteration #        140
  pAp =    2.1675451379877316E-006  rzold =    2.2275395689666633E-007  alpha =   0.10276785151679141     
 delta_qm =   0.427438E-05 delta_en =   0.359616E-03 tol =   0.100000E-04
 Iteration #        141
  pAp =    2.6403613671439722E-006  rzold =    2.3972016066197592E-007  alpha =    9.0790663598171256E-002
 delta_qm =   0.493112E-05 delta_en =   0.478610E-03 tol =   0.100000E-04
 Iteration #        142
  pAp =    1.9592702420775745E-006  rzold =    2.0135129344848663E-007  alpha =   0.10276851509518022     
 delta_qm =   0.406257E-05 delta_en =   0.324857E-03 tol =   0.100000E-04
 Iteration #        143
  pAp =    2.3867171601498790E-006  rzold =    2.1669285194806077E-007  alpha =    9.0791173569327782E-002
 delta_qm =   0.468774E-05 delta_en =   0.432532E-03 tol =   0.100000E-04
 Iteration #        144
  pAp =    1.7710950090080691E-006  rzold =    1.8201394384577252E-007  alpha =   0.10276915858269649     
 delta_qm =   0.386136E-05 delta_en =   0.293476E-03 tol =   0.100000E-04
 Iteration #        145
  pAp =    2.1575432999458564E-006  rzold =    1.9588695552693947E-007  alpha =    9.0791668251504046E-002
 delta_qm =   0.445649E-05 delta_en =   0.390910E-03 tol =   0.100000E-04
 Iteration #        146
  pAp =    1.6010690277477660E-006  rzold =    1.6454151646767710E-007  alpha =   0.10276978294879560     
 delta_qm =   0.367024E-05 delta_en =   0.265142E-03 tol =   0.100000E-04
 Iteration #        147
  pAp =    1.9504662339657692E-006  rzold =    1.7708701966334887E-007  alpha =    9.0792148348699253E-002
 delta_qm =   0.423675E-05 delta_en =   0.353310E-03 tol =   0.100000E-04
 Iteration #        148
  pAp =    1.4474325003075821E-006  rzold =    1.4875320116022115E-007  alpha =   0.10277038903618015     
 delta_qm =   0.348867E-05 delta_en =   0.239558E-03 tol =   0.100000E-04
 Iteration #        149
  pAp =    1.7633442435373876E-006  rzold =    1.6009863409559307E-007  alpha =    9.0792614478058128E-002
 delta_qm =   0.402794E-05 delta_en =   0.319343E-03 tol =   0.100000E-04
 Iteration #        150
  pAp =    1.3085974307734265E-006  rzold =    1.3448583723184199E-007  alpha =   0.10277097758961379     
 delta_qm =   0.331618E-05 delta_en =   0.216455E-03 tol =   0.100000E-04
 Iteration #        151
  pAp =    1.5942445856589012E-006  rzold =    1.4474635578179562E-007  alpha =    9.0793067189230539E-002
 delta_qm =   0.382952E-05 delta_en =   0.288655E-03 tol =   0.100000E-04
 Iteration #        152
  pAp =    1.1831306988778829E-006  rzold =    1.2159217492141635E-007  alpha =   0.10277154927747041     
 delta_qm =   0.315230E-05 delta_en =   0.195590E-03 tol =   0.100000E-04
 Iteration #        153
  pAp =    1.4414229207849901E-006  rzold =    1.3087184201799505E-007  alpha =    9.0793506979008662E-002
 delta_qm =   0.364095E-05 delta_en =   0.260928E-03 tol =   0.100000E-04
 Iteration #        154
  pAp =    1.0697388239642750E-006  rzold =    1.0993931042628421E-007  alpha =   0.10277210470764006     
 delta_qm =   0.299661E-05 delta_en =   0.176747E-03 tol =   0.100000E-04
 Iteration #        155
  pAp =    1.3033047920674165E-006  rzold =    1.1833216966652777E-007  alpha =    9.0793934302059065E-002
 delta_qm =   0.346175E-05 delta_en =   0.235875E-03 tol =   0.100000E-04
 Iteration #        156
  pAp =    9.6725424643752543E-007  rzold =    9.9407276751923634E-008  alpha =   0.10277264443971021     
 delta_qm =   0.284868E-05 delta_en =   0.159727E-03 tol =   0.100000E-04
 Iteration #        157
  pAp =    1.1784689469258407E-006  rzold =    1.0699832153521254E-007  alpha =    9.0794349579026948E-002
 delta_qm =   0.329143E-05 delta_en =   0.213236E-03 tol =   0.100000E-04
 Iteration #        158
  pAp =    8.7462297244013152E-007  rzold =    8.9887774552550142E-008  alpha =   0.10277316899391528     
 delta_qm =   0.270811E-05 delta_en =   0.144353E-03 tol =   0.100000E-04
 Iteration #        159
  pAp =    1.0656323141375608E-006  rzold =    9.6753822966887219E-008  alpha =    9.0794753202648681E-002
 delta_qm =   0.312957E-05 delta_en =   0.192779E-03 tol =   0.100000E-04
 Iteration #        160
  pAp =    7.9089344380744046E-007  rzold =    8.1283028804696318E-008  alpha =   0.10277367885791498     
 delta_qm =   0.257455E-05 delta_en =   0.130465E-03 tol =   0.100000E-04
 Iteration #        161
  pAp =    9.6363646930584604E-007  rzold =    8.7493513480616099E-008  alpha =    9.0795145542428374E-002
 delta_qm =   0.297572E-05 delta_en =   0.174291E-03 tol =   0.100000E-04
 Iteration #        162
  pAp =    7.1520650982323010E-007  rzold =    7.3504758638356406E-008  alpha =   0.10277417449195728     
 delta_qm =   0.244764E-05 delta_en =   0.117920E-03 tol =   0.100000E-04
 Iteration #        163
  pAp =    8.7143543898467363E-007  rzold =    7.9122439883913122E-008  alpha =    9.0795526948158331E-002
 delta_qm =   0.282949E-05 delta_en =   0.157583E-03 tol =   0.100000E-04
 Iteration #        164
  pAp =    6.4678639010033790E-007  rzold =    6.6473248963332452E-008  alpha =   0.10277465633285861     
 delta_qm =   0.232703E-05 delta_en =   0.106585E-03 tol =   0.100000E-04
 Iteration #        165
  pAp =    7.8808470920135544E-007  rzold =    7.1554858677017998E-008  alpha =    9.0795897752579985E-002
 delta_qm =   0.269051E-05 delta_en =   0.142482E-03 tol =   0.100000E-04
 Iteration #        166
  pAp =    5.8493252931055695E-007  rzold =    6.0116513697736470E-008  alpha =   0.10277512479703269     
 delta_qm =   0.221242E-05 delta_en =   0.963447E-04 tol =   0.100000E-04
 Iteration #        167
  pAp =    7.1273131789789015E-007  rzold =    6.4713336819458789E-008  alpha =    9.0796258273485864E-002
 delta_qm =   0.255839E-05 delta_en =   0.128833E-03 tol =   0.100000E-04
 Iteration #        168
  pAp =    5.2901225465185561E-007  rzold =    5.4369541448591752E-008  alpha =   0.10277558028286603     
 delta_qm =   0.210350E-05 delta_en =   0.870919E-04 tol =   0.100000E-04
 Iteration #        169
  pAp =    6.4460492311491400E-007  rzold =    5.8527941044550615E-008  alpha =    9.0796608815407409E-002
 delta_qm =   0.243281E-05 delta_en =   0.116495E-03 tol =   0.100000E-04
 Iteration #        170
  pAp =    4.7845415601577312E-007  rzold =    4.9173615425710005E-008  alpha =   0.10277602317261282     
 delta_qm =   0.199999E-05 delta_en =   0.787312E-04 tol =   0.100000E-04
 Iteration #        171
  pAp =    5.8300974973597800E-007  rzold =    5.2935506904358966E-008  alpha =    9.0796949670792562E-002
 delta_qm =   0.231344E-05 delta_en =   0.105343E-03 tol =   0.100000E-04
 Iteration #        172
  pAp =    4.3274211693507979E-007  rzold =    4.4475700203144088E-008  alpha =   0.10277645383385772     
 delta_qm =   0.190161E-05 delta_en =   0.711761E-04 tol =   0.100000E-04
 Iteration #        173
  pAp =    5.2731732743995514E-007  rzold =    4.7878979619659961E-008  alpha =    9.0797281121227466E-002
 delta_qm =   0.219996E-05 delta_en =   0.952622E-04 tol =   0.100000E-04
 Iteration #        174
  pAp =    3.9140993166726894E-007  rzold =    4.0227888689399671E-008  alpha =   0.10277687262058728     
 delta_qm =   0.180811E-05 delta_en =   0.643486E-04 tol =   0.100000E-04
 Iteration #        175
  pAp =    4.7695994133859750E-007  rzold =    4.3306819609535937E-008  alpha =    9.0797603438130453E-002
 delta_qm =   0.209208E-05 delta_en =   0.861488E-04 tol =   0.100000E-04
 Iteration #        176
  pAp =    3.5403645027379143E-007  rzold =    3.6386903335592686E-008  alpha =   0.10277727987458113     
 delta_qm =   0.171923E-05 delta_en =   0.581784E-04 tol =   0.100000E-04
 Iteration #        177
  pAp =    4.3142472467064561E-007  rzold =    3.9172466292132900E-008  alpha =    9.0797916883501736E-002
 delta_qm =   0.198953E-05 delta_en =   0.779098E-04 tol =   0.100000E-04
 Iteration #        178
  pAp =    3.2024119941820041E-007  rzold =    3.2913646211865055E-008  alpha =   0.10277767592571183     
 delta_qm =   0.163476E-05 delta_en =   0.526018E-04 tol =   0.100000E-04
 Iteration #        179
  pAp =    3.9024833000910023E-007  rzold =    3.5433854390346092E-008  alpha =    9.0798221710570309E-002
 delta_qm =   0.189203E-05 delta_en =   0.704610E-04 tol =   0.100000E-04
 Iteration #        180
  pAp =    2.8968043182450638E-007  rzold =    2.9772793119506011E-008  alpha =   0.10277806109300094     
 delta_qm =   0.155447E-05 delta_en =   0.475616E-04 tol =   0.100000E-04
 Iteration #        181
  pAp =    3.5301212182303087E-007  rzold =    3.2052977555551200E-008  alpha =    9.0798518164256506E-002
 delta_qm =   0.179934E-05 delta_en =   0.637264E-04 tol =   0.100000E-04
 Iteration #        182
  pAp =    2.6204356207114684E-007  rzold =    2.6932427391010830E-008  alpha =   0.10277843568505021     
 delta_qm =   0.147815E-05 delta_en =   0.430060E-04 tol =   0.100000E-04
 Iteration #        183
  pAp =    3.1933783892958281E-007  rzold =    2.8995494639230825E-008  alpha =    9.0798806481635339E-002
 delta_qm =   0.171122E-05 delta_en =   0.576372E-04 tol =   0.100000E-04
 Iteration #        184
  pAp =    2.3704995060703167E-007  rzold =    2.4363709463601006E-008  alpha =   0.10277880000063708     
 delta_qm =   0.140560E-05 delta_en =   0.388881E-04 tol =   0.100000E-04
 Iteration #        185
  pAp =    2.8888368052177281E-007  rzold =    2.6230374409446668E-008  alpha =    9.0799086892240408E-002
 delta_qm =   0.162744E-05 delta_en =   0.521314E-04 tol =   0.100000E-04
 Iteration #        186
  pAp =    2.1444600168553764E-007  rzold =    2.2040578702526661E-008  alpha =   0.10277915432924152     
 delta_qm =   0.133664E-05 delta_en =   0.351657E-04 tol =   0.100000E-04
 Iteration #        187
  pAp =    2.6134077406548389E-007  rzold =    2.3729574927335374E-008  alpha =    9.0799359618447747E-002
 delta_qm =   0.154778E-05 delta_en =   0.471529E-04 tol =   0.100000E-04
 Iteration #        188
  pAp =    1.9400254432574709E-007  rzold =    1.9939484301090222E-008  alpha =   0.10277949895136478     
 delta_qm =   0.127108E-05 delta_en =   0.318007E-04 tol =   0.100000E-04
 Iteration #        189
  pAp =    2.3642998751101737E-007  rzold =    2.1467754175398333E-008  alpha =    9.0799624875833318E-002
 delta_qm =   0.147204E-05 delta_en =   0.426511E-04 tol =   0.100000E-04
 Iteration #        190
  pAp =    1.7551246847976377E-007  rzold =    1.8039142399668809E-008  alpha =   0.10277983413895569     
 delta_qm =   0.120876E-05 delta_en =   0.287587E-04 tol =   0.100000E-04
 Iteration #        191
  pAp =    2.1389905199473413E-007  rzold =    1.9422008867848973E-008  alpha =    9.0799882873380450E-002
 delta_qm =   0.140003E-05 delta_en =   0.385801E-04 tol =   0.100000E-04
 Iteration #        192
  pAp =    1.5878859134736316E-007  rzold =    1.6320316849586458E-008  alpha =   0.10278016015574076     
 delta_qm =   0.114951E-05 delta_en =   0.260085E-04 tol =   0.100000E-04
 Iteration #        193
  pAp =    1.9351996455956183E-007  rzold =    1.7571638677643087E-008  alpha =    9.0800133813764033E-002
 delta_qm =   0.133155E-05 delta_en =   0.348987E-04 tol =   0.100000E-04
 Iteration #        194
  pAp =    1.4366173126377525E-007  rzold =    1.4765621302935555E-008  alpha =   0.10278047725754194     
 delta_qm =   0.109318E-05 delta_en =   0.235220E-04 tol =   0.100000E-04
 Iteration #        195
  pAp =    1.7508664344341787E-007  rzold =    1.5897933388805063E-008  alpha =    9.0800377893718323E-002
 delta_qm =   0.126645E-05 delta_en =   0.315693E-04 tol =   0.100000E-04
 Iteration #        196
  pAp =    1.2997896882149749E-007  rzold =    1.3359340538966925E-008  alpha =   0.10278078569244194     
 delta_qm =   0.103963E-05 delta_en =   0.212739E-04 tol =   0.100000E-04
 Iteration #        197
  pAp =    1.5841281119976280E-007  rzold =    1.4383980728997197E-008  alpha =    9.0800615304141102E-002
 delta_qm =   0.120454E-05 delta_en =   0.285583E-04 tol =   0.100000E-04
 Iteration #        198
  pAp =    1.1760207689457334E-007  rzold =    1.2087269143950641E-008  alpha =   0.10278108570128831     
 delta_qm =   0.988716E-06 delta_en =   0.192413E-04 tol =   0.100000E-04
 Iteration #        199
  pAp =    1.4333008335829301E-007  rzold =    1.3014492859175224E-008  alpha =    9.0800846230179852E-002
 delta_qm =   0.114567E-05 delta_en =   0.258352E-04 tol =   0.100000E-04
 Iteration #        200
  pAp =    1.0640610304902847E-007  rzold =    1.0936565847696681E-008  alpha =   0.10278137751795559     
 delta_qm =   0.940309E-06 delta_en =   0.174034E-04 tol =   0.100000E-04

%%%% DENSITY %%%%%%%%%%%%%%%%%%%%%%%%%%%%%%%%%%%%%%%%%%%%%%%%%%%%%%%%%%%%%%%%%%%
 density label              = velectrostatic                                                                  
 integral of density        =     0.1481305773E-10

%%%% CHARGES %%%%%%%%%%%%%%%%%%%%%%%%%%%%%%%%%%%%%%%%%%%%%%%%%%%%%%%%%%%%%%%%%%%
 total number of charges    =         34
 total charge               =     -1.0000000

%%%% DENSITY %%%%%%%%%%%%%%%%%%%%%%%%%%%%%%%%%%%%%%%%%%%%%%%%%%%%%%%%%%%%%%%%%%%
 density label              = vsoftcavity                                                                     
 integral of density        =      35.76211768    

%%%% DENSITY %%%%%%%%%%%%%%%%%%%%%%%%%%%%%%%%%%%%%%%%%%%%%%%%%%%%%%%%%%%%%%%%%%%
 density label              = dvtot                                                                           
 integral of density        =     -174.9382678    

%%%% ELECTRONS %%%%%%%%%%%%%%%%%%%%%%%%%%%%%%%%%%%%%%%%%%%%%%%%%%%%%%%%%%%%%%%%%
 number of electrons        =         24
 total electronic charge    =     24.0000000

%%%% ELECTRONS %%%%%%%%%%%%%%%%%%%%%%%%%%%%%%%%%%%%%%%%%%%%%%%%%%%%%%%%%%%%%%%%%
 number of electrons        =         24
 total electronic charge    =     24.0000000

%%%% BOUNDARY %%%%%%%%%%%%%%%%%%%%%%%%%%%%%%%%%%%%%%%%%%%%%%%%%%%%%%%%%%%%%%%%%%
 boundary label             = solvent              
 boundary mode              = electronic           
 boundary is built as a function of a smooth density
 function type              =  2 
 using the modified SCCS function with parameters 
 rhomax                     =      0.0050000 
 rhomin                     =      0.0001000 
 volume of the QM region    =    715.0335119 
 surface of the QM region   =    412.5109136 

%%%% DIELECTRIC %%%%%%%%%%%%%%%%%%%%%%%%%%%%%%%%%%%%%%%%%%%%%%%%%%%%%%%%%%%%%%%%%
 dielectric build on homogeneous background
 environment bulk permitt.  =    100.0000000 
 dielectric flags
 need gradient              =  F 
 need factor depend. sqrt   =  T 
 total dielectric charge    =      0.9894074

%%%% DENSITY %%%%%%%%%%%%%%%%%%%%%%%%%%%%%%%%%%%%%%%%%%%%%%%%%%%%%%%%%%%%%%%%%%%
 density label              = dvtot                                                                           
 integral of density        =     -174.9382678    

%%%% DENSITY %%%%%%%%%%%%%%%%%%%%%%%%%%%%%%%%%%%%%%%%%%%%%%%%%%%%%%%%%%%%%%%%%%%
 density label              = vreference                                                                      
 integral of density        =    -0.1313254032E-11

%%%% DENSITY %%%%%%%%%%%%%%%%%%%%%%%%%%%%%%%%%%%%%%%%%%%%%%%%%%%%%%%%%%%%%%%%%%%
 density label              = velectrostatic                                                                  
 integral of density        =     0.1481305773E-10

%%%% CHARGES %%%%%%%%%%%%%%%%%%%%%%%%%%%%%%%%%%%%%%%%%%%%%%%%%%%%%%%%%%%%%%%%%%%
 total number of charges    =         34
 total charge               =     -1.0000000

%%%% DENSITY %%%%%%%%%%%%%%%%%%%%%%%%%%%%%%%%%%%%%%%%%%%%%%%%%%%%%%%%%%%%%%%%%%%
 density label              = vsoftcavity                                                                     
 integral of density        =      35.76211768    
