
     Program PWSCF v.6.1 (svn rev. 13369) starts on 14Nov2017 at 14:37:57 

     This program is part of the open-source Quantum ESPRESSO suite
     for quantum simulation of materials; please cite
         "P. Giannozzi et al., J. Phys.:Condens. Matter 21 395502 (2009);
          URL http://www.quantum-espresso.org", 
     in publications or presentations arising from this work. More details at
     http://www.quantum-espresso.org/quote

     Parallel version (MPI), running on     1 processors
     Reading input from neutral.in

     Current dimensions of program PWSCF are:
     Max number of different atomic species (ntypx) = 10
     Max number of k-points (npk) =  40000
     Max angular momentum in pseudopotentials (lmaxx) =  3
               file H.pbe-rrkjus.UPF: wavefunction(s)  1S renormalized
               file O.pbe-rrkjus.UPF: wavefunction(s)  2S renormalized

     gamma-point specific algorithms are used

     Subspace diagonalization in iterative solution of the eigenvalue problem:
     a serial algorithm will be used

 
     G-vector sticks info
     --------------------
     sticks:   dense  smooth     PW     G-vecs:    dense   smooth      PW
     Sum        9549    3809    949               701475   177509   22119
 


     bravais-lattice index     =            1
     lattice parameter (alat)  =      20.0000  a.u.
     unit-cell volume          =    8000.0000 (a.u.)^3
     number of atoms/cell      =            3
     number of atomic types    =            2
     number of electrons       =         8.00
     number of Kohn-Sham states=            4
     kinetic-energy cutoff     =      30.0000  Ry
     charge density cutoff     =     300.0000  Ry
     convergence threshold     =      5.0E-03
     mixing beta               =       0.7000
     number of iterations used =            8  plain     mixing
     Exchange-correlation      =  SLA  PW   PBE  PBE ( 1  4  3  4 0 0)
 

     Environ Module
     ==============

     Plese cite
         O. Andreussi, I. Dabo and N. Marzari, J. Chem. Phys. 136, 064102 (2012)         
     in publications or presentations arising from this work.

     compensation onset threshold      =               0.1000E+03 
     static permittivity               =                   100.00 
     epsilon calculation mode          =                    ionic 

     Electrostatic Setup
     -------------------
     electrostatic problem to solve    = generalized              
     numerical solver adopted          = iterative                
     type of auxiliary density adopted = full                     
     type of core tool for poisson     = fft                      
     type of core tool for s(r) deriv  = analytic                 



     celldm(1)=  20.000000  celldm(2)=   0.000000  celldm(3)=   0.000000
     celldm(4)=   0.000000  celldm(5)=   0.000000  celldm(6)=   0.000000

     crystal axes: (cart. coord. in units of alat)
               a(1) = (   1.000000   0.000000   0.000000 )  
               a(2) = (   0.000000   1.000000   0.000000 )  
               a(3) = (   0.000000   0.000000   1.000000 )  

     reciprocal axes: (cart. coord. in units 2 pi/alat)
               b(1) = (  1.000000  0.000000  0.000000 )  
               b(2) = (  0.000000  1.000000  0.000000 )  
               b(3) = (  0.000000  0.000000  1.000000 )  


     PseudoPot. # 1 for H  read from file:
     /home/andreo/PWSCF/espresso-6.1-Environ-1.0/Environ/tests/../..//pseudo/H.pbe-rrkjus.UPF
     MD5 check sum: 7cc9d459525c9a0585f487a71c3c9563
     Pseudo is Ultrasoft, Zval =  1.0
     Generated by new atomic code, or converted to UPF format
     Using radial grid of 1061 points,  2 beta functions with: 
                l(1) =   0
                l(2) =   0
     Q(r) pseudized with 0 coefficients 


     PseudoPot. # 2 for O  read from file:
     /home/andreo/PWSCF/espresso-6.1-Environ-1.0/Environ/tests/../..//pseudo/O.pbe-rrkjus.UPF
     MD5 check sum: 390ba29e75625707450f3bd3f0eb6be9
     Pseudo is Ultrasoft, Zval =  6.0
     Generated by new atomic code, or converted to UPF format
     Using radial grid of 1269 points,  4 beta functions with: 
                l(1) =   0
                l(2) =   0
                l(3) =   1
                l(4) =   1
     Q(r) pseudized with 0 coefficients 


     atomic species   valence    mass     pseudopotential
        H              1.00     1.00000     H ( 1.00)
        O              6.00    16.00000     O ( 1.00)

     No symmetry found



   Cartesian axes

     site n.     atom                  positions (alat units)
         1           O   tau(   1) = (   0.5895000   0.6025000   0.5750000  )
         2           H   tau(   2) = (   0.6725000   0.5610000   0.5750000  )
         3           H   tau(   3) = (   0.5280000   0.5330000   0.5750000  )

     number of k points=     1
                       cart. coord. in units 2pi/alat
        k(    1) = (   0.0000000   0.0000000   0.0000000), wk =   2.0000000

     Dense  grid:   350738 G-vectors     FFT dimensions: ( 120, 120, 120)

     Smooth grid:    88755 G-vectors     FFT dimensions: (  72,  72,  72)

     Estimated max dynamical RAM per process >     270.62MB

     Initial potential from superposition of free atoms
     Check: negative starting charge=   -0.000775

     starting charge    7.80759, renormalised to    8.00000

     negative rho (up, down):  7.936E-04 0.000E+00
     Starting wfc are    6 randomized atomic wfcs

     total cpu time spent up to now is        4.5 secs

     per-process dynamical memory:   521.7 Mb

     Self-consistent Calculation

     iteration #  1     ecut=    30.00 Ry     beta=0.70
     Davidson diagonalization with overlap
     ethr =  1.00E-02,  avg # of iterations =  2.0

     negative rho (up, down):  2.595E-04 0.000E+00

     add environment contribution to local potential
     polarization accuracy = 7.0E-06, # of iterations =  17

     total cpu time spent up to now is       11.0 secs

     total energy              =     -34.06236055 Ry
     Harris-Foulkes estimate   =     -34.58697711 Ry
     estimated scf accuracy    <       0.68458994 Ry
     electrostatic embedding   =       0.00000000 Ry
     correction to one-el term =       0.00000000 Ry

     iteration #  2     ecut=    30.00 Ry     beta=0.70
     Davidson diagonalization with overlap
     ethr =  8.56E-03,  avg # of iterations =  2.0

     negative rho (up, down):  2.759E-03 0.000E+00

     add environment contribution to local potential
     polarization accuracy = 6.3E-06, # of iterations =  13

     total cpu time spent up to now is       16.5 secs

     total energy              =     -34.21919261 Ry
     Harris-Foulkes estimate   =     -33.92291134 Ry
     estimated scf accuracy    <       0.37537150 Ry
     electrostatic embedding   =      -0.04574755 Ry
     correction to one-el term =      -0.44327737 Ry

     iteration #  3     ecut=    30.00 Ry     beta=0.70
     Davidson diagonalization with overlap
     ethr =  4.69E-03,  avg # of iterations =  2.0

     negative rho (up, down):  2.250E-04 0.000E+00

     add environment contribution to local potential
     polarization accuracy = 9.1E-06, # of iterations =  11

     total cpu time spent up to now is       21.5 secs

     total energy              =     -34.30045642 Ry
     Harris-Foulkes estimate   =     -33.90800353 Ry
     estimated scf accuracy    <       0.01714366 Ry
     electrostatic embedding   =      -0.04295968 Ry
     correction to one-el term =      -0.35905952 Ry

     iteration #  4     ecut=    30.00 Ry     beta=0.70
     Davidson diagonalization with overlap
     ethr =  2.14E-04,  avg # of iterations =  2.0

     negative rho (up, down):  2.169E-04 0.000E+00

     total cpu time spent up to now is       23.1 secs

     End of self-consistent calculation

          k = 0.0000 0.0000 0.0000 ( 11060 PWs)   bands (ev):

   -24.7763 -12.5194  -9.1202  -7.1347

     highest occupied level (ev):    -7.1347

!    total energy              =     -34.30867200 Ry
     Harris-Foulkes estimate   =     -34.26247066 Ry
     estimated scf accuracy    <       0.00017407 Ry

     The total energy is the sum of the following terms:

     one-electron contribution =     -63.88501535 Ry
     hartree contribution      =      33.46058976 Ry
     xc contribution           =      -8.39538032 Ry
     ewald contribution        =       4.55735774 Ry
     electrostatic embedding   =      -0.04692245 Ry
     correction to one-el term =       0.00069862 Ry

     convergence has been achieved in   4 iterations

     Forces acting on atoms (cartesian axes, Ry/au):

     atom    1 type  2   force =     0.00022636   -0.00152982   -0.00000106
     atom    2 type  1   force =    -0.00362449    0.00005412    0.00000030
     atom    3 type  1   force =     0.00339814    0.00147571    0.00000076

     Total force =     0.005409     Total SCF correction =     0.030913
     SCF correction compared to forces is large: reduce conv_thr to get better values

     Writing output data file pwscf.save
 
     init_run     :      3.50s CPU      4.38s WALL (       1 calls)
     electrons    :     15.15s CPU     20.12s WALL (       1 calls)
     forces       :      2.28s CPU      2.63s WALL (       1 calls)

     Called by init_run:
     wfcinit      :      0.04s CPU      0.04s WALL (       1 calls)
     potinit      :      0.97s CPU      1.19s WALL (       1 calls)

     Called by electrons:
     c_bands      :      0.29s CPU      0.30s WALL (       4 calls)
     sum_band     :      1.38s CPU      1.96s WALL (       4 calls)
     v_of_rho     :      3.13s CPU      3.76s WALL (       5 calls)
     newd         :      0.72s CPU      1.52s WALL (       5 calls)
     mix_rho      :      0.27s CPU      0.28s WALL (       4 calls)

     Called by c_bands:
     init_us_2    :      0.02s CPU      0.02s WALL (       9 calls)
     regterg      :      0.27s CPU      0.28s WALL (       4 calls)

     Called by sum_band:
     sum_band:bec :      0.00s CPU      0.00s WALL (       4 calls)
     addusdens    :      0.84s CPU      1.39s WALL (       4 calls)

     Called by *egterg:
     h_psi        :      0.29s CPU      0.28s WALL (      13 calls)
     s_psi        :      0.00s CPU      0.00s WALL (      13 calls)
     g_psi        :      0.00s CPU      0.00s WALL (       8 calls)
     rdiaghg      :      0.00s CPU      0.00s WALL (      12 calls)

     Called by h_psi:
     h_psi:pot    :      0.28s CPU      0.28s WALL (      13 calls)
     h_psi:calbec :      0.00s CPU      0.01s WALL (      13 calls)
     vloc_psi     :      0.28s CPU      0.27s WALL (      13 calls)
     add_vuspsi   :      0.00s CPU      0.00s WALL (      13 calls)

     General routines
     calbec       :      0.01s CPU      0.01s WALL (      21 calls)
     fft          :      8.08s CPU      9.42s WALL (     259 calls)
     ffts         :      0.05s CPU      0.06s WALL (       9 calls)
     fftw         :      0.23s CPU      0.24s WALL (      62 calls)
     interpolate  :      0.39s CPU      0.57s WALL (       9 calls)
     davcio       :      0.00s CPU      0.00s WALL (       1 calls)
 
     Parallel routines
     fft_scatter  :      1.91s CPU      2.52s WALL (     330 calls)
 
     Environ routines
     calc_eelect  :      0.01s CPU      0.01s WALL (       8 calls)
     calc_velect  :      9.53s CPU     11.23s WALL (       6 calls)
     dielectric   :      0.12s CPU      0.13s WALL (       2 calls)
     calc_felect  :      0.08s CPU      0.09s WALL (       1 calls)
 
     PWSCF        :    21.15s CPU        29.96s WALL

 
   This run was terminated on:  14:38:27  14Nov2017            

=------------------------------------------------------------------------------=
   JOB DONE.
=------------------------------------------------------------------------------=

%%%% IONS %%%%%%%%%%%%%%%%%%%%%%%%%%%%%%%%%%%%%%%%%%%%%%%%%%%%%%%%%%%%%%%%%%%%%%
 number of ions             =          3
 ionic center of charge     =      0.5921875     0.5886250     0.5750000
 total ionic charge         =     -8.0000000
 ionic dipole               =      0.0000000     0.0000000     0.0000000
 ionic quadrupole (pc)      =     -4.2453875    -2.0049500     0.0000000
 ionic quadrupole (gauss)   =     -5.2453875    -3.0049500    -1.0000000
 ion   1 type =  2 coordinates =     11.7900000    12.0500000    11.5000000
 ion   2 type =  1 coordinates =     13.4500000    11.2200000    11.5000000
 ion   3 type =  1 coordinates =     10.5600000    10.6600000    11.5000000

%%%% SYSTEM %%%%%%%%%%%%%%%%%%%%%%%%%%%%%%%%%%%%%%%%%%%%%%%%%%%%%%%%%%%%%%%%%%%%
 system is built from all present ionic types
 system defined dimension   =  0 
 system defined axis        =  3 
 system center              =      0.5921875     0.5886250     0.5750000 
 system width               =      0.1209428 

%%%% BOUNDARY %%%%%%%%%%%%%%%%%%%%%%%%%%%%%%%%%%%%%%%%%%%%%%%%%%%%%%%%%%%%%%%%%%
 boundary mode              = ionic                
 boundary is built from soft-spheres centered on ionic positions
 solvent-dependent scaling  =      1.0000000 
 softness parameter         =      0.5000000 
 volume of the QM region    =    211.8920528 
 surface of the QM region   =    173.6178424 

%%%% DIELECTRIC %%%%%%%%%%%%%%%%%%%%%%%%%%%%%%%%%%%%%%%%%%%%%%%%%%%%%%%%%%%%%%%%%
 dielectric build on homogeneous background
 environment bulk permitt.  =    100.0000000 
 dielectric flags
 need gradient              =  F 
 need factor depend. sqrt   =  F 
 need gradient of logarithm =  T 

%%%% ELECTRONS %%%%%%%%%%%%%%%%%%%%%%%%%%%%%%%%%%%%%%%%%%%%%%%%%%%%%%%%%%%%%%%%%
 number of electrons        =          8
 total electronic charge    =      8.0000000
 number of spin components  =  1

%%%% COMPUTE ELECTROSTATIC POTENTIAL %%%%%%%%%%%%%%%%%%%%%%%%%%%%%%%%%%%%%%%%%%%
 Starting from polarization: rhoiter =      0.000000 jellium =      0.000000
 Iteration #          1
 delta_qm =   0.242083E-02 delta_en =   0.101268E+02 tol =   0.100000E-04
 Iteration #          2
 delta_qm =   0.151453E-02 delta_en =   0.396368E+01 tol =   0.100000E-04
 Iteration #          3
 delta_qm =   0.685363E-03 delta_en =   0.811681E+00 tol =   0.100000E-04
 Iteration #          4
 delta_qm =   0.457067E-03 delta_en =   0.360997E+00 tol =   0.100000E-04
 Iteration #          5
 delta_qm =   0.250603E-03 delta_en =   0.108521E+00 tol =   0.100000E-04
 Iteration #          6
 delta_qm =   0.167112E-03 delta_en =   0.482568E-01 tol =   0.100000E-04
 Iteration #          7
 delta_qm =   0.110781E-03 delta_en =   0.212069E-01 tol =   0.100000E-04
 Iteration #          8
 delta_qm =   0.631155E-04 delta_en =   0.688361E-02 tol =   0.100000E-04
 Iteration #          9
 delta_qm =   0.448072E-04 delta_en =   0.346928E-02 tol =   0.100000E-04
 Iteration #         10
 delta_qm =   0.315796E-04 delta_en =   0.172328E-02 tol =   0.100000E-04
 Iteration #         11
 delta_qm =   0.186951E-04 delta_en =   0.603950E-03 tol =   0.100000E-04
 Iteration #         12
 delta_qm =   0.132080E-04 delta_en =   0.301451E-03 tol =   0.100000E-04
 Iteration #         13
 delta_qm =   0.976229E-05 delta_en =   0.164682E-03 tol =   0.100000E-04
 Iteration #         14
 delta_qm =   0.605548E-05 delta_en =   0.633638E-04 tol =   0.100000E-04
 Iteration #         15
 delta_qm =   0.412637E-05 delta_en =   0.294225E-04 tol =   0.100000E-04
 Iteration #         16
 delta_qm =   0.310863E-05 delta_en =   0.166987E-04 tol =   0.100000E-04
 Iteration #         17
 delta_qm =   0.201954E-05 delta_en =   0.704773E-05 tol =   0.100000E-04
 Charges are converged, EXIT

%%%% ELECTRONS %%%%%%%%%%%%%%%%%%%%%%%%%%%%%%%%%%%%%%%%%%%%%%%%%%%%%%%%%%%%%%%%%
 number of electrons        =          8
 total electronic charge    =      8.0000000
 number of spin components  =  1

%%%% COMPUTE ELECTROSTATIC POTENTIAL %%%%%%%%%%%%%%%%%%%%%%%%%%%%%%%%%%%%%%%%%%%
 Starting from polarization: rhoiter =      0.452150 jellium =      0.000000
 Iteration #          1
 delta_qm =   0.325430E-03 delta_en =   0.183004E+00 tol =   0.100000E-04
 Iteration #          2
 delta_qm =   0.188027E-03 delta_en =   0.610922E-01 tol =   0.100000E-04
 Iteration #          3
 delta_qm =   0.123178E-03 delta_en =   0.262186E-01 tol =   0.100000E-04
 Iteration #          4
 delta_qm =   0.841566E-04 delta_en =   0.122383E-01 tol =   0.100000E-04
 Iteration #          5
 delta_qm =   0.484970E-04 delta_en =   0.406418E-02 tol =   0.100000E-04
 Iteration #          6
 delta_qm =   0.348237E-04 delta_en =   0.209553E-02 tol =   0.100000E-04
 Iteration #          7
 delta_qm =   0.225632E-04 delta_en =   0.879725E-03 tol =   0.100000E-04
 Iteration #          8
 delta_qm =   0.127241E-04 delta_en =   0.279768E-03 tol =   0.100000E-04
 Iteration #          9
 delta_qm =   0.927478E-05 delta_en =   0.148645E-03 tol =   0.100000E-04
 Iteration #         10
 delta_qm =   0.636922E-05 delta_en =   0.700997E-04 tol =   0.100000E-04
 Iteration #         11
 delta_qm =   0.365922E-05 delta_en =   0.231377E-04 tol =   0.100000E-04
 Iteration #         12
 delta_qm =   0.262586E-05 delta_en =   0.119148E-04 tol =   0.100000E-04
 Iteration #         13
 delta_qm =   0.191645E-05 delta_en =   0.634656E-05 tol =   0.100000E-04
 Charges are converged, EXIT

%%%% ELECTRONS %%%%%%%%%%%%%%%%%%%%%%%%%%%%%%%%%%%%%%%%%%%%%%%%%%%%%%%%%%%%%%%%%
 number of electrons        =          8
 total electronic charge    =      8.0000000
 number of spin components  =  1

%%%% COMPUTE ELECTROSTATIC POTENTIAL %%%%%%%%%%%%%%%%%%%%%%%%%%%%%%%%%%%%%%%%%%%
 Starting from polarization: rhoiter =      0.485307 jellium =      0.000000
 Iteration #          1
 delta_qm =   0.498433E-03 delta_en =   0.429297E+00 tol =   0.100000E-04
 Iteration #          2
 delta_qm =   0.326588E-03 delta_en =   0.184308E+00 tol =   0.100000E-04
 Iteration #          3
 delta_qm =   0.121117E-03 delta_en =   0.253486E-01 tol =   0.100000E-04
 Iteration #          4
 delta_qm =   0.783850E-04 delta_en =   0.106172E-01 tol =   0.100000E-04
 Iteration #          5
 delta_qm =   0.400580E-04 delta_en =   0.277282E-02 tol =   0.100000E-04
 Iteration #          6
 delta_qm =   0.239093E-04 delta_en =   0.987821E-03 tol =   0.100000E-04
 Iteration #          7
 delta_qm =   0.154879E-04 delta_en =   0.414502E-03 tol =   0.100000E-04
 Iteration #          8
 delta_qm =   0.852980E-05 delta_en =   0.125725E-03 tol =   0.100000E-04
 Iteration #          9
 delta_qm =   0.579485E-05 delta_en =   0.580268E-04 tol =   0.100000E-04
 Iteration #         10
 delta_qm =   0.398864E-05 delta_en =   0.274912E-04 tol =   0.100000E-04
 Iteration #         11
 delta_qm =   0.230101E-05 delta_en =   0.914913E-05 tol =   0.100000E-04
 Charges are converged, EXIT

%%%% ELECTRONS %%%%%%%%%%%%%%%%%%%%%%%%%%%%%%%%%%%%%%%%%%%%%%%%%%%%%%%%%%%%%%%%%
 number of electrons        =          8
 total electronic charge    =      8.0000000
 number of spin components  =  1
