
     Program PWSCF v.7.0 starts on 22Apr2022 at 20:18:38 

     This program is part of the open-source Quantum ESPRESSO suite
     for quantum simulation of materials; please cite
         "P. Giannozzi et al., J. Phys.:Condens. Matter 21 395502 (2009);
         "P. Giannozzi et al., J. Phys.:Condens. Matter 29 465901 (2017);
         "P. Giannozzi et al., J. Chem. Phys. 152 154105 (2020);
          URL http://www.quantum-espresso.org", 
     in publications or presentations arising from this work. More details at
     http://www.quantum-espresso.org/quote

     Parallel version (MPI), running on     1 processors

     MPI processes distributed on     1 nodes
     22873 MiB available memory on the printing compute node when the environment starts
 
     Reading input from neutral.in

     Current dimensions of program PWSCF are:
     Max number of different atomic species (ntypx) = 10
     Max number of k-points (npk) =  40000
     Max angular momentum in pseudopotentials (lmaxx) =  4
 
     Reading input from environ.in:
     * using system solvent mode
     * setting boundary derivatives method to SCCS default
     
     file H.pbe-rrkjus.UPF: wavefunction(s)  1S renormalized
     file O.pbe-rrkjus.UPF: wavefunction(s)  2S renormalized

     gamma-point specific algorithms are used

     Subspace diagonalization in iterative solution of the eigenvalue problem:
     a serial algorithm will be used

 
     G-vector sticks info
     --------------------
     sticks:   dense  smooth     PW     G-vecs:    dense   smooth      PW
     Sum        9549    3809    949               701475   177509   22119
 
     Using Slab Decomposition
 


     bravais-lattice index     =            1
     lattice parameter (alat)  =      20.0000  a.u.
     unit-cell volume          =    8000.0000 (a.u.)^3
     number of atoms/cell      =            3
     number of atomic types    =            2
     number of electrons       =         8.00
     number of Kohn-Sham states=            4
     kinetic-energy cutoff     =      30.0000  Ry
     charge density cutoff     =     300.0000  Ry
     scf convergence threshold =      5.0E-03
     mixing beta               =       0.7000
     number of iterations used =            8  plain     mixing
     Exchange-correlation= SLA  PW   PBE  PBE
                           (   1   4   3   4   0   0   0)

     ================================================================================
 
                                  Environ Setup Summary

     ================================================================================
 
     Please cite

          O. Andreussi, I. Dabo and N. Marzari, J. Chem. Phys. 136, 064102 (2012)

     in publications or presentations arising from this work.

     ================================================================================
 
     Parameters
     ==========

     compensation onset threshold      =               0.1000E+03
     static permittivity               =                   100.00

     Solvent Boundary
     ================

     solvent mode                      =                   system
     derivatives method                =                    chain
     numerical core for derivatives    =                      fft
     switching function adopted        =                     SCCS
     density limit for vacuum region   =               0.5000E-02
     density limit for bulk solvent    =               0.1000E-03

     Electrostatic Setup
     ===================

     electrostatic problem to solve    =              generalized
     numerical solver adopted          =                       cg
     type of auxiliary density adopted =                     none
     numerical core for poisson        =                      fft

     ================================================================================
 

     celldm(1)=  20.000000  celldm(2)=   0.000000  celldm(3)=   0.000000
     celldm(4)=   0.000000  celldm(5)=   0.000000  celldm(6)=   0.000000

     crystal axes: (cart. coord. in units of alat)
               a(1) = (   1.000000   0.000000   0.000000 )  
               a(2) = (   0.000000   1.000000   0.000000 )  
               a(3) = (   0.000000   0.000000   1.000000 )  

     reciprocal axes: (cart. coord. in units 2 pi/alat)
               b(1) = (  1.000000  0.000000  0.000000 )  
               b(2) = (  0.000000  1.000000  0.000000 )  
               b(3) = (  0.000000  0.000000  1.000000 )  


     PseudoPot. # 1 for H  read from file:
     MD5 check sum: 2d52a7f45632fd764c17cc6affed14c8
     Pseudo is Ultrasoft, Zval =  1.0
     Generated by new atomic code, or converted to UPF format
     Using radial grid of 1061 points,  2 beta functions with: 
                l(1) =   0
                l(2) =   0
     Q(r) pseudized with 0 coefficients 


     PseudoPot. # 2 for O  read from file:
     MD5 check sum: fadcf19ee70a498d3030e2e79cf929a4
     Pseudo is Ultrasoft, Zval =  6.0
     Generated by new atomic code, or converted to UPF format
     Using radial grid of 1269 points,  4 beta functions with: 
                l(1) =   0
                l(2) =   0
                l(3) =   1
                l(4) =   1
     Q(r) pseudized with 0 coefficients 


     atomic species   valence    mass     pseudopotential
        H              1.00     1.00000     H ( 1.00)
        O              6.00    16.00000     O ( 1.00)

     No symmetry found



   Cartesian axes

     site n.     atom                  positions (alat units)
         1           O   tau(   1) = (   0.5895000   0.6025000   0.5750000  )
         2           H   tau(   2) = (   0.6725000   0.5610000   0.5750000  )
         3           H   tau(   3) = (   0.5280000   0.5330000   0.5750000  )

     number of k points=     1
                       cart. coord. in units 2pi/alat
        k(    1) = (   0.0000000   0.0000000   0.0000000), wk =   2.0000000

     Dense  grid:   350738 G-vectors     FFT dimensions: ( 120, 120, 120)

     Smooth grid:    88755 G-vectors     FFT dimensions: (  72,  72,  72)

     Estimated max dynamical RAM per process >     530.91 MB

     Initial potential from superposition of free atoms

     starting charge       7.8076, renormalised to       8.0000

     negative rho (up, down):  7.936E-04 0.000E+00
     Starting wfcs are    6 randomized atomic wfcs

     total cpu time spent up to now is        3.0 secs

     Self-consistent Calculation

     iteration #  1     ecut=    30.00 Ry     beta= 0.70
     Davidson diagonalization with overlap
     ethr =  1.00E-02,  avg # of iterations =  2.0

     negative rho (up, down):  2.568E-04 0.000E+00

     add environment contribution to local potential
     Polarization accuracy = 3.0E-06, # of iterations =  11

     total cpu time spent up to now is        6.0 secs

     total energy              =     -34.06919233 Ry
     estimated scf accuracy    <       0.67469661 Ry
     electrostatic embedding   =       0.00000000 Ry
     correction to one-el term =       0.00000000 Ry

     iteration #  2     ecut=    30.00 Ry     beta= 0.70
     Davidson diagonalization with overlap
     ethr =  8.43E-03,  avg # of iterations =  2.0

     negative rho (up, down):  2.548E-03 0.000E+00

     add environment contribution to local potential
     Polarization accuracy = 8.9E-06, # of iterations =  10

     total cpu time spent up to now is        8.8 secs

     total energy              =     -34.20991596 Ry
     estimated scf accuracy    <       0.34723182 Ry
     electrostatic embedding   =      -0.00807466 Ry
     correction to one-el term =      -0.13034984 Ry

     iteration #  3     ecut=    30.00 Ry     beta= 0.70
     Davidson diagonalization with overlap
     ethr =  4.34E-03,  avg # of iterations =  2.0

     negative rho (up, down):  4.106E-04 0.000E+00

     add environment contribution to local potential
     Polarization accuracy = 8.2E-06, # of iterations =  10

     total cpu time spent up to now is       11.0 secs

     total energy              =     -34.27155420 Ry
     estimated scf accuracy    <       0.00815934 Ry
     electrostatic embedding   =      -0.00514158 Ry
     correction to one-el term =      -0.08135631 Ry

     iteration #  4     ecut=    30.00 Ry     beta= 0.70
     Davidson diagonalization with overlap
     ethr =  1.02E-04,  avg # of iterations =  2.0

     negative rho (up, down):  2.117E-04 0.000E+00

     the potential shift due to the Gaussian-smeared nuclei is    -0.0214 ev

     total cpu time spent up to now is       11.8 secs

     End of self-consistent calculation

          k = 0.0000 0.0000 0.0000 ( 11060 PWs)   bands (ev):

   -25.0442 -12.8728  -9.1314  -7.1281

     highest occupied level (ev):    -7.1281

!    total energy              =     -34.27325046 Ry
     estimated scf accuracy    <       0.00083969 Ry

     The total energy is the sum of the following terms:
     one-electron contribution =     -63.88887637 Ry
     hartree contribution      =      33.48811257 Ry
     xc contribution           =      -8.41129253 Ry
     ewald contribution        =       4.55735774 Ry
     electrostatic embedding   =      -0.00524819 Ry
     correction to one-el term =      -0.01330368 Ry

     convergence has been achieved in   4 iterations

     Forces acting on atoms (cartesian axes, Ry/au):

     atom    1 type  2   force =     0.00227983   -0.01190645   -0.00002120
     atom    2 type  1   force =    -0.01720994    0.00280270    0.00001094
     atom    3 type  1   force =     0.01493012    0.00910374    0.00001027

     Total force =     0.027510     Total SCF correction =     0.036515
     SCF correction compared to forces is large: reduce conv_thr to get better values

 
     init_run     :      2.68s CPU      2.92s WALL (       1 calls)
     electrons    :      8.12s CPU      8.82s WALL (       1 calls)
     forces       :      0.61s CPU      0.70s WALL (       1 calls)

     Called by init_run:
     wfcinit      :      0.05s CPU      0.05s WALL (       1 calls)
     potinit      :      0.69s CPU      0.80s WALL (       1 calls)
     hinit0       :      1.44s CPU      1.46s WALL (       1 calls)

     Called by electrons:
     c_bands      :      0.26s CPU      0.26s WALL (       4 calls)
     sum_band     :      0.82s CPU      1.00s WALL (       4 calls)
     v_of_rho     :      2.20s CPU      2.37s WALL (       5 calls)
     newd         :      0.64s CPU      0.79s WALL (       5 calls)
     mix_rho      :      0.21s CPU      0.25s WALL (       4 calls)

     Called by c_bands:
     init_us_2    :      0.01s CPU      0.01s WALL (       9 calls)
     init_us_2:cp :      0.01s CPU      0.01s WALL (       9 calls)
     regterg      :      0.24s CPU      0.25s WALL (       4 calls)

     Called by *egterg:
     rdiaghg      :      0.00s CPU      0.00s WALL (      12 calls)
     h_psi        :      0.26s CPU      0.27s WALL (      13 calls)
     s_psi        :      0.00s CPU      0.00s WALL (      13 calls)
     g_psi        :      0.00s CPU      0.00s WALL (       8 calls)

     Called by h_psi:
     h_psi:calbec :      0.00s CPU      0.00s WALL (      13 calls)
     vloc_psi     :      0.25s CPU      0.26s WALL (      13 calls)
     add_vuspsi   :      0.00s CPU      0.00s WALL (      13 calls)

     General routines
     calbec       :      0.00s CPU      0.00s WALL (      21 calls)
     fft          :      1.04s CPU      1.09s WALL (      55 calls)
     ffts         :      0.03s CPU      0.03s WALL (       9 calls)
     fftw         :      0.21s CPU      0.22s WALL (      62 calls)
     interpolate  :      0.13s CPU      0.13s WALL (       5 calls)
 
     Parallel routines
 
     Environ routines
 
     PWSCF        :     11.47s CPU     12.52s WALL

 
   This run was terminated on:  20:18:51  22Apr2022            

=------------------------------------------------------------------------------=
   JOB DONE.
=------------------------------------------------------------------------------=

%%%% CELL %%%%%%%%%%%%%%%%%%%%%%%%%%%%%%%%%%%%%%%%%%%%%%%%%%%%%%%%%%%%%%%%%%%%%%

 cell label                 = system         

 cell volume                =    8000.000000

%%%% IONS %%%%%%%%%%%%%%%%%%%%%%%%%%%%%%%%%%%%%%%%%%%%%%%%%%%%%%%%%%%%%%%%%%%%%%

 total charge               =     -8.0000000
 center of charge           =     11.8140581    11.9257928    11.5000000
 dipole                     =      0.0000000     0.0000000     0.0000000
 quadrupole (pc)            =     -4.2524404    -2.1929396    -0.0000000
 quadrupole (gauss)         =     -5.2524404    -3.1929396    -1.0000000

   i | type | coordinates
 -----------------------------------------------------------------------
   1 |    2 |                     11.7900000    12.0500000    11.5000000
   2 |    1 |                     13.4500000    11.2200000    11.5000000
   3 |    1 |                     10.5600000    10.6600000    11.5000000

%%%% SYSTEM %%%%%%%%%%%%%%%%%%%%%%%%%%%%%%%%%%%%%%%%%%%%%%%%%%%%%%%%%%%%%%%%%%%%

 system is built from all present ionic types

 system defined dimension   =              0
 system defined axis        =              3

 system center              =     11.8140581    11.9257928    11.5000000
 system width               =      1.7818230

%%%% IONS %%%%%%%%%%%%%%%%%%%%%%%%%%%%%%%%%%%%%%%%%%%%%%%%%%%%%%%%%%%%%%%%%%%%%%

 total charge               =     -8.0000000
 center of charge           =     11.8140581    11.9257928    11.5000000
 dipole                     =      0.0000000     0.0000000     0.0000000
 quadrupole (pc)            =     -4.2524404    -2.1929396    -0.0000000
 quadrupole (gauss)         =     -5.2524404    -3.1929396    -1.0000000

   i | type | coordinates
 -----------------------------------------------------------------------
   1 |    2 |                     11.7900000    12.0500000    11.5000000
   2 |    1 |                     13.4500000    11.2200000    11.5000000
   3 |    1 |                     10.5600000    10.6600000    11.5000000

%%%% SYSTEM %%%%%%%%%%%%%%%%%%%%%%%%%%%%%%%%%%%%%%%%%%%%%%%%%%%%%%%%%%%%%%%%%%%%

 system is built from all present ionic types

 system defined dimension   =              0
 system defined axis        =              3

 system center              =     11.8140581    11.9257928    11.5000000
 system width               =      1.7818230

%%%% BOUNDARY %%%%%%%%%%%%%%%%%%%%%%%%%%%%%%%%%%%%%%%%%%%%%%%%%%%%%%%%%%%%%%%%%%

 boundary label             = solvent             
 boundary mode              = system              

 boundary is built as an analytic function centered on system position:
 center of the boundary     =     11.8140581    11.9257928    11.5000000
 distance from the center   =      6.0000000
 spread of the interface    =      0.5000000
 dimensionality             =              0
 axis                       =              3

 volume of the QM region    =    914.2034622

 surface of the QM region   =    453.9601384

%%%% CHARGES %%%%%%%%%%%%%%%%%%%%%%%%%%%%%%%%%%%%%%%%%%%%%%%%%%%%%%%%%%%%%%%%%%%

 total number of charges    =              3

 total charge               =     -8.0000000

%%%% CHARGES %%%%%%%%%%%%%%%%%%%%%%%%%%%%%%%%%%%%%%%%%%%%%%%%%%%%%%%%%%%%%%%%%%%

 total number of charges    =              3

 total charge               =     -8.0000000

%%%% CELL %%%%%%%%%%%%%%%%%%%%%%%%%%%%%%%%%%%%%%%%%%%%%%%%%%%%%%%%%%%%%%%%%%%%%%

 cell label                 = system         

 cell volume                =    8000.000000

%%%% ELECTRONS %%%%%%%%%%%%%%%%%%%%%%%%%%%%%%%%%%%%%%%%%%%%%%%%%%%%%%%%%%%%%%%%%

 number of electrons        =              8

 total electronic charge    =      8.0000000

%%%% ELECTRONS %%%%%%%%%%%%%%%%%%%%%%%%%%%%%%%%%%%%%%%%%%%%%%%%%%%%%%%%%%%%%%%%%

 number of electrons        =              8

 total electronic charge    =      8.0000000

%%%% CHARGES %%%%%%%%%%%%%%%%%%%%%%%%%%%%%%%%%%%%%%%%%%%%%%%%%%%%%%%%%%%%%%%%%%%

 total number of charges    =             11

 total charge               =     -0.0000000

%%%% CHARGES %%%%%%%%%%%%%%%%%%%%%%%%%%%%%%%%%%%%%%%%%%%%%%%%%%%%%%%%%%%%%%%%%%%

 total number of charges    =             11

 total charge               =     -0.0000000

%%%% DENSITY %%%%%%%%%%%%%%%%%%%%%%%%%%%%%%%%%%%%%%%%%%%%%%%%%%%%%%%%%%%%%%%%%%%

 density label              = dvtot                                             

 integral of density        =    0.000000000    

%%%% DENSITY %%%%%%%%%%%%%%%%%%%%%%%%%%%%%%%%%%%%%%%%%%%%%%%%%%%%%%%%%%%%%%%%%%%

 density label              = vreference                                        

 integral of density        =    0.000000000    

%%%% DENSITY %%%%%%%%%%%%%%%%%%%%%%%%%%%%%%%%%%%%%%%%%%%%%%%%%%%%%%%%%%%%%%%%%%%

 density label              = velectrostatic                                    

 integral of density        =    0.000000000    

%%%% CHARGES %%%%%%%%%%%%%%%%%%%%%%%%%%%%%%%%%%%%%%%%%%%%%%%%%%%%%%%%%%%%%%%%%%%

 total number of charges    =             11

 total charge               =     -0.0000000

%%%% ELECTRONS %%%%%%%%%%%%%%%%%%%%%%%%%%%%%%%%%%%%%%%%%%%%%%%%%%%%%%%%%%%%%%%%%

 number of electrons        =              8

 total electronic charge    =      8.0000000

%%%% ELECTRONS %%%%%%%%%%%%%%%%%%%%%%%%%%%%%%%%%%%%%%%%%%%%%%%%%%%%%%%%%%%%%%%%%

 number of electrons        =              8

 total electronic charge    =      8.0000000

%%%% CHARGES %%%%%%%%%%%%%%%%%%%%%%%%%%%%%%%%%%%%%%%%%%%%%%%%%%%%%%%%%%%%%%%%%%%

 total number of charges    =             11

 total charge               =      0.0000000

%%%% CHARGES %%%%%%%%%%%%%%%%%%%%%%%%%%%%%%%%%%%%%%%%%%%%%%%%%%%%%%%%%%%%%%%%%%%

 total number of charges    =             11

 total charge               =      0.0000000

%%%% DENSITY %%%%%%%%%%%%%%%%%%%%%%%%%%%%%%%%%%%%%%%%%%%%%%%%%%%%%%%%%%%%%%%%%%%

 density label              = vreference                                        

 integral of density        =  -0.1213843840E-12

%%%% COMPUTE ELECTROSTATIC POTENTIAL %%%%%%%%%%%%%%%%%%%%%%%%%%%%%%%%%%%%%%%%%%%

   i |      alpha     |       pAp      |      rzold     |    delta_qm    |    delta_en    |       tol
 ---------------------------------------------------------------------------------------------------------
   1 |   0.995117E+00 |   0.263161E+02 |   0.261876E+02 |   0.426560E-02 |   0.314416E+02 |   0.100000E-04
   2 |   0.120005E+00 |   0.759480E+01 |   0.911414E+00 |   0.693150E-03 |   0.830229E+00 |   0.100000E-04
   3 |   0.166319E+00 |   0.631081E-01 |   0.104960E-01 |   0.304675E-03 |   0.160405E+00 |   0.100000E-04
   4 |   0.173416E+00 |   0.421416E-02 |   0.730804E-03 |   0.296160E-03 |   0.151564E+00 |   0.100000E-04
   5 |   0.408608E+00 |   0.545901E-03 |   0.223060E-03 |   0.169437E-03 |   0.496092E-01 |   0.100000E-04
   6 |   0.411086E+00 |   0.302704E-03 |   0.124437E-03 |   0.926880E-04 |   0.148454E-01 |   0.100000E-04
   7 |   0.813982E+00 |   0.223462E-04 |   0.181894E-04 |   0.401364E-04 |   0.278368E-02 |   0.100000E-04
   8 |   0.408074E+00 |   0.306449E-04 |   0.125054E-04 |   0.967607E-05 |   0.161786E-03 |   0.100000E-04
   9 |   0.212899E+00 |   0.621772E-05 |   0.132375E-05 |   0.547614E-05 |   0.518195E-04 |   0.100000E-04
  10 |   0.518784E+00 |   0.160376E-06 |   0.832006E-07 |   0.254289E-05 |   0.111738E-04 |   0.100000E-04
  11 |   0.626521E+00 |   0.367628E-07 |   0.230327E-07 |   0.130686E-05 |   0.295124E-05 |   0.100000E-04

 Charges are converged, EXIT

%%%% DENSITY %%%%%%%%%%%%%%%%%%%%%%%%%%%%%%%%%%%%%%%%%%%%%%%%%%%%%%%%%%%%%%%%%%%

 density label              = velectrostatic                                    

 integral of density        =   0.2252683636E-12

%%%% CHARGES %%%%%%%%%%%%%%%%%%%%%%%%%%%%%%%%%%%%%%%%%%%%%%%%%%%%%%%%%%%%%%%%%%%

 total number of charges    =             11

 total charge               =      0.0000000

%%%% DENSITY %%%%%%%%%%%%%%%%%%%%%%%%%%%%%%%%%%%%%%%%%%%%%%%%%%%%%%%%%%%%%%%%%%%

 density label              = dvtot                                             

 integral of density        =   0.4505963504E-13

%%%% ELECTRONS %%%%%%%%%%%%%%%%%%%%%%%%%%%%%%%%%%%%%%%%%%%%%%%%%%%%%%%%%%%%%%%%%

 number of electrons        =              8

 total electronic charge    =      8.0000000

%%%% ELECTRONS %%%%%%%%%%%%%%%%%%%%%%%%%%%%%%%%%%%%%%%%%%%%%%%%%%%%%%%%%%%%%%%%%

 number of electrons        =              8

 total electronic charge    =      8.0000000

%%%% CHARGES %%%%%%%%%%%%%%%%%%%%%%%%%%%%%%%%%%%%%%%%%%%%%%%%%%%%%%%%%%%%%%%%%%%

 total number of charges    =             11

 total charge               =      0.0000000

%%%% CHARGES %%%%%%%%%%%%%%%%%%%%%%%%%%%%%%%%%%%%%%%%%%%%%%%%%%%%%%%%%%%%%%%%%%%

 total number of charges    =             11

 total charge               =      0.0000000

%%%% DENSITY %%%%%%%%%%%%%%%%%%%%%%%%%%%%%%%%%%%%%%%%%%%%%%%%%%%%%%%%%%%%%%%%%%%

 density label              = vreference                                        

 integral of density        =  -0.5914610365E-13

%%%% COMPUTE ELECTROSTATIC POTENTIAL %%%%%%%%%%%%%%%%%%%%%%%%%%%%%%%%%%%%%%%%%%%

 Warning: Bad guess with residual norm =   0.192799E+02, reset to no guess

   i |      alpha     |       pAp      |      rzold     |    delta_qm    |    delta_en    |       tol
 ---------------------------------------------------------------------------------------------------------
   1 |   0.997309E+00 |   0.285047E+02 |   0.284280E+02 |   0.333297E-02 |   0.191958E+02 |   0.100000E-04
   2 |   0.122898E+00 |   0.429574E+01 |   0.527939E+00 |   0.597655E-03 |   0.617226E+00 |   0.100000E-04
   3 |   0.171357E+00 |   0.458497E-01 |   0.785666E-02 |   0.281039E-03 |   0.136483E+00 |   0.100000E-04
   4 |   0.227598E+00 |   0.148728E-02 |   0.338504E-03 |   0.271352E-03 |   0.127236E+00 |   0.100000E-04
   5 |   0.331424E+00 |   0.613320E-03 |   0.203269E-03 |   0.154559E-03 |   0.412795E-01 |   0.100000E-04
   6 |   0.406419E+00 |   0.278212E-03 |   0.113070E-03 |   0.861735E-04 |   0.128319E-01 |   0.100000E-04
   7 |   0.756347E+00 |   0.229136E-04 |   0.173306E-04 |   0.354227E-04 |   0.216823E-02 |   0.100000E-04
   8 |   0.388487E+00 |   0.263233E-04 |   0.102262E-04 |   0.867727E-05 |   0.130110E-03 |   0.100000E-04
   9 |   0.213731E+00 |   0.545301E-05 |   0.116548E-05 |   0.463231E-05 |   0.370800E-04 |   0.100000E-04
  10 |   0.499406E+00 |   0.119013E-06 |   0.594356E-07 |   0.226995E-05 |   0.890382E-05 |   0.100000E-04

 Charges are converged, EXIT

%%%% DENSITY %%%%%%%%%%%%%%%%%%%%%%%%%%%%%%%%%%%%%%%%%%%%%%%%%%%%%%%%%%%%%%%%%%%

 density label              = velectrostatic                                    

 integral of density        =   0.1000681020E-12

%%%% CHARGES %%%%%%%%%%%%%%%%%%%%%%%%%%%%%%%%%%%%%%%%%%%%%%%%%%%%%%%%%%%%%%%%%%%

 total number of charges    =             11

 total charge               =      0.0000000

%%%% DENSITY %%%%%%%%%%%%%%%%%%%%%%%%%%%%%%%%%%%%%%%%%%%%%%%%%%%%%%%%%%%%%%%%%%%

 density label              = dvtot                                             

 integral of density        =   0.2146392632E-13

%%%% ELECTRONS %%%%%%%%%%%%%%%%%%%%%%%%%%%%%%%%%%%%%%%%%%%%%%%%%%%%%%%%%%%%%%%%%

 number of electrons        =              8

 total electronic charge    =      8.0000000

%%%% ELECTRONS %%%%%%%%%%%%%%%%%%%%%%%%%%%%%%%%%%%%%%%%%%%%%%%%%%%%%%%%%%%%%%%%%

 number of electrons        =              8

 total electronic charge    =      8.0000000

%%%% CHARGES %%%%%%%%%%%%%%%%%%%%%%%%%%%%%%%%%%%%%%%%%%%%%%%%%%%%%%%%%%%%%%%%%%%

 total number of charges    =             11

 total charge               =      0.0000000

%%%% CHARGES %%%%%%%%%%%%%%%%%%%%%%%%%%%%%%%%%%%%%%%%%%%%%%%%%%%%%%%%%%%%%%%%%%%

 total number of charges    =             11

 total charge               =      0.0000000

%%%% DENSITY %%%%%%%%%%%%%%%%%%%%%%%%%%%%%%%%%%%%%%%%%%%%%%%%%%%%%%%%%%%%%%%%%%%

 density label              = vreference                                        

 integral of density        =   0.9342321155E-13

%%%% COMPUTE ELECTROSTATIC POTENTIAL %%%%%%%%%%%%%%%%%%%%%%%%%%%%%%%%%%%%%%%%%%%

 Warning: Bad guess with residual norm =   0.205449E+02, reset to no guess

   i |      alpha     |       pAp      |      rzold     |    delta_qm    |    delta_en    |       tol
 ---------------------------------------------------------------------------------------------------------
   1 |   0.997240E+00 |   0.286636E+02 |   0.285845E+02 |   0.344031E-02 |   0.204522E+02 |   0.100000E-04
   2 |   0.123253E+00 |   0.440713E+01 |   0.543193E+00 |   0.507527E-03 |   0.445104E+00 |   0.100000E-04
   3 |   0.172214E+00 |   0.447640E-01 |   0.770898E-02 |   0.251991E-03 |   0.109727E+00 |   0.100000E-04
   4 |   0.267888E+00 |   0.890704E-03 |   0.238609E-03 |   0.165574E-03 |   0.473729E-01 |   0.100000E-04
   5 |   0.273539E+00 |   0.569819E-03 |   0.155868E-03 |   0.141984E-03 |   0.348356E-01 |   0.100000E-04
   6 |   0.386321E+00 |   0.216941E-03 |   0.838088E-04 |   0.806766E-04 |   0.112470E-01 |   0.100000E-04
   7 |   0.746252E+00 |   0.162632E-04 |   0.121365E-04 |   0.365213E-04 |   0.230482E-02 |   0.100000E-04
   8 |   0.419115E+00 |   0.196051E-04 |   0.821678E-05 |   0.837461E-05 |   0.121192E-03 |   0.100000E-04
   9 |   0.216298E+00 |   0.539985E-05 |   0.116797E-05 |   0.420355E-05 |   0.305335E-04 |   0.100000E-04
  10 |   0.498980E+00 |   0.117265E-06 |   0.585128E-07 |   0.217204E-05 |   0.815228E-05 |   0.100000E-04

 Charges are converged, EXIT

%%%% DENSITY %%%%%%%%%%%%%%%%%%%%%%%%%%%%%%%%%%%%%%%%%%%%%%%%%%%%%%%%%%%%%%%%%%%

 density label              = velectrostatic                                    

 integral of density        =   0.1365821037E-12

%%%% CHARGES %%%%%%%%%%%%%%%%%%%%%%%%%%%%%%%%%%%%%%%%%%%%%%%%%%%%%%%%%%%%%%%%%%%

 total number of charges    =             11

 total charge               =      0.0000000

%%%% DENSITY %%%%%%%%%%%%%%%%%%%%%%%%%%%%%%%%%%%%%%%%%%%%%%%%%%%%%%%%%%%%%%%%%%%

 density label              = dvtot                                             

 integral of density        =   0.1554028254E-12

%%%% ELECTRONS %%%%%%%%%%%%%%%%%%%%%%%%%%%%%%%%%%%%%%%%%%%%%%%%%%%%%%%%%%%%%%%%%

 number of electrons        =              8

 total electronic charge    =      8.0000000

%%%% ELECTRONS %%%%%%%%%%%%%%%%%%%%%%%%%%%%%%%%%%%%%%%%%%%%%%%%%%%%%%%%%%%%%%%%%

 number of electrons        =              8

 total electronic charge    =      8.0000000

%%%% CHARGES %%%%%%%%%%%%%%%%%%%%%%%%%%%%%%%%%%%%%%%%%%%%%%%%%%%%%%%%%%%%%%%%%%%

 total number of charges    =             11

 total charge               =      0.0000000

%%%% CHARGES %%%%%%%%%%%%%%%%%%%%%%%%%%%%%%%%%%%%%%%%%%%%%%%%%%%%%%%%%%%%%%%%%%%

 total number of charges    =             11

 total charge               =      0.0000000

%%%% DENSITY %%%%%%%%%%%%%%%%%%%%%%%%%%%%%%%%%%%%%%%%%%%%%%%%%%%%%%%%%%%%%%%%%%%

 density label              = dvtot                                             

 integral of density        =   0.1554028254E-12

%%%% DENSITY %%%%%%%%%%%%%%%%%%%%%%%%%%%%%%%%%%%%%%%%%%%%%%%%%%%%%%%%%%%%%%%%%%%

 density label              = vreference                                        

 integral of density        =   0.9342321155E-13

%%%% DENSITY %%%%%%%%%%%%%%%%%%%%%%%%%%%%%%%%%%%%%%%%%%%%%%%%%%%%%%%%%%%%%%%%%%%

 density label              = velectrostatic                                    

 integral of density        =   0.1365821037E-12

%%%% CHARGES %%%%%%%%%%%%%%%%%%%%%%%%%%%%%%%%%%%%%%%%%%%%%%%%%%%%%%%%%%%%%%%%%%%

 total number of charges    =             11

 total charge               =      0.0000000
