
     Program PWSCF v.6.1 (svn rev. 13369) starts on  4Oct2017 at 12:20:55 

     This program is part of the open-source Quantum ESPRESSO suite
     for quantum simulation of materials; please cite
         "P. Giannozzi et al., J. Phys.:Condens. Matter 21 395502 (2009);
          URL http://www.quantum-espresso.org", 
     in publications or presentations arising from this work. More details at
     http://www.quantum-espresso.org/quote

     Serial version
     Reading input from neutral.in

     Current dimensions of program PWSCF are:
     Max number of different atomic species (ntypx) = 10
     Max number of k-points (npk) =  40000
     Max angular momentum in pseudopotentials (lmaxx) =  3
               file H.pbe-rrkjus.UPF: wavefunction(s)  1S renormalized
               file O.pbe-rrkjus.UPF: wavefunction(s)  2S renormalized

     gamma-point specific algorithms are used

     G-vector sticks info
     --------------------
     sticks:   dense  smooth     PW     G-vecs:    dense   smooth      PW
     Sum        9549    3809    949               701475   177509   22119



     bravais-lattice index     =            1
     lattice parameter (alat)  =      20.0000  a.u.
     unit-cell volume          =    8000.0000 (a.u.)^3
     number of atoms/cell      =            3
     number of atomic types    =            2
     number of electrons       =         8.00
     number of Kohn-Sham states=            4
     kinetic-energy cutoff     =      30.0000  Ry
     charge density cutoff     =     300.0000  Ry
     convergence threshold     =      5.0E-03
     mixing beta               =       0.7000
     number of iterations used =            8  plain     mixing
     Exchange-correlation      =  SLA  PW   PBE  PBE ( 1  4  3  4 0 0)


     Environ Module
     ==============

     Plese cite
         O. Andreussi, I. Dabo and N. Marzari, J. Chem. Phys. 136, 064102 (2012)         
     in publications or presentations arising from this work.

     compensation onset threshold      =               0.1000E+03 
     switching function adopted        =                     SCCS 
     density limit for vacuum region   =               0.5000E-02 
     density limit for bulk solvent    =               0.1000E-03 
     static permittivity               =                   100.00 
     epsilon calculation mode          =               electronic 

     Electrostatic Setup
     -------------------
     electrostatic problem to solve    = generalized              
     numerical solver adopted          = cg                       
     type of auxiliary density adopted = none                     
     type of core tool for poisson     = fft                      
     type of core tool for s(r) deriv  = analytic                 



     celldm(1)=  20.000000  celldm(2)=   0.000000  celldm(3)=   0.000000
     celldm(4)=   0.000000  celldm(5)=   0.000000  celldm(6)=   0.000000

     crystal axes: (cart. coord. in units of alat)
               a(1) = (   1.000000   0.000000   0.000000 )  
               a(2) = (   0.000000   1.000000   0.000000 )  
               a(3) = (   0.000000   0.000000   1.000000 )  

     reciprocal axes: (cart. coord. in units 2 pi/alat)
               b(1) = (  1.000000  0.000000  0.000000 )  
               b(2) = (  0.000000  1.000000  0.000000 )  
               b(3) = (  0.000000  0.000000  1.000000 )  


     PseudoPot. # 1 for H  read from file:
     /Users/oliviero/PWSCF/espresso-6.1-Environ-1.0/Environ/tests/../..//pseudo/H.pbe-rrkjus.UPF
     MD5 check sum: 7cc9d459525c9a0585f487a71c3c9563
     Pseudo is Ultrasoft, Zval =  1.0
     Generated by new atomic code, or converted to UPF format
     Using radial grid of 1061 points,  2 beta functions with: 
                l(1) =   0
                l(2) =   0
     Q(r) pseudized with 0 coefficients 


     PseudoPot. # 2 for O  read from file:
     /Users/oliviero/PWSCF/espresso-6.1-Environ-1.0/Environ/tests/../..//pseudo/O.pbe-rrkjus.UPF
     MD5 check sum: 390ba29e75625707450f3bd3f0eb6be9
     Pseudo is Ultrasoft, Zval =  6.0
     Generated by new atomic code, or converted to UPF format
     Using radial grid of 1269 points,  4 beta functions with: 
                l(1) =   0
                l(2) =   0
                l(3) =   1
                l(4) =   1
     Q(r) pseudized with 0 coefficients 


     atomic species   valence    mass     pseudopotential
        H              1.00     1.00000     H ( 1.00)
        O              6.00    16.00000     O ( 1.00)

     No symmetry found



   Cartesian axes

     site n.     atom                  positions (alat units)
         1           O   tau(   1) = (   0.5895000   0.6025000   0.5750000  )
         2           H   tau(   2) = (   0.6725000   0.5610000   0.5750000  )
         3           H   tau(   3) = (   0.5280000   0.5330000   0.5750000  )

     number of k points=     1
                       cart. coord. in units 2pi/alat
        k(    1) = (   0.0000000   0.0000000   0.0000000), wk =   2.0000000

     Dense  grid:   350738 G-vectors     FFT dimensions: ( 120, 120, 120)

     Smooth grid:    88755 G-vectors     FFT dimensions: (  72,  72,  72)

     Estimated max dynamical RAM per process >     270.62MB

     Initial potential from superposition of free atoms
     Check: negative starting charge=   -0.000775

     starting charge    7.80759, renormalised to    8.00000

     negative rho (up, down):  7.936E-04 0.000E+00
     Starting wfc are    6 randomized atomic wfcs

     total cpu time spent up to now is       12.0 secs

     Self-consistent Calculation

     iteration #  1     ecut=    30.00 Ry     beta=0.70
     Davidson diagonalization with overlap
     ethr =  1.00E-02,  avg # of iterations =  2.0

     negative rho (up, down):  2.595E-04 0.000E+00

     add environment contribution to local potential
     polarization accuracy = 4.4E-05, # of iterations =  10

     total cpu time spent up to now is       18.9 secs

     total energy              =     -34.06236055 Ry
     Harris-Foulkes estimate   =     -34.58697711 Ry
     estimated scf accuracy    <       0.68458994 Ry
     electrostatic embedding   =       0.00000000 Ry
     correction to one-el term =       0.00000000 Ry

     iteration #  2     ecut=    30.00 Ry     beta=0.70
     Davidson diagonalization with overlap
     ethr =  8.56E-03,  avg # of iterations =  2.0

     negative rho (up, down):  2.656E-03 0.000E+00

     add environment contribution to local potential
     polarization accuracy = 1.2E-05, # of iterations =  11

     total cpu time spent up to now is       26.5 secs

     total energy              =     -34.21517769 Ry
     Harris-Foulkes estimate   =     -33.94010648 Ry
     estimated scf accuracy    <       0.35517680 Ry
     electrostatic embedding   =      -0.03412249 Ry
     correction to one-el term =      -0.42401293 Ry

     iteration #  3     ecut=    30.00 Ry     beta=0.70
     Davidson diagonalization with overlap
     ethr =  4.44E-03,  avg # of iterations =  2.0

     negative rho (up, down):  2.205E-04 0.000E+00

     add environment contribution to local potential
     polarization accuracy = 3.7E-05, # of iterations =  11

     total cpu time spent up to now is       33.8 secs

     total energy              =     -34.28765244 Ry
     Harris-Foulkes estimate   =     -33.97794108 Ry
     estimated scf accuracy    <       0.01537371 Ry
     electrostatic embedding   =      -0.02912296 Ry
     correction to one-el term =      -0.28923673 Ry

     iteration #  4     ecut=    30.00 Ry     beta=0.70
     Davidson diagonalization with overlap
     ethr =  1.92E-04,  avg # of iterations =  2.0

     negative rho (up, down):  2.142E-04 0.000E+00

     total cpu time spent up to now is       37.4 secs

     End of self-consistent calculation

          k = 0.0000 0.0000 0.0000 ( 11060 PWs)   bands (ev):

   -24.5417 -12.3152  -8.7691  -6.7994

     highest occupied level (ev):    -6.7994

!    total energy              =     -34.29562483 Ry
     Harris-Foulkes estimate   =     -34.17196305 Ry
     estimated scf accuracy    <       0.00017517 Ry

     The total energy is the sum of the following terms:

     one-electron contribution =     -63.79215108 Ry
     hartree contribution      =      33.45947774 Ry
     xc contribution           =      -8.39660820 Ry
     ewald contribution        =       4.55735774 Ry
     electrostatic embedding   =      -0.03350890 Ry
     correction to one-el term =      -0.09019214 Ry

     convergence has been achieved in   4 iterations

     Forces acting on atoms (cartesian axes, Ry/au):

     atom    1 type  2   force =     0.00237664   -0.01238950   -0.00000596
     atom    2 type  1   force =    -0.00872078    0.00471266    0.00000269
     atom    3 type  1   force =     0.00634414    0.00767683    0.00000327

     Total force =     0.018884     Total SCF correction =     0.022995
     SCF correction compared to forces is large: reduce conv_thr to get better values

     Writing output data file pwscf.save

     init_run     :     10.82s CPU     11.82s WALL (       1 calls)
     electrons    :     22.60s CPU     25.67s WALL (       1 calls)
     forces       :      1.76s CPU      2.03s WALL (       1 calls)

     Called by init_run:
     wfcinit      :      0.07s CPU      0.07s WALL (       1 calls)
     potinit      :      1.74s CPU      1.92s WALL (       1 calls)

     Called by electrons:
     c_bands      :      0.51s CPU      0.55s WALL (       4 calls)
     sum_band     :      2.97s CPU      3.14s WALL (       4 calls)
     v_of_rho     :      6.15s CPU      6.79s WALL (       5 calls)
     newd         :      1.54s CPU      2.16s WALL (       5 calls)
     mix_rho      :      0.47s CPU      0.55s WALL (       4 calls)

     Called by c_bands:
     init_us_2    :      0.04s CPU      0.06s WALL (       9 calls)
     regterg      :      0.48s CPU      0.50s WALL (       4 calls)

     Called by sum_band:
     sum_band:bec :      0.00s CPU      0.00s WALL (       4 calls)
     addusdens    :      1.94s CPU      2.05s WALL (       4 calls)

     Called by *egterg:
     h_psi        :      0.48s CPU      0.49s WALL (      13 calls)
     s_psi        :      0.01s CPU      0.01s WALL (      13 calls)
     g_psi        :      0.01s CPU      0.01s WALL (       8 calls)
     rdiaghg      :      0.00s CPU      0.00s WALL (      12 calls)

     Called by h_psi:
     h_psi:pot    :      0.48s CPU      0.49s WALL (      13 calls)
     h_psi:calbec :      0.01s CPU      0.01s WALL (      13 calls)
     vloc_psi     :      0.46s CPU      0.48s WALL (      13 calls)
     add_vuspsi   :      0.01s CPU      0.00s WALL (      13 calls)

     General routines
     calbec       :      0.01s CPU      0.01s WALL (      21 calls)
     fft          :     11.59s CPU     11.95s WALL (     193 calls)
     ffts         :      0.10s CPU      0.10s WALL (       9 calls)
     fftw         :      0.38s CPU      0.39s WALL (      62 calls)
     interpolate  :      0.76s CPU      0.87s WALL (       9 calls)
     davcio       :      0.00s CPU      0.00s WALL (       1 calls)


     Environ routines
     calc_eelect  :      0.02s CPU      0.02s WALL (       8 calls)
     calc_velect  :      7.45s CPU      8.57s WALL (       6 calls)
     dielectric   :      0.84s CPU      0.97s WALL (       5 calls)
     calc_felect  :      0.69s CPU      0.79s WALL (       1 calls)

     PWSCF        :    35.38s CPU        39.92s WALL


   This run was terminated on:  12:21:35   4Oct2017            

=------------------------------------------------------------------------------=
   JOB DONE.
=------------------------------------------------------------------------------=

%%%% IONS %%%%%%%%%%%%%%%%%%%%%%%%%%%%%%%%%%%%%%%%%%%%%%%%%%%%%%%%%%%%%%%%%%%%%%
 number of ions             =          3
 ionic center of charge     =      0.5921875     0.5886250     0.5750000
 total ionic charge         =     -8.0000000
 ionic dipole               =      0.0000000     0.0000000     0.0000000
 ionic quadrupole (pc)      =     -4.2453875    -2.0049500     0.0000000
 ionic quadrupole (gauss)   =     -5.2453875    -3.0049500    -1.0000000
 ion   1 type =  2 coordinates =     11.7900000    12.0500000    11.5000000
 ion   2 type =  1 coordinates =     13.4500000    11.2200000    11.5000000
 ion   3 type =  1 coordinates =     10.5600000    10.6600000    11.5000000

%%%% SYSTEM %%%%%%%%%%%%%%%%%%%%%%%%%%%%%%%%%%%%%%%%%%%%%%%%%%%%%%%%%%%%%%%%%%%%
 system is built from all present ionic types
 system defined dimension   =  0 
 system defined axis        =  3 
 system center              =      0.5921875     0.5886250     0.5750000 
 system width               =      0.1209428 

%%%% ELECTRONS %%%%%%%%%%%%%%%%%%%%%%%%%%%%%%%%%%%%%%%%%%%%%%%%%%%%%%%%%%%%%%%%%
 number of electrons        =          8
 total electronic charge    =      8.0000000
 number of spin components  =  1

%%%% BOUNDARY %%%%%%%%%%%%%%%%%%%%%%%%%%%%%%%%%%%%%%%%%%%%%%%%%%%%%%%%%%%%%%%%%%
 boundary mode              = electronic           
 boundary is built as a function of a smooth density
 function type              =  1 
 using the optimal SCCS function with parameters 
 rhomax                     =      0.0050000 
 rhomin                     =      0.0001000 

%%%% DIELECTRIC %%%%%%%%%%%%%%%%%%%%%%%%%%%%%%%%%%%%%%%%%%%%%%%%%%%%%%%%%%%%%%%%%
 dielectric build on homogeneous background
 environment bulk permitt.  =    100.0000000 
 dielectric flags
 need gradient              =  F 
 need factor depend. sqrt   =  T 
 need gradient of logarithm =  T 

%%%% COMPUTE ELECTROSTATIC POTENTIAL %%%%%%%%%%%%%%%%%%%%%%%%%%%%%%%%%%%%%%%%%%%
 Iteration #          1
  pAp =  26.724011334975515  rzold =  26.16220247367455  alpha =  0.9789773752802714
 delta_qm =   0.832724E-02 delta_en =   0.119825E+03 tol =   0.100000E-03
 Iteration #          2
  pAp =  26.707037563389875  rzold =  3.369321182604648  alpha =  0.12615855182767738
 delta_qm =   0.276282E-02 delta_en =   0.131901E+02 tol =   0.100000E-03
 Iteration #          3
  pAp =  1.660848711181897  rzold =  0.23569829128796896  alpha =  0.14191436564998192
 delta_qm =   0.788670E-03 delta_en =   0.107482E+01 tol =   0.100000E-03
 Iteration #          4
  pAp =  0.03307114949229045  rzold =  0.008575399290711414  alpha =  0.2593015187666976
 delta_qm =   0.436589E-03 delta_en =   0.329375E+00 tol =   0.100000E-03
 Iteration #          5
  pAp =  0.0012080552383062554  rzold =  0.0007160170679438862  alpha =  0.5927022583402498
 delta_qm =   0.126505E-03 delta_en =   0.276541E-01 tol =   0.100000E-03
 Iteration #          6
  pAp =  0.0002196878463506331  rzold =  0.00008600578801401762  alpha =  0.3914908787295769
 delta_qm =   0.716146E-04 delta_en =   0.886232E-02 tol =   0.100000E-03
 Iteration #          7
  pAp =  0.000006787982503917407  rzold =  0.000007230075961584196  alpha =  1.065128844603187
 delta_qm =   0.330558E-04 delta_en =   0.188816E-02 tol =   0.100000E-03
 Iteration #          8
  pAp =  0.00000969493497315803  rzold =  0.0000042656396193120725  alpha =  0.4399864084825916
 delta_qm =   0.176526E-04 delta_en =   0.538472E-03 tol =   0.100000E-03
 Iteration #          9
  pAp =  0.000006747667008991094  rzold =  0.000001942166141500256  alpha =  0.2878277986913654
 delta_qm =   0.957677E-05 delta_en =   0.158483E-03 tol =   0.100000E-03
 Iteration #         10
  pAp =  0.000001207006713906286  rzold =  3.878621633882048E-7  alpha =  0.3213421755815677
 delta_qm =   0.502009E-05 delta_en =   0.435479E-04 tol =   0.100000E-03
 Charges are converged, EXIT

%%%% ELECTRONS %%%%%%%%%%%%%%%%%%%%%%%%%%%%%%%%%%%%%%%%%%%%%%%%%%%%%%%%%%%%%%%%%
 number of electrons        =          8
 total electronic charge    =      8.0000000
 number of spin components  =  1

%%%% BOUNDARY %%%%%%%%%%%%%%%%%%%%%%%%%%%%%%%%%%%%%%%%%%%%%%%%%%%%%%%%%%%%%%%%%%
 boundary mode              = electronic           
 boundary is built as a function of a smooth density
 function type              =  1 
 using the optimal SCCS function with parameters 
 rhomax                     =      0.0050000 
 rhomin                     =      0.0001000 

%%%% DIELECTRIC %%%%%%%%%%%%%%%%%%%%%%%%%%%%%%%%%%%%%%%%%%%%%%%%%%%%%%%%%%%%%%%%%
 dielectric build on homogeneous background
 environment bulk permitt.  =    100.0000000 
 dielectric flags
 need gradient              =  F 
 need factor depend. sqrt   =  T 
 need gradient of logarithm =  T 

%%%% COMPUTE ELECTROSTATIC POTENTIAL %%%%%%%%%%%%%%%%%%%%%%%%%%%%%%%%%%%%%%%%%%%
 Warning: bad guess with residual norm =   0.454753E+02, reset to no guess
 Iteration #          1
  pAp =  28.94267535319241  rzold =  28.52847511100967  alpha =  0.9856889441930234
 delta_qm =   0.102049E-01 delta_en =   0.179953E+03 tol =   0.100000E-03
 Iteration #          2
  pAp =  19.85422515521996  rzold =  2.5086195226775616  alpha =  0.12635192273005977
 delta_qm =   0.321024E-02 delta_en =   0.178082E+02 tol =   0.100000E-03
 Iteration #          3
  pAp =  1.1588775781579477  rzold =  0.1651370646943966  alpha =  0.14249741975065588
 delta_qm =   0.100495E-02 delta_en =   0.174515E+01 tol =   0.100000E-03
 Iteration #          4
  pAp =  0.029552604974799383  rzold =  0.007208660100311118  alpha =  0.24392638504992076
 delta_qm =   0.590669E-03 delta_en =   0.602882E+00 tol =   0.100000E-03
 Iteration #          5
  pAp =  0.0009750245490109473  rzold =  0.0005918973762979194  alpha =  0.6070589472832584
 delta_qm =   0.208461E-03 delta_en =   0.750922E-01 tol =   0.100000E-03
 Iteration #          6
  pAp =  0.00017902374022669718  rzold =  0.00006809983212656013  alpha =  0.38039553882812155
 delta_qm =   0.146213E-03 delta_en =   0.369415E-01 tol =   0.100000E-03
 Iteration #          7
  pAp =  0.00001165816946949297  rzold =  0.000010336624437253704  alpha =  0.8866421494645899
 delta_qm =   0.749987E-04 delta_en =   0.971967E-02 tol =   0.100000E-03
 Iteration #          8
  pAp =  0.000018803958402770702  rzold =  0.000008791664258261446  alpha =  0.4675432730677612
 delta_qm =   0.282832E-04 delta_en =   0.138229E-02 tol =   0.100000E-03
 Iteration #          9
  pAp =  0.000003321451334345003  rzold =  0.0000014599994741892786  alpha =  0.4395667216594018
 delta_qm =   0.145833E-04 delta_en =   0.367500E-03 tol =   0.100000E-03
 Iteration #         10
  pAp =  0.0000024387275519202714  rzold =  5.495477270369738E-7  alpha =  0.2253419930423372
 delta_qm =   0.919216E-05 delta_en =   0.146009E-03 tol =   0.100000E-03
 Iteration #         11
  pAp =  1.502926561283805E-7  rzold =  9.235070961611609E-8  alpha =  0.6144725364174135
 delta_qm =   0.268041E-05 delta_en =   0.124150E-04 tol =   0.100000E-03
 Charges are converged, EXIT

%%%% ELECTRONS %%%%%%%%%%%%%%%%%%%%%%%%%%%%%%%%%%%%%%%%%%%%%%%%%%%%%%%%%%%%%%%%%
 number of electrons        =          8
 total electronic charge    =      8.0000000
 number of spin components  =  1

%%%% BOUNDARY %%%%%%%%%%%%%%%%%%%%%%%%%%%%%%%%%%%%%%%%%%%%%%%%%%%%%%%%%%%%%%%%%%
 boundary mode              = electronic           
 boundary is built as a function of a smooth density
 function type              =  1 
 using the optimal SCCS function with parameters 
 rhomax                     =      0.0050000 
 rhomin                     =      0.0001000 

%%%% DIELECTRIC %%%%%%%%%%%%%%%%%%%%%%%%%%%%%%%%%%%%%%%%%%%%%%%%%%%%%%%%%%%%%%%%%
 dielectric build on homogeneous background
 environment bulk permitt.  =    100.0000000 
 dielectric flags
 need gradient              =  F 
 need factor depend. sqrt   =  T 
 need gradient of logarithm =  T 

%%%% COMPUTE ELECTROSTATIC POTENTIAL %%%%%%%%%%%%%%%%%%%%%%%%%%%%%%%%%%%%%%%%%%%
 Warning: bad guess with residual norm =   0.265221E+02, reset to no guess
 Iteration #          1
  pAp =  28.83828850486164  rzold =  28.404144594018263  alpha =  0.9849455729395942
 delta_qm =   0.106347E-01 delta_en =   0.195432E+03 tol =   0.100000E-03
 Iteration #          2
  pAp =  19.47230765970628  rzold =  2.556589733504519  alpha =  0.1312936185162495
 delta_qm =   0.257414E-02 delta_en =   0.114501E+02 tol =   0.100000E-03
 Iteration #          3
  pAp =  1.5327963462996155  rzold =  0.17744973016513452  alpha =  0.11576862809826169
 delta_qm =   0.921762E-03 delta_en =   0.146819E+01 tol =   0.100000E-03
 Iteration #          4
  pAp =  0.05371373282998262  rzold =  0.011040292048448152  alpha =  0.20553946759562278
 delta_qm =   0.538552E-03 delta_en =   0.501186E+00 tol =   0.100000E-03
 Iteration #          5
  pAp =  0.0011898759291706798  rzold =  0.000700056401704627  alpha =  0.588344031963528
 delta_qm =   0.190545E-03 delta_en =   0.627392E-01 tol =   0.100000E-03
 Iteration #          6
  pAp =  0.0004247289036997684  rzold =  0.00014030202710182951  alpha =  0.33033312750715443
 delta_qm =   0.132111E-03 delta_en =   0.301592E-01 tol =   0.100000E-03
 Iteration #          7
  pAp =  0.00002156563715083107  rzold =  0.000013879482154912083  alpha =  0.6435924919740761
 delta_qm =   0.898076E-04 delta_en =   0.139370E-01 tol =   0.100000E-03
 Iteration #          8
  pAp =  0.000019792718618404464  rzold =  0.00001242846380332457  alpha =  0.6279311115840264
 delta_qm =   0.350835E-04 delta_en =   0.212692E-02 tol =   0.100000E-03
 Iteration #          9
  pAp =  0.000011670707080025619  rzold =  0.000004038129589493816  alpha =  0.3460055643419466
 delta_qm =   0.226044E-04 delta_en =   0.882935E-03 tol =   0.100000E-03
 Iteration #         10
  pAp =  0.000009128577112495697  rzold =  0.0000020632921217545055  alpha =  0.22602560030195265
 delta_qm =   0.148772E-04 delta_en =   0.382459E-03 tol =   0.100000E-03
 Iteration #         11
  pAp =  3.0443194261258565E-7  rzold =  2.1553592771362526E-7  alpha =  0.7079937994151692
 delta_qm =   0.463536E-05 delta_en =   0.371289E-04 tol =   0.100000E-03
 Charges are converged, EXIT

%%%% ELECTRONS %%%%%%%%%%%%%%%%%%%%%%%%%%%%%%%%%%%%%%%%%%%%%%%%%%%%%%%%%%%%%%%%%
 number of electrons        =          8
 total electronic charge    =      8.0000000
 number of spin components  =  1

%%%% BOUNDARY %%%%%%%%%%%%%%%%%%%%%%%%%%%%%%%%%%%%%%%%%%%%%%%%%%%%%%%%%%%%%%%%%%
 boundary mode              = electronic           
 boundary is built as a function of a smooth density
 function type              =  1 
 using the optimal SCCS function with parameters 
 rhomax                     =      0.0050000 
 rhomin                     =      0.0001000 

%%%% DIELECTRIC %%%%%%%%%%%%%%%%%%%%%%%%%%%%%%%%%%%%%%%%%%%%%%%%%%%%%%%%%%%%%%%%%
 dielectric build on homogeneous background
 environment bulk permitt.  =    100.0000000 
 dielectric flags
 need gradient              =  F 
 need factor depend. sqrt   =  T 
 need gradient of logarithm =  T 
