
     Program PWSCF v.6.3MaX starts on 21Apr2019 at 23:13:50 

     This program is part of the open-source Quantum ESPRESSO suite
     for quantum simulation of materials; please cite
         "P. Giannozzi et al., J. Phys.:Condens. Matter 21 395502 (2009);
         "P. Giannozzi et al., J. Phys.:Condens. Matter 29 465901 (2017);
          URL http://www.quantum-espresso.org", 
     in publications or presentations arising from this work. More details at
     http://www.quantum-espresso.org/quote

     Parallel version (MPI), running on     1 processors

     MPI processes distributed on     1 nodes
     Reading input from neutral.in

     Current dimensions of program PWSCF are:
     Max number of different atomic species (ntypx) = 10
     Max number of k-points (npk) =  40000
     Max angular momentum in pseudopotentials (lmaxx) =  3
               file H.pbe-rrkjus.UPF: wavefunction(s)  1S renormalized
               file O.pbe-rrkjus.UPF: wavefunction(s)  2S renormalized

     gamma-point specific algorithms are used

     Subspace diagonalization in iterative solution of the eigenvalue problem:
     a serial algorithm will be used

 
     G-vector sticks info
     --------------------
     sticks:   dense  smooth     PW     G-vecs:    dense   smooth      PW
     Sum        9549    3809    949               701475   177509   22119
 


     bravais-lattice index     =            1
     lattice parameter (alat)  =      20.0000  a.u.
     unit-cell volume          =    8000.0000 (a.u.)^3
     number of atoms/cell      =            3
     number of atomic types    =            2
     number of electrons       =         8.00
     number of Kohn-Sham states=            4
     kinetic-energy cutoff     =      30.0000  Ry
     charge density cutoff     =     300.0000  Ry
     convergence threshold     =      5.0E-03
     mixing beta               =       0.7000
     number of iterations used =            8  plain     mixing
     Exchange-correlation      = SLA PW PBE PBE ( 1  4  3  4 0 0)
 

     Environ Module
     ==============

     Plese cite
         O. Andreussi, I. Dabo and N. Marzari, J. Chem. Phys. 136, 064102 (2012)         
     in publications or presentations arising from this work.

     compensation onset threshold      =               0.1000E+03 
     static permittivity               =                   100.00 
     epsilon calculation mode          =                    ionic 

     Electrostatic Setup
     -------------------
     electrostatic problem to solve    = generalized              
     numerical solver adopted          = cg                       
     type of auxiliary density adopted = none                     
     type of core tool for poisson     = fft                      
     type of core tool for s(r) deriv  = analytic                 



     celldm(1)=  20.000000  celldm(2)=   0.000000  celldm(3)=   0.000000
     celldm(4)=   0.000000  celldm(5)=   0.000000  celldm(6)=   0.000000

     crystal axes: (cart. coord. in units of alat)
               a(1) = (   1.000000   0.000000   0.000000 )  
               a(2) = (   0.000000   1.000000   0.000000 )  
               a(3) = (   0.000000   0.000000   1.000000 )  

     reciprocal axes: (cart. coord. in units 2 pi/alat)
               b(1) = (  1.000000  0.000000  0.000000 )  
               b(2) = (  0.000000  1.000000  0.000000 )  
               b(3) = (  0.000000  0.000000  1.000000 )  


     PseudoPot. # 1 for H  read from file:
     /home/fnattino/Programs/quantumespresso/q-e-qe-6.3-develop/Environ/tests/../..//pseudo/H.pbe-rrkjus.UPF
     MD5 check sum: 2d52a7f45632fd764c17cc6affed14c8
     Pseudo is Ultrasoft, Zval =  1.0
     Generated by new atomic code, or converted to UPF format
     Using radial grid of 1061 points,  2 beta functions with: 
                l(1) =   0
                l(2) =   0
     Q(r) pseudized with 0 coefficients 


     PseudoPot. # 2 for O  read from file:
     /home/fnattino/Programs/quantumespresso/q-e-qe-6.3-develop/Environ/tests/../..//pseudo/O.pbe-rrkjus.UPF
     MD5 check sum: fadcf19ee70a498d3030e2e79cf929a4
     Pseudo is Ultrasoft, Zval =  6.0
     Generated by new atomic code, or converted to UPF format
     Using radial grid of 1269 points,  4 beta functions with: 
                l(1) =   0
                l(2) =   0
                l(3) =   1
                l(4) =   1
     Q(r) pseudized with 0 coefficients 


     atomic species   valence    mass     pseudopotential
        H              1.00     1.00000     H ( 1.00)
        O              6.00    16.00000     O ( 1.00)

     No symmetry found



   Cartesian axes

     site n.     atom                  positions (alat units)
         1           O   tau(   1) = (   0.5895000   0.6025000   0.5750000  )
         2           H   tau(   2) = (   0.6725000   0.5610000   0.5750000  )
         3           H   tau(   3) = (   0.5280000   0.5330000   0.5750000  )

     number of k points=     1
                       cart. coord. in units 2pi/alat
        k(    1) = (   0.0000000   0.0000000   0.0000000), wk =   2.0000000

     Dense  grid:   350738 G-vectors     FFT dimensions: ( 120, 120, 120)

     Smooth grid:    88755 G-vectors     FFT dimensions: (  72,  72,  72)

     Estimated max dynamical RAM per process >     548.70 MB

     Initial potential from superposition of free atoms
     Check: negative starting charge=   -0.000775

     starting charge    7.80759, renormalised to    8.00000

     negative rho (up, down):  7.936E-04 0.000E+00
     Starting wfcs are    6 randomized atomic wfcs

     total cpu time spent up to now is        4.7 secs

     Self-consistent Calculation

     iteration #  1     ecut=    30.00 Ry     beta= 0.70
     Davidson diagonalization with overlap
     ethr =  1.00E-02,  avg # of iterations =  2.0

     negative rho (up, down):  2.595E-04 0.000E+00

     add environment contribution to local potential
     polarization accuracy = 5.5E-06, # of iterations =  11

     total cpu time spent up to now is        7.1 secs

     total energy              =     -34.06237118 Ry
     Harris-Foulkes estimate   =     -34.58698941 Ry
     estimated scf accuracy    <       0.68459185 Ry
     electrostatic embedding   =       0.00000000 Ry
     correction to one-el term =       0.00000000 Ry

     iteration #  2     ecut=    30.00 Ry     beta= 0.70
     Davidson diagonalization with overlap
     ethr =  8.56E-03,  avg # of iterations =  2.0

     negative rho (up, down):  2.759E-03 0.000E+00

     add environment contribution to local potential
     polarization accuracy = 6.0E-06, # of iterations =  11

     total cpu time spent up to now is        9.7 secs

     total energy              =     -34.21448118 Ry
     Harris-Foulkes estimate   =     -33.92301977 Ry
     estimated scf accuracy    <       0.37529875 Ry
     electrostatic embedding   =      -0.05053514 Ry
     correction to one-el term =      -0.43363623 Ry

     iteration #  3     ecut=    30.00 Ry     beta= 0.70
     Davidson diagonalization with overlap
     ethr =  4.69E-03,  avg # of iterations =  2.0

     negative rho (up, down):  2.250E-04 0.000E+00

     add environment contribution to local potential
     polarization accuracy = 6.4E-06, # of iterations =  11

     total cpu time spent up to now is       12.1 secs

     total energy              =     -34.30137450 Ry
     Harris-Foulkes estimate   =     -33.90809225 Ry
     estimated scf accuracy    <       0.01713796 Ry
     electrostatic embedding   =      -0.04208481 Ry
     correction to one-el term =      -0.36076096 Ry

     iteration #  4     ecut=    30.00 Ry     beta= 0.70
     Davidson diagonalization with overlap
     ethr =  2.14E-04,  avg # of iterations =  2.0

     negative rho (up, down):  2.169E-04 0.000E+00

     the potential shift due to the Gaussian-smeared nuclei is    -0.0214 ev

     total cpu time spent up to now is       13.0 secs

     End of self-consistent calculation

          k = 0.0000 0.0000 0.0000 ( 11060 PWs)   bands (ev):

   -24.7767 -12.5197  -9.1211  -7.1354

     highest occupied level (ev):    -7.1354

!    total energy              =     -34.30872707 Ry
     Harris-Foulkes estimate   =     -34.26289661 Ry
     estimated scf accuracy    <       0.00017562 Ry

     The total energy is the sum of the following terms:

     one-electron contribution =     -63.88578077 Ry
     hartree contribution      =      33.46100451 Ry
     xc contribution           =      -8.39545451 Ry
     ewald contribution        =       4.55735774 Ry
     electrostatic embedding   =      -0.04697222 Ry
     correction to one-el term =       0.00111818 Ry

     convergence has been achieved in   4 iterations

     Forces acting on atoms (cartesian axes, Ry/au):

     atom    1 type  2   force =     0.00023233   -0.00151873   -0.00000089
     atom    2 type  1   force =    -0.00363318    0.00004995    0.00000021
     atom    3 type  1   force =     0.00340085    0.00146878    0.00000068

     Total force =     0.005412     Total SCF correction =     0.031152
     SCF correction compared to forces is large: reduce conv_thr to get better values

     Writing output data file pwscf.save/
 
     init_run     :      3.84s CPU      4.30s WALL (       1 calls)
     electrons    :      6.92s CPU      8.32s WALL (       1 calls)
     forces       :      2.03s CPU      2.20s WALL (       1 calls)

     Called by init_run:
     wfcinit      :      0.04s CPU      0.04s WALL (       1 calls)
     potinit      :      0.77s CPU      0.86s WALL (       1 calls)
     hinit0       :      2.75s CPU      2.94s WALL (       1 calls)

     Called by electrons:
     c_bands      :      0.26s CPU      0.29s WALL (       4 calls)
     sum_band     :      0.74s CPU      0.92s WALL (       4 calls)
     v_of_rho     :      2.20s CPU      2.43s WALL (       5 calls)
     newd         :      0.60s CPU      0.95s WALL (       5 calls)
     mix_rho      :      0.17s CPU      0.18s WALL (       4 calls)

     Called by c_bands:
     init_us_2    :      0.01s CPU      0.02s WALL (       9 calls)
     regterg      :      0.25s CPU      0.27s WALL (       4 calls)

     Called by sum_band:
     sum_band:bec :      0.00s CPU      0.00s WALL (       4 calls)
     addusdens    :      0.55s CPU      0.74s WALL (       4 calls)

     Called by *egterg:
     h_psi        :      0.26s CPU      0.28s WALL (      13 calls)
     s_psi        :      0.00s CPU      0.00s WALL (      13 calls)
     g_psi        :      0.00s CPU      0.00s WALL (       8 calls)
     rdiaghg      :      0.00s CPU      0.00s WALL (      12 calls)

     Called by h_psi:
     h_psi:pot    :      0.26s CPU      0.28s WALL (      13 calls)
     h_psi:calbec :      0.00s CPU      0.00s WALL (      13 calls)
     vloc_psi     :      0.26s CPU      0.28s WALL (      13 calls)
     add_vuspsi   :      0.00s CPU      0.00s WALL (      13 calls)

     General routines
     calbec       :      0.00s CPU      0.01s WALL (      21 calls)
     fft          :      2.65s CPU      2.69s WALL (     149 calls)
     ffts         :      0.03s CPU      0.03s WALL (       9 calls)
     fftw         :      0.24s CPU      0.25s WALL (      62 calls)
     interpolate  :      0.13s CPU      0.15s WALL (       5 calls)
 
     Parallel routines
 
     Environ routines
     calc_eelect  :      0.01s CPU      0.01s WALL (       8 calls)
     calc_velect  :      2.93s CPU      3.58s WALL (       6 calls)
     dielectric   :      0.11s CPU      0.12s WALL (       2 calls)
     calc_felect  :      0.05s CPU      0.05s WALL (       1 calls)
 
     PWSCF        :    13.16s CPU        15.23s WALL

 
   This run was terminated on:  23:14: 5  21Apr2019            

=------------------------------------------------------------------------------=
   JOB DONE.
=------------------------------------------------------------------------------=

%%%% IONS %%%%%%%%%%%%%%%%%%%%%%%%%%%%%%%%%%%%%%%%%%%%%%%%%%%%%%%%%%%%%%%%%%%%%%
 number of ions             =          3
 ionic center of charge     =      0.5921875     0.5886250     0.5750000
 total ionic charge         =     -8.0000000
 ionic dipole               =      0.0000000     0.0000000     0.0000000
 ionic quadrupole (pc)      =     -4.2453875    -2.0049500     0.0000000
 ionic quadrupole (gauss)   =     -5.2453875    -3.0049500    -1.0000000
 ion   1 type =  2 coordinates =     11.7900000    12.0500000    11.5000000
 ion   2 type =  1 coordinates =     13.4500000    11.2200000    11.5000000
 ion   3 type =  1 coordinates =     10.5600000    10.6600000    11.5000000

%%%% SYSTEM %%%%%%%%%%%%%%%%%%%%%%%%%%%%%%%%%%%%%%%%%%%%%%%%%%%%%%%%%%%%%%%%%%%%
 system is built from all present ionic types
 system defined dimension   =  0 
 system defined axis        =  3 
 system center              =      0.5921875     0.5886250     0.5750000 
 system width               =      0.0849363 

%%%% BOUNDARY %%%%%%%%%%%%%%%%%%%%%%%%%%%%%%%%%%%%%%%%%%%%%%%%%%%%%%%%%%%%%%%%%%
 boundary label             = solvent              
 boundary mode              = ionic                
 boundary is built from soft-spheres centered on ionic positions
 solvent-dependent scaling  =      1.0000000 
 softness parameter         =      0.5000000 
 volume of the QM region    =    211.8920528 
 surface of the QM region   =    173.6178424 

%%%% DIELECTRIC %%%%%%%%%%%%%%%%%%%%%%%%%%%%%%%%%%%%%%%%%%%%%%%%%%%%%%%%%%%%%%%%%
 dielectric build on homogeneous background
 environment bulk permitt.  =    100.0000000 
 dielectric flags
 need gradient              =  F 
 need factor depend. sqrt   =  T 
 total dielectric charge    =      0.0000000

%%%% ELECTRONS %%%%%%%%%%%%%%%%%%%%%%%%%%%%%%%%%%%%%%%%%%%%%%%%%%%%%%%%%%%%%%%%%
 number of electrons        =          8
 total electronic charge    =      8.0000000
 number of spin components  =  1

%%%% DENSITY %%%%%%%%%%%%%%%%%%%%%%%%%%%%%%%%%%%%%%%%%%%%%%%%%%%%%%%%%%%%%%%%%%%
 density label              = vreference                                                                      
 integral of density        =      0.000000000    

%%%% DENSITY %%%%%%%%%%%%%%%%%%%%%%%%%%%%%%%%%%%%%%%%%%%%%%%%%%%%%%%%%%%%%%%%%%%
 density label              = velectrostatic                                                                  
 integral of density        =      0.000000000    

%%%% CHARGES %%%%%%%%%%%%%%%%%%%%%%%%%%%%%%%%%%%%%%%%%%%%%%%%%%%%%%%%%%%%%%%%%%%
 total number of charges    =         11
 total charge               =     -0.0000000

%%%% ELECTRONS %%%%%%%%%%%%%%%%%%%%%%%%%%%%%%%%%%%%%%%%%%%%%%%%%%%%%%%%%%%%%%%%%
 number of electrons        =          8
 total electronic charge    =      8.0000000
 number of spin components  =  1

%%%% DENSITY %%%%%%%%%%%%%%%%%%%%%%%%%%%%%%%%%%%%%%%%%%%%%%%%%%%%%%%%%%%%%%%%%%%
 density label              = vreference                                                                      
 integral of density        =     0.1091472591E-12

%%%% COMPUTE ELECTROSTATIC POTENTIAL %%%%%%%%%%%%%%%%%%%%%%%%%%%%%%%%%%%%%%%%%%%
 Iteration #          1
  pAp =    27.1738030280666       rzold =    26.1747560289842       alpha = 
  0.963234921587877     
 delta_qm =   0.129966E-01 delta_en =   0.291878E+03 tol =   0.100000E-04
 Iteration #          2
  pAp =    74.9610926476363       rzold =    7.63223835693945       alpha = 
  0.101815996637292     
 delta_qm =   0.339747E-02 delta_en =   0.199460E+02 tol =   0.100000E-04
 Iteration #          3
  pAp =    2.07081587903995       rzold =   0.339466274370612       alpha = 
  0.163928757648890     
 delta_qm =   0.915432E-03 delta_en =   0.144809E+01 tol =   0.100000E-04
 Iteration #          4
  pAp =   4.077428038881942E-002  rzold =   9.745085120237775E-003  alpha = 
  0.239000787440260     
 delta_qm =   0.516273E-03 delta_en =   0.460578E+00 tol =   0.100000E-04
 Iteration #          5
  pAp =   1.283371981213783E-003  rzold =   7.972921896141385E-004  alpha = 
  0.621247932232460     
 delta_qm =   0.129595E-03 delta_en =   0.290214E-01 tol =   0.100000E-04
 Iteration #          6
  pAp =   3.016041979373432E-004  rzold =   1.046123996049878E-004  alpha = 
  0.346853261063430     
 delta_qm =   0.747084E-04 delta_en =   0.964457E-02 tol =   0.100000E-04
 Iteration #          7
  pAp =   1.597747923262329E-005  rzold =   1.054069577524753E-005  alpha = 
  0.659722076416486     
 delta_qm =   0.462189E-04 delta_en =   0.369134E-02 tol =   0.100000E-04
 Iteration #          8
  pAp =   9.527955562547350E-006  rzold =   6.328623679953533E-006  alpha = 
  0.664216330398328     
 delta_qm =   0.221767E-04 delta_en =   0.849840E-03 tol =   0.100000E-04
 Iteration #          9
  pAp =   8.200287824187699E-006  rzold =   2.174082873788204E-006  alpha = 
  0.265122751835063     
 delta_qm =   0.154924E-04 delta_en =   0.414744E-03 tol =   0.100000E-04
 Iteration #         10
  pAp =   2.351741051676417E-006  rzold =   7.839769163855645E-007  alpha = 
  0.333360220857102     
 delta_qm =   0.827136E-05 delta_en =   0.118222E-03 tol =   0.100000E-04
 Iteration #         11
  pAp =   2.161029786072559E-007  rzold =   1.316697840250115E-007  alpha = 
  0.609291851845815     
 delta_qm =   0.178427E-05 delta_en =   0.550130E-05 tol =   0.100000E-04
 Charges are converged, EXIT

%%%% DENSITY %%%%%%%%%%%%%%%%%%%%%%%%%%%%%%%%%%%%%%%%%%%%%%%%%%%%%%%%%%%%%%%%%%%
 density label              = velectrostatic                                                                  
 integral of density        =     0.4217202719E-12

%%%% CHARGES %%%%%%%%%%%%%%%%%%%%%%%%%%%%%%%%%%%%%%%%%%%%%%%%%%%%%%%%%%%%%%%%%%%
 total number of charges    =         11
 total charge               =      0.0000000

%%%% ELECTRONS %%%%%%%%%%%%%%%%%%%%%%%%%%%%%%%%%%%%%%%%%%%%%%%%%%%%%%%%%%%%%%%%%
 number of electrons        =          8
 total electronic charge    =      8.0000000
 number of spin components  =  1

%%%% DENSITY %%%%%%%%%%%%%%%%%%%%%%%%%%%%%%%%%%%%%%%%%%%%%%%%%%%%%%%%%%%%%%%%%%%
 density label              = vreference                                                                      
 integral of density        =     0.2218472319E-12

%%%% COMPUTE ELECTROSTATIC POTENTIAL %%%%%%%%%%%%%%%%%%%%%%%%%%%%%%%%%%%%%%%%%%%
 Warning: bad guess with residual norm =   0.294098E+03, reset to no guess
 Iteration #          1
  pAp =    29.5386717694605       rzold =    28.5932198176630       alpha = 
  0.967992739850440     
 delta_qm =   0.126989E-01 delta_en =   0.278662E+03 tol =   0.100000E-04
 Iteration #          2
  pAp =    78.5308602548675       rzold =    7.72791884814149       alpha = 
  9.840614024933594E-002
 delta_qm =   0.297355E-02 delta_en =   0.152790E+02 tol =   0.100000E-04
 Iteration #          3
  pAp =    1.37668455660449       rzold =   0.235032658061844       alpha = 
  0.170723683166418     
 delta_qm =   0.869510E-03 delta_en =   0.130645E+01 tol =   0.100000E-04
 Iteration #          4
  pAp =   3.081722059592667E-002  rzold =   7.449622370745069E-003  alpha = 
  0.241735699283982     
 delta_qm =   0.520715E-03 delta_en =   0.468537E+00 tol =   0.100000E-04
 Iteration #          5
  pAp =   1.158594582126595E-003  rzold =   7.325759589723927E-004  alpha = 
  0.632297069461306     
 delta_qm =   0.132452E-03 delta_en =   0.303151E-01 tol =   0.100000E-04
 Iteration #          6
  pAp =   2.456893862360140E-004  rzold =   8.580836092442639E-005  alpha = 
  0.349255465362257     
 delta_qm =   0.864504E-04 delta_en =   0.129145E-01 tol =   0.100000E-04
 Iteration #          7
  pAp =   1.562849314200333E-005  rzold =   1.329614976390914E-005  alpha = 
  0.850763387301508     
 delta_qm =   0.471296E-04 delta_en =   0.383824E-02 tol =   0.100000E-04
 Iteration #          8
  pAp =   1.730109775502126E-005  rzold =   9.184500551968446E-006  alpha = 
  0.530862300301312     
 delta_qm =   0.223683E-04 delta_en =   0.864592E-03 tol =   0.100000E-04
 Iteration #          9
  pAp =   8.598313505311197E-006  rzold =   2.068207066598060E-006  alpha = 
  0.240536363941664     
 delta_qm =   0.158731E-04 delta_en =   0.435376E-03 tol =   0.100000E-04
 Iteration #         10
  pAp =   1.699988228564034E-006  rzold =   6.695308818643332E-007  alpha = 
  0.393844422340430     
 delta_qm =   0.722802E-05 delta_en =   0.902782E-04 tol =   0.100000E-04
 Iteration #         11
  pAp =   2.170163971107332E-007  rzold =   1.186436373579147E-007  alpha = 
  0.546703562207682     
 delta_qm =   0.185610E-05 delta_en =   0.595314E-05 tol =   0.100000E-04
 Charges are converged, EXIT

%%%% DENSITY %%%%%%%%%%%%%%%%%%%%%%%%%%%%%%%%%%%%%%%%%%%%%%%%%%%%%%%%%%%%%%%%%%%
 density label              = velectrostatic                                                                  
 integral of density        =    -0.2026362617E-13

%%%% CHARGES %%%%%%%%%%%%%%%%%%%%%%%%%%%%%%%%%%%%%%%%%%%%%%%%%%%%%%%%%%%%%%%%%%%
 total number of charges    =         11
 total charge               =      0.0000000

%%%% ELECTRONS %%%%%%%%%%%%%%%%%%%%%%%%%%%%%%%%%%%%%%%%%%%%%%%%%%%%%%%%%%%%%%%%%
 number of electrons        =          8
 total electronic charge    =      8.0000000
 number of spin components  =  1

%%%% DENSITY %%%%%%%%%%%%%%%%%%%%%%%%%%%%%%%%%%%%%%%%%%%%%%%%%%%%%%%%%%%%%%%%%%%
 density label              = vreference                                                                      
 integral of density        =     0.1012523398E-12

%%%% COMPUTE ELECTROSTATIC POTENTIAL %%%%%%%%%%%%%%%%%%%%%%%%%%%%%%%%%%%%%%%%%%%
 Warning: bad guess with residual norm =   0.208428E+03, reset to no guess
 Iteration #          1
  pAp =    29.1326941935771       rzold =    28.4454840367474       alpha = 
  0.976411033175872     
 delta_qm =   0.107675E-01 delta_en =   0.200341E+03 tol =   0.100000E-04
 Iteration #          2
  pAp =    46.9954772580256       rzold =    4.95885873649605       alpha = 
  0.105517786515280     
 delta_qm =   0.329107E-02 delta_en =   0.187162E+02 tol =   0.100000E-04
 Iteration #          3
  pAp =    2.02232114024796       rzold =   0.316435052083277       alpha = 
  0.156471218040315     
 delta_qm =   0.863316E-03 delta_en =   0.128790E+01 tol =   0.100000E-04
 Iteration #          4
  pAp =   3.882139666276033E-002  rzold =   9.087872982110315E-003  alpha = 
  0.234094436659666     
 delta_qm =   0.488127E-03 delta_en =   0.411727E+00 tol =   0.100000E-04
 Iteration #          5
  pAp =   1.008727812731443E-003  rzold =   6.528987212268259E-004  alpha = 
  0.647249647512842     
 delta_qm =   0.136402E-03 delta_en =   0.321502E-01 tol =   0.100000E-04
 Iteration #          6
  pAp =   2.589458506825174E-004  rzold =   9.161354677732454E-005  alpha = 
  0.353794225842406     
 delta_qm =   0.893259E-04 delta_en =   0.137879E-01 tol =   0.100000E-04
 Iteration #          7
  pAp =   1.750118112908706E-005  rzold =   1.366353874372799E-005  alpha = 
  0.780720949228913     
 delta_qm =   0.495865E-04 delta_en =   0.424884E-02 tol =   0.100000E-04
 Iteration #          8
  pAp =   1.779121996541117E-005  rzold =   9.506448535053717E-006  alpha = 
  0.534333708061375     
 delta_qm =   0.231163E-04 delta_en =   0.923383E-03 tol =   0.100000E-04
 Iteration #          9
  pAp =   1.953462838277310E-005  rzold =   3.985522684350347E-006  alpha = 
  0.204023470846522     
 delta_qm =   0.159688E-04 delta_en =   0.440645E-03 tol =   0.100000E-04
 Iteration #         10
  pAp =   1.036770964865964E-006  rzold =   5.243750300959742E-007  alpha = 
  0.505777117479140     
 delta_qm =   0.700603E-05 delta_en =   0.848179E-04 tol =   0.100000E-04
 Iteration #         11
  pAp =   1.998279426643920E-007  rzold =   1.078105870081328E-007  alpha = 
  0.539517074392339     
 delta_qm =   0.191755E-05 delta_en =   0.635385E-05 tol =   0.100000E-04
 Charges are converged, EXIT

%%%% DENSITY %%%%%%%%%%%%%%%%%%%%%%%%%%%%%%%%%%%%%%%%%%%%%%%%%%%%%%%%%%%%%%%%%%%
 density label              = velectrostatic                                                                  
 integral of density        =     0.8223874256E-13

%%%% CHARGES %%%%%%%%%%%%%%%%%%%%%%%%%%%%%%%%%%%%%%%%%%%%%%%%%%%%%%%%%%%%%%%%%%%
 total number of charges    =         11
 total charge               =      0.0000000

%%%% ELECTRONS %%%%%%%%%%%%%%%%%%%%%%%%%%%%%%%%%%%%%%%%%%%%%%%%%%%%%%%%%%%%%%%%%
 number of electrons        =          8
 total electronic charge    =      8.0000000
 number of spin components  =  1

%%%% DENSITY %%%%%%%%%%%%%%%%%%%%%%%%%%%%%%%%%%%%%%%%%%%%%%%%%%%%%%%%%%%%%%%%%%%
 density label              = vreference                                                                      
 integral of density        =     0.1012523398E-12

%%%% DENSITY %%%%%%%%%%%%%%%%%%%%%%%%%%%%%%%%%%%%%%%%%%%%%%%%%%%%%%%%%%%%%%%%%%%
 density label              = velectrostatic                                                                  
 integral of density        =     0.8223874256E-13

%%%% CHARGES %%%%%%%%%%%%%%%%%%%%%%%%%%%%%%%%%%%%%%%%%%%%%%%%%%%%%%%%%%%%%%%%%%%
 total number of charges    =         11
 total charge               =      0.0000000
