
     Program PWSCF v.6.1 (svn rev. 13369) starts on 14Nov2017 at 14:36: 9 

     This program is part of the open-source Quantum ESPRESSO suite
     for quantum simulation of materials; please cite
         "P. Giannozzi et al., J. Phys.:Condens. Matter 21 395502 (2009);
          URL http://www.quantum-espresso.org", 
     in publications or presentations arising from this work. More details at
     http://www.quantum-espresso.org/quote

     Parallel version (MPI), running on     1 processors
     Reading input from neutral.in

     Current dimensions of program PWSCF are:
     Max number of different atomic species (ntypx) = 10
     Max number of k-points (npk) =  40000
     Max angular momentum in pseudopotentials (lmaxx) =  3
               file H.pbe-rrkjus.UPF: wavefunction(s)  1S renormalized
               file O.pbe-rrkjus.UPF: wavefunction(s)  2S renormalized

     gamma-point specific algorithms are used

     Subspace diagonalization in iterative solution of the eigenvalue problem:
     a serial algorithm will be used

 
     G-vector sticks info
     --------------------
     sticks:   dense  smooth     PW     G-vecs:    dense   smooth      PW
     Sum        9549    3809    949               701475   177509   22119
 


     bravais-lattice index     =            1
     lattice parameter (alat)  =      20.0000  a.u.
     unit-cell volume          =    8000.0000 (a.u.)^3
     number of atoms/cell      =            3
     number of atomic types    =            2
     number of electrons       =         8.00
     number of Kohn-Sham states=            4
     kinetic-energy cutoff     =      30.0000  Ry
     charge density cutoff     =     300.0000  Ry
     convergence threshold     =      5.0E-03
     mixing beta               =       0.7000
     number of iterations used =            8  plain     mixing
     Exchange-correlation      =  SLA  PW   PBE  PBE ( 1  4  3  4 0 0)
 

     Environ Module
     ==============

     Plese cite
         O. Andreussi, I. Dabo and N. Marzari, J. Chem. Phys. 136, 064102 (2012)         
     in publications or presentations arising from this work.

     compensation onset threshold      =               0.1000E+03 
     static permittivity               =                   100.00 
     epsilon calculation mode          =               electronic 

     Electrostatic Setup
     -------------------
     electrostatic problem to solve    = generalized              
     numerical solver adopted          = sd                       
     type of auxiliary density adopted = none                     
     type of core tool for poisson     = fft                      
     type of core tool for s(r) deriv  = analytic                 



     celldm(1)=  20.000000  celldm(2)=   0.000000  celldm(3)=   0.000000
     celldm(4)=   0.000000  celldm(5)=   0.000000  celldm(6)=   0.000000

     crystal axes: (cart. coord. in units of alat)
               a(1) = (   1.000000   0.000000   0.000000 )  
               a(2) = (   0.000000   1.000000   0.000000 )  
               a(3) = (   0.000000   0.000000   1.000000 )  

     reciprocal axes: (cart. coord. in units 2 pi/alat)
               b(1) = (  1.000000  0.000000  0.000000 )  
               b(2) = (  0.000000  1.000000  0.000000 )  
               b(3) = (  0.000000  0.000000  1.000000 )  


     PseudoPot. # 1 for H  read from file:
     /home/andreo/PWSCF/espresso-6.1-Environ-1.0/Environ/tests/../..//pseudo/H.pbe-rrkjus.UPF
     MD5 check sum: 7cc9d459525c9a0585f487a71c3c9563
     Pseudo is Ultrasoft, Zval =  1.0
     Generated by new atomic code, or converted to UPF format
     Using radial grid of 1061 points,  2 beta functions with: 
                l(1) =   0
                l(2) =   0
     Q(r) pseudized with 0 coefficients 


     PseudoPot. # 2 for O  read from file:
     /home/andreo/PWSCF/espresso-6.1-Environ-1.0/Environ/tests/../..//pseudo/O.pbe-rrkjus.UPF
     MD5 check sum: 390ba29e75625707450f3bd3f0eb6be9
     Pseudo is Ultrasoft, Zval =  6.0
     Generated by new atomic code, or converted to UPF format
     Using radial grid of 1269 points,  4 beta functions with: 
                l(1) =   0
                l(2) =   0
                l(3) =   1
                l(4) =   1
     Q(r) pseudized with 0 coefficients 


     atomic species   valence    mass     pseudopotential
        H              1.00     1.00000     H ( 1.00)
        O              6.00    16.00000     O ( 1.00)

     No symmetry found



   Cartesian axes

     site n.     atom                  positions (alat units)
         1           O   tau(   1) = (   0.5895000   0.6025000   0.5750000  )
         2           H   tau(   2) = (   0.6725000   0.5610000   0.5750000  )
         3           H   tau(   3) = (   0.5280000   0.5330000   0.5750000  )

     number of k points=     1
                       cart. coord. in units 2pi/alat
        k(    1) = (   0.0000000   0.0000000   0.0000000), wk =   2.0000000

     Dense  grid:   350738 G-vectors     FFT dimensions: ( 120, 120, 120)

     Smooth grid:    88755 G-vectors     FFT dimensions: (  72,  72,  72)

     Estimated max dynamical RAM per process >     270.62MB

     Initial potential from superposition of free atoms
     Check: negative starting charge=   -0.000775

     starting charge    7.80759, renormalised to    8.00000

     negative rho (up, down):  7.936E-04 0.000E+00
     Starting wfc are    6 randomized atomic wfcs

     total cpu time spent up to now is        2.9 secs

     per-process dynamical memory:   562.2 Mb

     Self-consistent Calculation

     iteration #  1     ecut=    30.00 Ry     beta=0.70
     Davidson diagonalization with overlap
     ethr =  1.00E-02,  avg # of iterations =  2.0

     negative rho (up, down):  2.595E-04 0.000E+00

     add environment contribution to local potential
     polarization accuracy = 9.8E-06, # of iterations =  45

     total cpu time spent up to now is       14.8 secs

     total energy              =     -34.06236055 Ry
     Harris-Foulkes estimate   =     -34.58697711 Ry
     estimated scf accuracy    <       0.68458994 Ry
     electrostatic embedding   =       0.00000000 Ry
     correction to one-el term =       0.00000000 Ry

     iteration #  2     ecut=    30.00 Ry     beta=0.70
     Davidson diagonalization with overlap
     ethr =  8.56E-03,  avg # of iterations =  2.0

     negative rho (up, down):  2.656E-03 0.000E+00

     add environment contribution to local potential
     polarization accuracy = 7.2E-06, # of iterations =  55

     total cpu time spent up to now is       28.5 secs

     total energy              =     -34.21521926 Ry
     Harris-Foulkes estimate   =     -33.94012754 Ry
     estimated scf accuracy    <       0.35521198 Ry
     electrostatic embedding   =      -0.03416944 Ry
     correction to one-el term =      -0.42400230 Ry

     iteration #  3     ecut=    30.00 Ry     beta=0.70
     Davidson diagonalization with overlap
     ethr =  4.44E-03,  avg # of iterations =  2.0

     negative rho (up, down):  2.205E-04 0.000E+00

     add environment contribution to local potential
     polarization accuracy = 7.9E-06, # of iterations =  61

     total cpu time spent up to now is       42.8 secs

     total energy              =     -34.28765509 Ry
     Harris-Foulkes estimate   =     -33.97796319 Ry
     estimated scf accuracy    <       0.01537692 Ry
     electrostatic embedding   =      -0.02912566 Ry
     correction to one-el term =      -0.28921637 Ry

     iteration #  4     ecut=    30.00 Ry     beta=0.70
     Davidson diagonalization with overlap
     ethr =  1.92E-04,  avg # of iterations =  2.0

     negative rho (up, down):  2.142E-04 0.000E+00

     total cpu time spent up to now is       45.1 secs

     End of self-consistent calculation

          k = 0.0000 0.0000 0.0000 ( 11060 PWs)   bands (ev):

   -24.5417 -12.3152  -8.7692  -6.7994

     highest occupied level (ev):    -6.7994

!    total energy              =     -34.29562782 Ry
     Harris-Foulkes estimate   =     -34.17197876 Ry
     estimated scf accuracy    <       0.00017512 Ry

     The total energy is the sum of the following terms:

     one-electron contribution =     -63.79218171 Ry
     hartree contribution      =      33.45949612 Ry
     xc contribution           =      -8.39661171 Ry
     ewald contribution        =       4.55735774 Ry
     electrostatic embedding   =      -0.03351115 Ry
     correction to one-el term =      -0.09017711 Ry

     convergence has been achieved in   4 iterations

     Forces acting on atoms (cartesian axes, Ry/au):

     atom    1 type  2   force =     0.00236828   -0.01240806   -0.00000283
     atom    2 type  1   force =    -0.00871491    0.00471855    0.00000113
     atom    3 type  1   force =     0.00634663    0.00768951    0.00000170

     Total force =     0.018900     Total SCF correction =     0.022988
     SCF correction compared to forces is large: reduce conv_thr to get better values

     Writing output data file pwscf.save
 
     init_run     :      2.00s CPU      2.79s WALL (       1 calls)
     electrons    :     30.00s CPU     44.65s WALL (       1 calls)
     forces       :      0.74s CPU      0.96s WALL (       1 calls)

     Called by init_run:
     wfcinit      :      0.04s CPU      0.04s WALL (       1 calls)
     potinit      :      0.90s CPU      1.14s WALL (       1 calls)

     Called by electrons:
     c_bands      :      0.33s CPU      0.32s WALL (       4 calls)
     sum_band     :      1.61s CPU      2.25s WALL (       4 calls)
     v_of_rho     :      3.23s CPU      3.96s WALL (       5 calls)
     newd         :      0.71s CPU      1.45s WALL (       5 calls)
     mix_rho      :      0.30s CPU      0.30s WALL (       4 calls)

     Called by c_bands:
     init_us_2    :      0.03s CPU      0.02s WALL (       9 calls)
     regterg      :      0.30s CPU      0.30s WALL (       4 calls)

     Called by sum_band:
     sum_band:bec :      0.00s CPU      0.00s WALL (       4 calls)
     addusdens    :      1.01s CPU      1.63s WALL (       4 calls)

     Called by *egterg:
     h_psi        :      0.31s CPU      0.31s WALL (      13 calls)
     s_psi        :      0.00s CPU      0.00s WALL (      13 calls)
     g_psi        :      0.00s CPU      0.00s WALL (       8 calls)
     rdiaghg      :      0.00s CPU      0.00s WALL (      12 calls)

     Called by h_psi:
     h_psi:pot    :      0.31s CPU      0.31s WALL (      13 calls)
     h_psi:calbec :      0.02s CPU      0.01s WALL (      13 calls)
     vloc_psi     :      0.29s CPU      0.30s WALL (      13 calls)
     add_vuspsi   :      0.00s CPU      0.00s WALL (      13 calls)

     General routines
     calbec       :      0.02s CPU      0.01s WALL (      21 calls)
     fft          :     14.88s CPU     18.99s WALL (     451 calls)
     ffts         :      0.06s CPU      0.05s WALL (       9 calls)
     fftw         :      0.25s CPU      0.26s WALL (      62 calls)
     interpolate  :      0.41s CPU      0.52s WALL (       9 calls)
     davcio       :      0.00s CPU      0.00s WALL (       1 calls)
 
     Parallel routines
     fft_scatter  :      3.46s CPU      5.53s WALL (     522 calls)
 
     Environ routines
     calc_eelect  :      0.02s CPU      0.01s WALL (       8 calls)
     calc_velect  :     21.12s CPU     31.06s WALL (       6 calls)
     dielectric   :      0.25s CPU      0.26s WALL (       5 calls)
     calc_felect  :      0.28s CPU      0.33s WALL (       1 calls)
 
     PWSCF        :    32.88s CPU        52.28s WALL

 
   This run was terminated on:  14:37: 2  14Nov2017            

=------------------------------------------------------------------------------=
   JOB DONE.
=------------------------------------------------------------------------------=

%%%% IONS %%%%%%%%%%%%%%%%%%%%%%%%%%%%%%%%%%%%%%%%%%%%%%%%%%%%%%%%%%%%%%%%%%%%%%
 number of ions             =          3
 ionic center of charge     =      0.5921875     0.5886250     0.5750000
 total ionic charge         =     -8.0000000
 ionic dipole               =      0.0000000     0.0000000     0.0000000
 ionic quadrupole (pc)      =     -4.2453875    -2.0049500     0.0000000
 ionic quadrupole (gauss)   =     -5.2453875    -3.0049500    -1.0000000
 ion   1 type =  2 coordinates =     11.7900000    12.0500000    11.5000000
 ion   2 type =  1 coordinates =     13.4500000    11.2200000    11.5000000
 ion   3 type =  1 coordinates =     10.5600000    10.6600000    11.5000000

%%%% SYSTEM %%%%%%%%%%%%%%%%%%%%%%%%%%%%%%%%%%%%%%%%%%%%%%%%%%%%%%%%%%%%%%%%%%%%
 system is built from all present ionic types
 system defined dimension   =  0 
 system defined axis        =  3 
 system center              =      0.5921875     0.5886250     0.5750000 
 system width               =      0.1209428 

%%%% ELECTRONS %%%%%%%%%%%%%%%%%%%%%%%%%%%%%%%%%%%%%%%%%%%%%%%%%%%%%%%%%%%%%%%%%
 number of electrons        =          8
 total electronic charge    =      8.0000000
 number of spin components  =  1

%%%% BOUNDARY %%%%%%%%%%%%%%%%%%%%%%%%%%%%%%%%%%%%%%%%%%%%%%%%%%%%%%%%%%%%%%%%%%
 boundary mode              = electronic           
 boundary is built as a function of a smooth density
 function type              =  2 
 using the modified SCCS function with parameters 
 rhomax                     =      0.0050000 
 rhomin                     =      0.0001000 
 volume of the QM region    =    306.9268418 
 surface of the QM region   =    219.1546597 

%%%% DIELECTRIC %%%%%%%%%%%%%%%%%%%%%%%%%%%%%%%%%%%%%%%%%%%%%%%%%%%%%%%%%%%%%%%%%
 dielectric build on homogeneous background
 environment bulk permitt.  =    100.0000000 
 dielectric flags
 need gradient              =  F 
 need factor depend. sqrt   =  T 
 need gradient of logarithm =  T 

%%%% COMPUTE ELECTROSTATIC POTENTIAL %%%%%%%%%%%%%%%%%%%%%%%%%%%%%%%%%%%%%%%%%%%
 Iteration #          1
  pAp =    26.7240113349752       rzold =    26.1622024736744       alpha = 
  0.978977375280276     
 delta_qm =   0.832724E-02 delta_en =   0.119825E+03 tol =   0.100000E-04
 Iteration #          2
  pAp =    27.1502764621217       rzold =    3.36932118260705       alpha = 
  0.124098964049508     
 delta_qm =   0.280726E-02 delta_en =   0.136178E+02 tol =   0.100000E-04
 Iteration #          3
  pAp =    1.74064680818002       rzold =   0.235038084090616       alpha = 
  0.135029164438228     
 delta_qm =   0.913420E-03 delta_en =   0.144173E+01 tol =   0.100000E-04
 Iteration #          4
  pAp =   0.196743520081191       rzold =   3.226360783757027E-002  alpha = 
  0.163988159936632     
 delta_qm =   0.864814E-03 delta_en =   0.129238E+01 tol =   0.100000E-04
 Iteration #          5
  pAp =   7.116299346743840E-002  rzold =   1.248356643911611E-002  alpha = 
  0.175422165803468     
 delta_qm =   0.542904E-03 delta_en =   0.509319E+00 tol =   0.100000E-04
 Iteration #          6
  pAp =   4.061651815132583E-002  rzold =   7.293171061638018E-003  alpha = 
  0.179561700352199     
 delta_qm =   0.558739E-03 delta_en =   0.539463E+00 tol =   0.100000E-04
 Iteration #          7
  pAp =   2.653357107064607E-002  rzold =   4.756155595393686E-003  alpha = 
  0.179250489228545     
 delta_qm =   0.352498E-03 delta_en =   0.214713E+00 tol =   0.100000E-04
 Iteration #          8
  pAp =   1.734273215720625E-002  rzold =   3.128484210912505E-003  alpha = 
  0.180391658162844     
 delta_qm =   0.370680E-03 delta_en =   0.237434E+00 tol =   0.100000E-04
 Iteration #          9
  pAp =   1.164378327401779E-002  rzold =   2.090637404111643E-003  alpha = 
  0.179549666539804     
 delta_qm =   0.230137E-03 delta_en =   0.915199E-01 tol =   0.100000E-04
 Iteration #         10
  pAp =   7.676430731380507E-003  rzold =   1.386231118943491E-003  alpha = 
  0.180582769186819     
 delta_qm =   0.250031E-03 delta_en =   0.108027E+00 tol =   0.100000E-04
 Iteration #         11
  pAp =   5.179792236379347E-003  rzold =   9.308378854976141E-004  alpha = 
  0.179705641272644     
 delta_qm =   0.152817E-03 delta_en =   0.403539E-01 tol =   0.100000E-04
 Iteration #         12
  pAp =   3.428463344333550E-003  rzold =   6.196180300856871E-004  alpha = 
  0.180727622802143     
 delta_qm =   0.171995E-03 delta_en =   0.511184E-01 tol =   0.100000E-04
 Iteration #         13
  pAp =   2.321753528308402E-003  rzold =   4.175555446513699E-004  alpha = 
  0.179844905826673     
 delta_qm =   0.103701E-03 delta_en =   0.185828E-01 tol =   0.100000E-04
 Iteration #         14
  pAp =   1.542051687930467E-003  rzold =   2.789106334760728E-004  alpha = 
  0.180869834428435     
 delta_qm =   0.120750E-03 delta_en =   0.251951E-01 tol =   0.100000E-04
 Iteration #         15
  pAp =   1.047902217948025E-003  rzold =   1.886138004999886E-004  alpha = 
  0.179991794338719     
 delta_qm =   0.722297E-04 delta_en =   0.901519E-02 tol =   0.100000E-04
 Iteration #         16
  pAp =   6.984818125409143E-004  rzold =   1.264456030463779E-004  alpha = 
  0.181029199008630     
 delta_qm =   0.865350E-04 delta_en =   0.129398E-01 tol =   0.100000E-04
 Iteration #         17
  pAp =   4.764739777898480E-004  rzold =   8.584398020983886E-005  alpha = 
  0.180165096545316     
 delta_qm =   0.518392E-04 delta_en =   0.464366E-02 tol =   0.100000E-04
 Iteration #         18
  pAp =   3.189193476832529E-004  rzold =   5.779625634165779E-005  alpha = 
  0.181225305901040     
 delta_qm =   0.632893E-04 delta_en =   0.692156E-02 tol =   0.100000E-04
 Iteration #         19
  pAp =   2.185690632727480E-004  rzold =   3.942666131241458E-005  alpha = 
  0.180385369832577     
 delta_qm =   0.384026E-04 delta_en =   0.254838E-02 tol =   0.100000E-04
 Iteration #         20
  pAp =   1.470644436833048E-004  rzold =   2.668930610701890E-005  alpha = 
  0.181480345884916     
 delta_qm =   0.472000E-04 delta_en =   0.384971E-02 tol =   0.100000E-04
 Iteration #         21
  pAp =   1.013980262014611E-004  rzold =   1.832018249987566E-005  alpha = 
  0.180675928183025     
 delta_qm =   0.293136E-04 delta_en =   0.148485E-02 tol =   0.100000E-04
 Iteration #         22
  pAp =   6.869683973255925E-005  rzold =   1.249038594606614E-005  alpha = 
  0.181818930749827     
 delta_qm =   0.358411E-04 delta_en =   0.221976E-02 tol =   0.100000E-04
 Iteration #         23
  pAp =   4.774360297077402E-005  rzold =   8.644527849445360E-006  alpha = 
  0.181061489111684     
 delta_qm =   0.229433E-04 delta_en =   0.909614E-03 tol =   0.100000E-04
 Iteration #         24
  pAp =   3.264195944563737E-005  rzold =   5.949497312634012E-006  alpha = 
  0.182265323947309     
 delta_qm =   0.276537E-04 delta_en =   0.132145E-02 tol =   0.100000E-04
 Iteration #         25
  pAp =   2.292461649197184E-005  rzold =   4.162280146712276E-006  alpha = 
  0.181563785294725     
 delta_qm =   0.182945E-04 delta_en =   0.578342E-03 tol =   0.100000E-04
 Iteration #         26
  pAp =   1.586010056154908E-005  rzold =   2.899815650949922E-006  alpha = 
  0.182837154133826     
 delta_qm =   0.216277E-04 delta_en =   0.808282E-03 tol =   0.100000E-04
 Iteration #         27
  pAp =   1.128886612457011E-005  rzold =   2.056758369355951E-006  alpha = 
  0.182193530037480     
 delta_qm =   0.147686E-04 delta_en =   0.376899E-03 tol =   0.100000E-04
 Iteration #         28
  pAp =   7.926775644154958E-006  rzold =   1.454847387866050E-006  alpha = 
  0.183535835146138     
 delta_qm =   0.171025E-04 delta_en =   0.505430E-03 tol =   0.100000E-04
 Iteration #         29
  pAp =   5.735161581459888E-006  rzold =   1.049192444335190E-006  alpha = 
  0.182940346044813     
 delta_qm =   0.120096E-04 delta_en =   0.249229E-03 tol =   0.100000E-04
 Iteration #         30
  pAp =   4.098532437014468E-006  rzold =   7.555119380457878E-007  alpha = 
  0.184337186457925     
 delta_qm =   0.136415E-04 delta_en =   0.321564E-03 tol =   0.100000E-04
 Iteration #         31
  pAp =   3.021502275129022E-006  rzold =   5.552497141404480E-007  alpha = 
  0.183766108240557     
 delta_qm =   0.980256E-05 delta_en =   0.166044E-03 tol =   0.100000E-04
 Iteration #         32
  pAp =   2.201642248416413E-006  rzold =   4.077206417803569E-007  alpha = 
  0.185189324956686     
 delta_qm =   0.109521E-04 delta_en =   0.207272E-03 tol =   0.100000E-04
 Iteration #         33
  pAp =   1.655771206738879E-006  rzold =   3.056703139200473E-007  alpha = 
  0.184609028515528     
 delta_qm =   0.801320E-05 delta_en =   0.110957E-03 tol =   0.100000E-04
 Iteration #         34
  pAp =   1.230660955712275E-006  rzold =   2.289320537914376E-007  alpha = 
  0.186023658854877     
 delta_qm =   0.883494E-05 delta_en =   0.134881E-03 tol =   0.100000E-04
 Iteration #         35
  pAp =   9.437734006123407E-007  rzold =   1.749761376146703E-007  alpha = 
  0.185400581856982     
 delta_qm =   0.655224E-05 delta_en =   0.741863E-04 tol =   0.100000E-04
 Iteration #         36
  pAp =   7.146495723133887E-007  rzold =   1.334792941551602E-007  alpha = 
  0.186775867958719     
 delta_qm =   0.715111E-05 delta_en =   0.883672E-04 tol =   0.100000E-04
 Iteration #         37
  pAp =   5.577785698345331E-007  rzold =   1.037952616683006E-007  alpha = 
  0.186086858265444     
 delta_qm =   0.535602E-05 delta_en =   0.495711E-04 tol =   0.100000E-04
 Iteration #         38
  pAp =   4.292370193717492E-007  rzold =   8.044099613164135E-008  alpha = 
  0.187404609810632     
 delta_qm =   0.580175E-05 delta_en =   0.581650E-04 tol =   0.100000E-04
 Iteration #         39
  pAp =   3.399770456110613E-007  rzold =   6.345381689887233E-008  alpha = 
  0.186641473940757     
 delta_qm =   0.437607E-05 delta_en =   0.330912E-04 tol =   0.100000E-04
 Iteration #         40
  pAp =   2.650626914842086E-007  rzold =   4.980462762410128E-008  alpha = 
  0.187897539805478     
 delta_qm =   0.471451E-05 delta_en =   0.384075E-04 tol =   0.100000E-04
 Iteration #         41
  pAp =   2.123755379941592E-007  rzold =   3.972796991215425E-008  alpha = 
  0.187064716997900     
 delta_qm =   0.357374E-05 delta_en =   0.220693E-04 tol =   0.100000E-04
 Iteration #         42
  pAp =   1.672339511944104E-007  rzold =   3.148429743510517E-008  alpha = 
  0.188264985729510     
 delta_qm =   0.383516E-05 delta_en =   0.254162E-04 tol =   0.100000E-04
 Iteration #         43
  pAp =   1.351478091200167E-007  rzold =   2.532317384344541E-008  alpha = 
  0.187373913112845     
 delta_qm =   0.291742E-05 delta_en =   0.147076E-04 tol =   0.100000E-04
 Iteration #         44
  pAp =   1.071974984212569E-007  rzold =   2.020982624596746E-008  alpha = 
  0.188528898002343     
 delta_qm =   0.312211E-05 delta_en =   0.168438E-04 tol =   0.100000E-04
 Iteration #         45
  pAp =   8.716585156425525E-008  rzold =   1.635169251575008E-008  alpha = 
  0.187592872923363     
 delta_qm =   0.238099E-05 delta_en =   0.979622E-05 tol =   0.100000E-04
 Charges are converged, EXIT

%%%% ELECTRONS %%%%%%%%%%%%%%%%%%%%%%%%%%%%%%%%%%%%%%%%%%%%%%%%%%%%%%%%%%%%%%%%%
 number of electrons        =          8
 total electronic charge    =      8.0000000
 number of spin components  =  1

%%%% BOUNDARY %%%%%%%%%%%%%%%%%%%%%%%%%%%%%%%%%%%%%%%%%%%%%%%%%%%%%%%%%%%%%%%%%%
 boundary mode              = electronic           
 boundary is built as a function of a smooth density
 function type              =  2 
 using the modified SCCS function with parameters 
 rhomax                     =      0.0050000 
 rhomin                     =      0.0001000 
 volume of the QM region    =    332.8685167 
 surface of the QM region   =    231.8880928 

%%%% DIELECTRIC %%%%%%%%%%%%%%%%%%%%%%%%%%%%%%%%%%%%%%%%%%%%%%%%%%%%%%%%%%%%%%%%%
 dielectric build on homogeneous background
 environment bulk permitt.  =    100.0000000 
 dielectric flags
 need gradient              =  F 
 need factor depend. sqrt   =  T 
 need gradient of logarithm =  T 

%%%% COMPUTE ELECTROSTATIC POTENTIAL %%%%%%%%%%%%%%%%%%%%%%%%%%%%%%%%%%%%%%%%%%%
 Warning: bad guess with residual norm =   0.453767E+02, reset to no guess
 Iteration #          1
  pAp =    28.9427154769834       rzold =    28.5285271350025       alpha = 
  0.985689375196660     
 delta_qm =   0.102052E-01 delta_en =   0.179964E+03 tol =   0.100000E-04
 Iteration #          2
  pAp =    20.0778937397609       rzold =    2.50858022692261       alpha = 
  0.124942399807346     
 delta_qm =   0.321154E-02 delta_en =   0.178226E+02 tol =   0.100000E-04
 Iteration #          3
  pAp =    1.22084817479077       rzold =   0.165012575745292       alpha = 
  0.135162241425780     
 delta_qm =   0.835964E-03 delta_en =   0.120759E+01 tol =   0.100000E-04
 Iteration #          4
  pAp =   0.134500027244416       rzold =   2.174107174236926E-002  alpha = 
  0.161643623334448     
 delta_qm =   0.994172E-03 delta_en =   0.170792E+01 tol =   0.100000E-04
 Iteration #          5
  pAp =   4.290847848179245E-002  rzold =   7.425543317588950E-003  alpha = 
  0.173055386262178     
 delta_qm =   0.472599E-03 delta_en =   0.385948E+00 tol =   0.100000E-04
 Iteration #          6
  pAp =   2.192123236075417E-002  rzold =   4.004192474918869E-003  alpha = 
  0.182662744914270     
 delta_qm =   0.643120E-03 delta_en =   0.714707E+00 tol =   0.100000E-04
 Iteration #          7
  pAp =   1.474708710670258E-002  rzold =   2.628684637069065E-003  alpha = 
  0.178251109391923     
 delta_qm =   0.308299E-03 delta_en =   0.164243E+00 tol =   0.100000E-04
 Iteration #          8
  pAp =   9.094170769595530E-003  rzold =   1.671298898386299E-003  alpha = 
  0.183776942475497     
 delta_qm =   0.436213E-03 delta_en =   0.328806E+00 tol =   0.100000E-04
 Iteration #          9
  pAp =   6.347481440632290E-003  rzold =   1.134174948391843E-003  alpha = 
  0.178681097219382     
 delta_qm =   0.209667E-03 delta_en =   0.759633E-01 tol =   0.100000E-04
 Iteration #         10
  pAp =   3.961808085878857E-003  rzold =   7.294263066658911E-004  alpha = 
  0.184114497939917     
 delta_qm =   0.306823E-03 delta_en =   0.162675E+00 tol =   0.100000E-04
 Iteration #         11
  pAp =   2.788751461827127E-003  rzold =   4.991045427250527E-004  alpha = 
  0.178970607297522     
 delta_qm =   0.152829E-03 delta_en =   0.403604E-01 tol =   0.100000E-04
 Iteration #         12
  pAp =   1.753349562990393E-003  rzold =   3.233431515423307E-004  alpha = 
  0.184414539101295     
 delta_qm =   0.223572E-03 delta_en =   0.863728E-01 tol =   0.100000E-04
 Iteration #         13
  pAp =   1.243148765221661E-003  rzold =   2.228456628724933E-004  alpha = 
  0.179259046951439     
 delta_qm =   0.118276E-03 delta_en =   0.241735E-01 tol =   0.100000E-04
 Iteration #         14
  pAp =   7.871644733171793E-004  rzold =   1.454177008373697E-004  alpha = 
  0.184736107594601     
 delta_qm =   0.167843E-03 delta_en =   0.486798E-01 tol =   0.100000E-04
 Iteration #         15
  pAp =   5.623714777000661E-004  rzold =   1.009942421247818E-004  alpha = 
  0.179586351956928     
 delta_qm =   0.952416E-04 delta_en =   0.156746E-01 tol =   0.100000E-04
 Iteration #         16
  pAp =   3.589308548705814E-004  rzold =   6.644461181981259E-005  alpha = 
  0.185118138823062     
 delta_qm =   0.129030E-03 delta_en =   0.287689E-01 tol =   0.100000E-04
 Iteration #         17
  pAp =   2.587268590881492E-004  rzold =   4.656792907712845E-005  alpha = 
  0.179988769783127     
 delta_qm =   0.783785E-04 delta_en =   0.106154E-01 tol =   0.100000E-04
 Iteration #         18
  pAp =   1.667319082428027E-004  rzold =   3.094523822717156E-005  alpha = 
  0.185598776822656     
 delta_qm =   0.101015E-03 delta_en =   0.176327E-01 tol =   0.100000E-04
 Iteration #         19
  pAp =   1.215289694530798E-004  rzold =   2.193609838188960E-005  alpha = 
  0.180500982445661     
 delta_qm =   0.651454E-04 delta_en =   0.733350E-02 tol =   0.100000E-04
 Iteration #         20
  pAp =   7.927825967942782E-005  rzold =   1.476252809013544E-005  alpha = 
  0.186211555978016     
 delta_qm =   0.801750E-04 delta_en =   0.111076E-01 tol =   0.100000E-04
 Iteration #         21
  pAp =   5.860598583824945E-005  rzold =   1.061640805126536E-005  alpha = 
  0.181148869000622     
 delta_qm =   0.543230E-04 delta_en =   0.509931E-02 tol =   0.100000E-04
 Iteration #         22
  pAp =   3.882320031807513E-005  rzold =   7.258949495948649E-006  alpha = 
  0.186974526480988     
 delta_qm =   0.642849E-04 delta_en =   0.714105E-02 tol =   0.100000E-04
 Iteration #         23
  pAp =   2.920690984246012E-005  rzold =   5.313814596147039E-006  alpha = 
  0.181936898658891     
 delta_qm =   0.452879E-04 delta_en =   0.354413E-02 tol =   0.100000E-04
 Iteration #         24
  pAp =   1.971231537313728E-005  rzold =   3.703466067367409E-006  alpha = 
  0.187875751643780     
 delta_qm =   0.519290E-04 delta_en =   0.465976E-02 tol =   0.100000E-04
 Iteration #         25
  pAp =   1.513916271660515E-005  rzold =   2.767976755203243E-006  alpha = 
  0.182835524461814     
 delta_qm =   0.376842E-04 delta_en =   0.245393E-02 tol =   0.100000E-04
 Iteration #         26
  pAp =   1.043719281040780E-005  rzold =   1.971209923704103E-006  alpha = 
  0.188863994324072     
 delta_qm =   0.421721E-04 delta_en =   0.307322E-02 tol =   0.100000E-04
 Iteration #         27
  pAp =   8.199246680766257E-006  rzold =   1.506851821773370E-006  alpha = 
  0.183779300762853     
 delta_qm =   0.312785E-04 delta_en =   0.169058E-02 tol =   0.100000E-04
 Iteration #         28
  pAp =   5.780203496677100E-006  rzold =   1.097408535759499E-006  alpha = 
  0.189856384189652     
 delta_qm =   0.343762E-04 delta_en =   0.204202E-02 tol =   0.100000E-04
 Iteration #         29
  pAp =   4.645084907514915E-006  rzold =   8.578728112158506E-007  alpha = 
  0.184683989269597     
 delta_qm =   0.258961E-04 delta_en =   0.115881E-02 tol =   0.100000E-04
 Iteration #         30
  pAp =   3.345375005333137E-006  rzold =   6.381811018377623E-007  alpha = 
  0.190765190993651     
 delta_qm =   0.280926E-04 delta_en =   0.136373E-02 tol =   0.100000E-04
 Iteration #         31
  pAp =   2.744860264225590E-006  rzold =   5.091059229536250E-007  alpha = 
  0.185476080363333     
 delta_qm =   0.213924E-04 delta_en =   0.790793E-03 tol =   0.100000E-04
 Iteration #         32
  pAp =   2.014165965425653E-006  rzold =   3.857695160724478E-007  alpha = 
  0.191528167337950     
 delta_qm =   0.229964E-04 delta_en =   0.913823E-03 tol =   0.100000E-04
 Iteration #         33
  pAp =   1.681682837683636E-006  rzold =   3.129870537143172E-007  alpha = 
  0.186115387932143     
 delta_qm =   0.176408E-04 delta_en =   0.537751E-03 tol =   0.100000E-04
 Iteration #         34
  pAp =   1.252777594469020E-006  rzold =   2.406869907342580E-007  alpha = 
  0.192122681469468     
 delta_qm =   0.188455E-04 delta_en =   0.613706E-03 tol =   0.100000E-04
 Iteration #         35
  pAp =   1.060283180167516E-006  rzold =   1.978467317491928E-007  alpha = 
  0.186598010276778     
 delta_qm =   0.145281E-04 delta_en =   0.364722E-03 tol =   0.100000E-04
 Iteration #         36
  pAp =   7.989116015296479E-007  rzold =   1.538379692099671E-007  alpha = 
  0.192559438260026     
 delta_qm =   0.154551E-04 delta_en =   0.412752E-03 tol =   0.100000E-04
 Iteration #         37
  pAp =   6.829342773240201E-007  rzold =   1.276706595561789E-007  alpha = 
  0.186944284091931     
 delta_qm =   0.119537E-04 delta_en =   0.246915E-03 tol =   0.100000E-04
 Iteration #         38
  pAp =   5.188049778614424E-007  rzold =   1.000602107797239E-007  alpha = 
  0.192866713022262     
 delta_qm =   0.126807E-04 delta_en =   0.277865E-03 tol =   0.100000E-04
 Iteration #         39
  pAp =   4.466128915100363E-007  rzold =   8.359874893143736E-008  alpha = 
  0.187183913676972     
 delta_qm =   0.982942E-05 delta_en =   0.166955E-03 tol =   0.100000E-04
 Iteration #         40
  pAp =   3.412017549824722E-007  rzold =   6.587806077171076E-008  alpha = 
  0.193076558985152     
 delta_qm =   0.104077E-04 delta_en =   0.187179E-03 tol =   0.100000E-04
 Iteration #         41
  pAp =   2.951334627418598E-007  rzold =   5.529202040920250E-008  alpha = 
  0.187345819398202     
 delta_qm =   0.807949E-05 delta_en =   0.112801E-03 tol =   0.100000E-04
 Iteration #         42
  pAp =   2.263374303293897E-007  rzold =   4.373228178050387E-008  alpha = 
  0.193217187792846     
 delta_qm =   0.854407E-05 delta_en =   0.126146E-03 tol =   0.100000E-04
 Iteration #         43
  pAp =   1.964069796686217E-007  rzold =   3.681720557412259E-008  alpha = 
  0.187453651780811     
 delta_qm =   0.663951E-05 delta_en =   0.761755E-04 tol =   0.100000E-04
 Iteration #         44
  pAp =   1.510074902947792E-007  rzold =   2.919132685110791E-008  alpha = 
  0.193310456283486     
 delta_qm =   0.701523E-05 delta_en =   0.850408E-04 tol =   0.100000E-04
 Iteration #         45
  pAp =   1.313174886518071E-007  rzold =   2.462530988744817E-008  alpha = 
  0.187524983460071     
 delta_qm =   0.545543E-05 delta_en =   0.514282E-04 tol =   0.100000E-04
 Iteration #         46
  pAp =   1.011331874023637E-007  rzold =   1.955633624732392E-008  alpha = 
  0.193372094261382     
 delta_qm =   0.576064E-05 delta_en =   0.573437E-04 tol =   0.100000E-04
 Iteration #         47
  pAp =   8.806992148881321E-008  rzold =   1.651946411437170E-008  alpha = 
  0.187572145348966     
 delta_qm =   0.448221E-05 delta_en =   0.347159E-04 tol =   0.100000E-04
 Iteration #         48
  pAp =   6.790169551759252E-008  rzold =   1.313306557548803E-008  alpha = 
  0.193412925485571     
 delta_qm =   0.473087E-05 delta_en =   0.386745E-04 tol =   0.100000E-04
 Iteration #         49
  pAp =   5.918587179696473E-008  rzold =   1.110347614028776E-008  alpha = 
  0.187603490548857     
 delta_qm =   0.368252E-05 delta_en =   0.234333E-04 tol =   0.100000E-04
 Iteration #         50
  pAp =   4.566578201765914E-008  rzold =   8.833597693931245E-009  alpha = 
  0.193440193151959     
 delta_qm =   0.388548E-05 delta_en =   0.260875E-04 tol =   0.100000E-04
 Iteration #         51
  pAp =   3.982881458800755E-008  rzold =   7.472863589936679E-009  alpha = 
  0.187624554414601     
 delta_qm =   0.302551E-05 delta_en =   0.158177E-04 tol =   0.100000E-04
 Iteration #         52
  pAp =   3.074572697179034E-008  rzold =   5.948027159174401E-009  alpha = 
  0.193458660601254     
 delta_qm =   0.319137E-05 delta_en =   0.175994E-04 tol =   0.100000E-04
 Iteration #         53
  pAp =   2.682706013736066E-008  rzold =   5.033801528765299E-009  alpha = 
  0.187638954957833     
 delta_qm =   0.248578E-05 delta_en =   0.106775E-04 tol =   0.100000E-04
 Iteration #         54
  pAp =   2.071604181616251E-008  rzold =   4.007962162040069E-009  alpha = 
  0.193471426520924     
 delta_qm =   0.262142E-05 delta_en =   0.118745E-04 tol =   0.100000E-04
 Iteration #         55
  pAp =   1.808091678266162E-008  rzold =   3.392866621741594E-009  alpha = 
  0.187649036966705     
 delta_qm =   0.204239E-05 delta_en =   0.720812E-05 tol =   0.100000E-04
 Charges are converged, EXIT

%%%% ELECTRONS %%%%%%%%%%%%%%%%%%%%%%%%%%%%%%%%%%%%%%%%%%%%%%%%%%%%%%%%%%%%%%%%%
 number of electrons        =          8
 total electronic charge    =      8.0000000
 number of spin components  =  1

%%%% BOUNDARY %%%%%%%%%%%%%%%%%%%%%%%%%%%%%%%%%%%%%%%%%%%%%%%%%%%%%%%%%%%%%%%%%%
 boundary mode              = electronic           
 boundary is built as a function of a smooth density
 function type              =  2 
 using the modified SCCS function with parameters 
 rhomax                     =      0.0050000 
 rhomin                     =      0.0001000 
 volume of the QM region    =    295.4307151 
 surface of the QM region   =    214.3068577 

%%%% DIELECTRIC %%%%%%%%%%%%%%%%%%%%%%%%%%%%%%%%%%%%%%%%%%%%%%%%%%%%%%%%%%%%%%%%%
 dielectric build on homogeneous background
 environment bulk permitt.  =    100.0000000 
 dielectric flags
 need gradient              =  F 
 need factor depend. sqrt   =  T 
 need gradient of logarithm =  T 

%%%% COMPUTE ELECTROSTATIC POTENTIAL %%%%%%%%%%%%%%%%%%%%%%%%%%%%%%%%%%%%%%%%%%%
 Warning: bad guess with residual norm =   0.265389E+02, reset to no guess
 Iteration #          1
  pAp =    28.8382799768757       rzold =    28.4041478936203       alpha = 
  0.984945978622736     
 delta_qm =   0.106346E-01 delta_en =   0.195429E+03 tol =   0.100000E-04
 Iteration #          2
  pAp =    19.7052909934379       rzold =    2.55651367424490       alpha = 
  0.129737423065523     
 delta_qm =   0.259415E-02 delta_en =   0.116287E+02 tol =   0.100000E-04
 Iteration #          3
  pAp =    1.59224104754533       rzold =   0.177251424952592       alpha = 
  0.111321979310765     
 delta_qm =   0.924834E-03 delta_en =   0.147799E+01 tol =   0.100000E-04
 Iteration #          4
  pAp =   0.131107880150375       rzold =   2.222927856877160E-002  alpha = 
  0.169549523211539     
 delta_qm =   0.883642E-03 delta_en =   0.134926E+01 tol =   0.100000E-04
 Iteration #          5
  pAp =   6.742874747560887E-002  rzold =   9.352049834163472E-003  alpha = 
  0.138695292205248     
 delta_qm =   0.483436E-03 delta_en =   0.403852E+00 tol =   0.100000E-04
 Iteration #          6
  pAp =   2.134468589342977E-002  rzold =   4.122307999017745E-003  alpha = 
  0.193130412862466     
 delta_qm =   0.593714E-03 delta_en =   0.609113E+00 tol =   0.100000E-04
 Iteration #          7
  pAp =   2.625184655832351E-002  rzold =   3.721825741943809E-003  alpha = 
  0.141773864694625     
 delta_qm =   0.320972E-03 delta_en =   0.178024E+00 tol =   0.100000E-04
 Iteration #          8
  pAp =   9.515459073753223E-003  rzold =   1.846666353961190E-003  alpha = 
  0.194070127321014     
 delta_qm =   0.408052E-03 delta_en =   0.287723E+00 tol =   0.100000E-04
 Iteration #          9
  pAp =   1.211814807975078E-002  rzold =   1.720713531877361E-003  alpha = 
  0.141994760301093     
 delta_qm =   0.217044E-03 delta_en =   0.814029E-01 tol =   0.100000E-04
 Iteration #         10
  pAp =   4.425879509715026E-003  rzold =   8.603414111185448E-004  alpha = 
  0.194388800967142     
 delta_qm =   0.288867E-03 delta_en =   0.144192E+00 tol =   0.100000E-04
 Iteration #         11
  pAp =   5.678724855498597E-003  rzold =   8.072428497937115E-004  alpha = 
  0.142152132800038     
 delta_qm =   0.154826E-03 delta_en =   0.414220E-01 tol =   0.100000E-04
 Iteration #         12
  pAp =   2.084455364921181E-003  rzold =   4.058023081104100E-004  alpha = 
  0.194680257941505     
 delta_qm =   0.211245E-03 delta_en =   0.771112E-01 tol =   0.100000E-04
 Iteration #         13
  pAp =   2.692036148590035E-003  rzold =   3.831100317925498E-004  alpha = 
  0.142312365305052     
 delta_qm =   0.116958E-03 delta_en =   0.236378E-01 tol =   0.100000E-04
 Iteration #         14
  pAp =   9.930968953734253E-004  rzold =   1.936526281008053E-004  alpha = 
  0.194998724699454     
 delta_qm =   0.159261E-03 delta_en =   0.438291E-01 tol =   0.100000E-04
 Iteration #         15
  pAp =   1.291598075348489E-003  rzold =   1.840490035543147E-004  alpha = 
  0.142497118157021     
 delta_qm =   0.927370E-04 delta_en =   0.148611E-01 tol =   0.100000E-04
 Iteration #         16
  pAp =   4.791808311534352E-004  rzold =   9.362370125541387E-005  alpha = 
  0.195382818277710     
 delta_qm =   0.123321E-03 delta_en =   0.262795E-01 tol =   0.100000E-04
 Iteration #         17
  pAp =   6.284428492087282E-004  rzold =   8.969602873930028E-005  alpha = 
  0.142727423587103     
 delta_qm =   0.760895E-04 delta_en =   0.100044E-01 tol =   0.100000E-04
 Iteration #         18
  pAp =   2.347857230656583E-004  rzold =   4.598834687289021E-005  alpha = 
  0.195873693989602     
 delta_qm =   0.976433E-04 delta_en =   0.164751E-01 tol =   0.100000E-04
 Iteration #         19
  pAp =   3.111993830850958E-004  rzold =   4.450946130377203E-005  alpha = 
  0.143025544789082     
 delta_qm =   0.637542E-04 delta_en =   0.702362E-02 tol =   0.100000E-04
 Iteration #         20
  pAp =   1.173127610012226E-004  rzold =   2.305348129157173E-005  alpha = 
  0.196512988824221     
 delta_qm =   0.787092E-04 delta_en =   0.107052E-01 tol =   0.100000E-04
 Iteration #         21
  pAp =   1.576417725873773E-004  rzold =   2.260768339303514E-005  alpha = 
  0.143411755792737     
 delta_qm =   0.540342E-04 delta_en =   0.504523E-02 tol =   0.100000E-04
 Iteration #         22
  pAp =   6.011928901221655E-005  rzold =   1.186353032280056E-005  alpha = 
  0.197333177383216     
 delta_qm =   0.643413E-04 delta_en =   0.715358E-02 tol =   0.100000E-04
 Iteration #         23
  pAp =   8.221633524298806E-005  rzold =   1.183070299556915E-005  alpha = 
  0.143897231135441     
 delta_qm =   0.460469E-04 delta_en =   0.366391E-02 tol =   0.100000E-04
 Iteration #         24
  pAp =   3.181436209902541E-005  rzold =   6.310097833299407E-006  alpha = 
  0.198341170998764     
 delta_qm =   0.531630E-04 delta_en =   0.488385E-02 tol =   0.100000E-04
 Iteration #         25
  pAp =   4.445363485668098E-005  rzold =   6.422417902799988E-006  alpha = 
  0.144474527752476     
 delta_qm =   0.393181E-04 delta_en =   0.267134E-02 tol =   0.100000E-04
 Iteration #         26
  pAp =   1.750213509837627E-005  rzold =   3.491695966010570E-006  alpha = 
  0.199501143511028     
 delta_qm =   0.442816E-04 delta_en =   0.338836E-02 tol =   0.100000E-04
 Iteration #         27
  pAp =   2.506703310806581E-005  rzold =   3.637504991187298E-006  alpha = 
  0.145111109699570     
 delta_qm =   0.335758E-04 delta_en =   0.194803E-02 tol =   0.100000E-04
 Iteration #         28
  pAp =   1.005964873932014E-005  rzold =   2.019274786796833E-006  alpha = 
  0.200730148648640     
 delta_qm =   0.371027E-04 delta_en =   0.237879E-02 tol =   0.100000E-04
 Iteration #         29
  pAp =   1.478915880450353E-005  rzold =   2.155573301379828E-006  alpha = 
  0.145753611133273     
 delta_qm =   0.286494E-04 delta_en =   0.141832E-02 tol =   0.100000E-04
 Iteration #         30
  pAp =   6.050670377653923E-006  rzold =   1.221740911865480E-006  alpha = 
  0.201918272788014     
 delta_qm =   0.312204E-04 delta_en =   0.168430E-02 tol =   0.100000E-04
 Iteration #         31
  pAp =   9.122656092228386E-006  rzold =   1.335052454608634E-006  alpha = 
  0.146344709381949     
 delta_qm =   0.244195E-04 delta_en =   0.103042E-02 tol =   0.100000E-04
 Iteration #         32
  pAp =   3.799239035119767E-006  rzold =   7.711188032296779E-007  alpha = 
  0.202966645715507     
 delta_qm =   0.263498E-04 delta_en =   0.119977E-02 tol =   0.100000E-04
 Iteration #         33
  pAp =   5.856965483856956E-006  rzold =   8.600541888388654E-007  alpha = 
  0.146842966927047     
 delta_qm =   0.207927E-04 delta_en =   0.747076E-03 tol =   0.100000E-04
 Iteration #         34
  pAp =   2.476023671014433E-006  rzold =   5.046595718305063E-007  alpha = 
  0.203818557043013     
 delta_qm =   0.222856E-04 delta_en =   0.858204E-03 tol =   0.100000E-04
 Iteration #         35
  pAp =   3.886624940891121E-006  rzold =   5.722378227300421E-007  alpha = 
  0.147232581335425     
 delta_qm =   0.176900E-04 delta_en =   0.540753E-03 tol =   0.100000E-04
 Iteration #         36
  pAp =   1.662432974106572E-006  rzold =   3.399100301743357E-007  alpha = 
  0.204465404301193     
 delta_qm =   0.188755E-04 delta_en =   0.615657E-03 tol =   0.100000E-04
 Iteration #         37
  pAp =   2.645526760131917E-006  rzold =   3.902674279811132E-007  alpha = 
  0.147519743085741     
 delta_qm =   0.150415E-04 delta_en =   0.390953E-03 tol =   0.100000E-04
 Iteration #         38
  pAp =   1.141392170797659E-006  rzold =   2.339076539420757E-007  alpha = 
  0.204931889254690     
 delta_qm =   0.160032E-04 delta_en =   0.442543E-03 tol =   0.100000E-04
 Iteration #         39
  pAp =   1.834388916589397E-006  rzold =   2.709804559845542E-007  alpha = 
  0.147722466884709     
 delta_qm =   0.127847E-04 delta_en =   0.282441E-03 tol =   0.100000E-04
 Iteration #         40
  pAp =   7.962727707585208E-007  rzold =   1.634400393944580E-007  alpha = 
  0.205256346061874     
 delta_qm =   0.135774E-04 delta_en =   0.318549E-03 tol =   0.100000E-04
 Iteration #         41
  pAp =   1.288544508395950E-006  rzold =   1.905261184582125E-007  alpha = 
  0.147861495832526     
 delta_qm =   0.108643E-04 delta_en =   0.203962E-03 tol =   0.100000E-04
 Iteration #         42
  pAp =   5.616748104905214E-007  rzold =   1.154111629840058E-007  alpha = 
  0.205476836113079     
 delta_qm =   0.115250E-04 delta_en =   0.229524E-03 tol =   0.100000E-04
 Iteration #         43
  pAp =   9.131601162691861E-007  rzold =   1.351067878069842E-007  alpha = 
  0.147955200188744     
 delta_qm =   0.923150E-05 delta_en =   0.147261E-03 tol =   0.100000E-04
 Iteration #         44
  pAp =   3.991673262274735E-007  rzold =   8.207869327860425E-008  alpha = 
  0.205624779097851     
 delta_qm =   0.978643E-05 delta_en =   0.165498E-03 tol =   0.100000E-04
 Iteration #         45
  pAp =   6.509897512936049E-007  rzold =   9.635810489214443E-008  alpha = 
  0.148017852355844     
 delta_qm =   0.784395E-05 delta_en =   0.106320E-03 tol =   0.100000E-04
 Iteration #         46
  pAp =   2.851010320119249E-007  rzold =   5.865202086526909E-008  alpha = 
  0.205723635762974     
 delta_qm =   0.831235E-05 delta_en =   0.119396E-03 tol =   0.100000E-04
 Iteration #         47
  pAp =   4.659333748901973E-007  rzold =   6.898597245787270E-008  alpha = 
  0.148059735952871     
 delta_qm =   0.666516E-05 delta_en =   0.767654E-04 tol =   0.100000E-04
 Iteration #         48
  pAp =   2.043118643680689E-007  rzold =   4.204532040529564E-008  alpha = 
  0.205789911101544     
 delta_qm =   0.706177E-05 delta_en =   0.861728E-04 tol =   0.100000E-04
 Iteration #         49
  pAp =   3.343682439615569E-007  rzold =   4.951590089025039E-008  alpha = 
  0.148087929354749     
 delta_qm =   0.566386E-05 delta_en =   0.554330E-04 tol =   0.100000E-04
 Iteration #         50
  pAp =   1.467442290857235E-007  rzold =   3.020506897952442E-008  alpha = 
  0.205834799553716     
 delta_qm =   0.600033E-05 delta_en =   0.622149E-04 tol =   0.100000E-04
 Iteration #         51
  pAp =   2.403822453871066E-007  rzold =   3.560233376472629E-008  alpha = 
  0.148107168677924     
 delta_qm =   0.481334E-05 delta_en =   0.400347E-04 tol =   0.100000E-04
 Iteration #         52
  pAp =   1.055571566292643E-007  rzold =   2.173060037573857E-008  alpha = 
  0.205865723079870     
 delta_qm =   0.509914E-05 delta_en =   0.449301E-04 tol =   0.100000E-04
 Iteration #         53
  pAp =   1.730257441743084E-007  rzold =   2.562867143236282E-008  alpha = 
  0.148120567576026     
 delta_qm =   0.409087E-05 delta_en =   0.289184E-04 tol =   0.100000E-04
 Iteration #         54
  pAp =   7.600971006102396E-008  rzold =   1.564945174689298E-008  alpha = 
  0.205887533768106     
 delta_qm =   0.433379E-05 delta_en =   0.324549E-04 tol =   0.100000E-04
 Iteration #         55
  pAp =   1.246493977317623E-007  rzold =   1.846433412341813E-008  alpha = 
  0.148130151123171     
 delta_qm =   0.347713E-05 delta_en =   0.208922E-04 tol =   0.100000E-04
 Iteration #         56
  pAp =   5.477366895761169E-008  rzold =   1.127808340660386E-008  alpha = 
  0.205903376955299     
 delta_qm =   0.368369E-05 delta_en =   0.234482E-04 tol =   0.100000E-04
 Iteration #         57
  pAp =   8.985376947701357E-008  rzold =   1.331068835162731E-008  alpha = 
  0.148137228177527     
 delta_qm =   0.295570E-05 delta_en =   0.150961E-04 tol =   0.100000E-04
 Iteration #         58
  pAp =   3.949195205785653E-008  rzold =   8.131996449442537E-009  alpha = 
  0.205915282119481     
 delta_qm =   0.313138E-05 delta_en =   0.169440E-04 tol =   0.100000E-04
 Iteration #         59
  pAp =   6.480080108552531E-008  rzold =   9.599761881555380E-009  alpha = 
  0.148142642077610     
 delta_qm =   0.251266E-05 delta_en =   0.109097E-04 tol =   0.100000E-04
 Iteration #         60
  pAp =   2.848535932637409E-008  rzold =   5.865834980608400E-009  alpha = 
  0.205924556309786     
 delta_qm =   0.266209E-05 delta_en =   0.122459E-04 tol =   0.100000E-04
 Iteration #         61
  pAp =   4.674947468088468E-008  rzold =   6.925791427778206E-009  alpha = 
  0.148146935875839     
 delta_qm =   0.213619E-05 delta_en =   0.788539E-05 tol =   0.100000E-04
 Charges are converged, EXIT

%%%% ELECTRONS %%%%%%%%%%%%%%%%%%%%%%%%%%%%%%%%%%%%%%%%%%%%%%%%%%%%%%%%%%%%%%%%%
 number of electrons        =          8
 total electronic charge    =      8.0000000
 number of spin components  =  1

%%%% BOUNDARY %%%%%%%%%%%%%%%%%%%%%%%%%%%%%%%%%%%%%%%%%%%%%%%%%%%%%%%%%%%%%%%%%%
 boundary mode              = electronic           
 boundary is built as a function of a smooth density
 function type              =  2 
 using the modified SCCS function with parameters 
 rhomax                     =      0.0050000 
 rhomin                     =      0.0001000 
 volume of the QM region    =    295.4307151 
 surface of the QM region   =    214.3068577 

%%%% DIELECTRIC %%%%%%%%%%%%%%%%%%%%%%%%%%%%%%%%%%%%%%%%%%%%%%%%%%%%%%%%%%%%%%%%%
 dielectric build on homogeneous background
 environment bulk permitt.  =    100.0000000 
 dielectric flags
 need gradient              =  F 
 need factor depend. sqrt   =  T 
 need gradient of logarithm =  T 
