
     Program PWSCF v.6.7+ starts on 20Apr2021 at 12:39:44 

     This program is part of the open-source Quantum ESPRESSO suite
     for quantum simulation of materials; please cite
         "P. Giannozzi et al., J. Phys.:Condens. Matter 21 395502 (2009);
         "P. Giannozzi et al., J. Phys.:Condens. Matter 29 465901 (2017);
          URL http://www.quantum-espresso.org", 
     in publications or presentations arising from this work. More details at
     http://www.quantum-espresso.org/quote

     Parallel version (MPI), running on     1 processors

     MPI processes distributed on     1 nodes
     Reading input from charged.in

     Current dimensions of program PWSCF are:
     Max number of different atomic species (ntypx) = 10
     Max number of k-points (npk) =  40000
     Max angular momentum in pseudopotentials (lmaxx) =  3
     file C.pbe-rrkjus.UPF: wavefunction(s)  2S 2P renormalized
     file H.pbe-rrkjus.UPF: wavefunction(s)  1S renormalized
     file N.pbe-rrkjus.UPF: wavefunction(s)  2S renormalized
     file O.pbe-rrkjus.UPF: wavefunction(s)  2S renormalized

     gamma-point specific algorithms are used

     Subspace diagonalization in iterative solution of the eigenvalue problem:
     a serial algorithm will be used


     G-vector sticks info
     --------------------
     sticks:   dense  smooth     PW     G-vecs:    dense   smooth      PW
     Sum        9549    3809    949               701475   177509   22119



     bravais-lattice index     =            1
     lattice parameter (alat)  =      20.0000  a.u.
     unit-cell volume          =    8000.0000 (a.u.)^3
     number of atoms/cell      =           10
     number of atomic types    =            4
     number of electrons       =        24.00
     number of Kohn-Sham states=           12
     kinetic-energy cutoff     =      30.0000  Ry
     charge density cutoff     =     300.0000  Ry
     scf convergence threshold =      5.0E-06
     mixing beta               =       0.7000
     number of iterations used =            8  plain     mixing
     Exchange-correlation= SLA  PW   PBE  PBE
                           (   1   4   3   4   0   0   0)


     Environ Module
     ==============

     Plese cite
         O. Andreussi, I. Dabo and N. Marzari, J. Chem. Phys. 136, 064102 (2012)         
     in publications or presentations arising from this work.

     compensation onset threshold      =               0.1000E+03 
     static permittivity               =                   100.00 
     epsilon calculation mode          =                   system 

     Electrostatic Setup
     -------------------
     electrostatic problem to solve    = generalized              
     numerical solver adopted          = iterative                
     type of auxiliary density adopted = full                     
     type of core tool for poisson     = fft                      



     celldm(1)=  20.000000  celldm(2)=   0.000000  celldm(3)=   0.000000
     celldm(4)=   0.000000  celldm(5)=   0.000000  celldm(6)=   0.000000

     crystal axes: (cart. coord. in units of alat)
               a(1) = (   1.000000   0.000000   0.000000 )  
               a(2) = (   0.000000   1.000000   0.000000 )  
               a(3) = (   0.000000   0.000000   1.000000 )  

     reciprocal axes: (cart. coord. in units 2 pi/alat)
               b(1) = (  1.000000  0.000000  0.000000 )  
               b(2) = (  0.000000  1.000000  0.000000 )  
               b(3) = (  0.000000  0.000000  1.000000 )  


     PseudoPot. # 1 for C  read from file:
     /Users/gabrielmedrano/Desktop/q-e/Environ/tests/../..//pseudo/C.pbe-rrkjus.UPF
     MD5 check sum: c9ac5a99bc85b198593446162950cd17
     Pseudo is Ultrasoft, Zval =  4.0
     Generated by new atomic code, or converted to UPF format
     Using radial grid of  627 points,  4 beta functions with: 
                l(1) =   0
                l(2) =   0
                l(3) =   1
                l(4) =   1
     Q(r) pseudized with 0 coefficients 


     PseudoPot. # 2 for H  read from file:
     /Users/gabrielmedrano/Desktop/q-e/Environ/tests/../..//pseudo/H.pbe-rrkjus.UPF
     MD5 check sum: 2d52a7f45632fd764c17cc6affed14c8
     Pseudo is Ultrasoft, Zval =  1.0
     Generated by new atomic code, or converted to UPF format
     Using radial grid of 1061 points,  2 beta functions with: 
                l(1) =   0
                l(2) =   0
     Q(r) pseudized with 0 coefficients 


     PseudoPot. # 3 for N  read from file:
     /Users/gabrielmedrano/Desktop/q-e/Environ/tests/../..//pseudo/N.pbe-rrkjus.UPF
     MD5 check sum: 28c76d763763edb36c62a6ca2be9aebd
     Pseudo is Ultrasoft, Zval =  5.0
     Generated by new atomic code, or converted to UPF format
     Using radial grid of 1257 points,  4 beta functions with: 
                l(1) =   0
                l(2) =   0
                l(3) =   1
                l(4) =   1
     Q(r) pseudized with 0 coefficients 


     PseudoPot. # 4 for O  read from file:
     /Users/gabrielmedrano/Desktop/q-e/Environ/tests/../..//pseudo/O.pbe-rrkjus.UPF
     MD5 check sum: fadcf19ee70a498d3030e2e79cf929a4
     Pseudo is Ultrasoft, Zval =  6.0
     Generated by new atomic code, or converted to UPF format
     Using radial grid of 1269 points,  4 beta functions with: 
                l(1) =   0
                l(2) =   0
                l(3) =   1
                l(4) =   1
     Q(r) pseudized with 0 coefficients 


     atomic species   valence    mass     pseudopotential
        C              4.00    12.00000     C ( 1.00)
        H              1.00     1.00000     H ( 1.00)
        N              5.00    14.00000     N ( 1.00)
        O              6.00    16.00000     O ( 1.00)

     No symmetry found



   Cartesian axes

     site n.     atom                  positions (alat units)
         1           C   tau(   1) = (   0.0000000   0.0000000   0.0000000  )
         2           C   tau(   2) = (   0.0000000   0.0000000   0.1455089  )
         3           N   tau(   3) = (   0.1170969   0.0000000  -0.0545024  )
         4           H   tau(   4) = (   0.0476617  -0.0825466   0.1792090  )
         5           H   tau(   5) = (  -0.0953183  -0.0000030   0.1792090  )
         6           H   tau(   6) = (   0.0476566   0.0825496   0.1792090  )
         7           O   tau(   7) = (  -0.0984002  -0.0000019  -0.0641310  )
         8           H   tau(   8) = (   0.1263131  -0.0000015  -0.1475548  )
         9           H   tau(   9) = (   0.1944645   0.0000134  -0.0025716  )
        10           H   tau(  10) = (  -0.0770366  -0.0000045  -0.1522861  )

     number of k points=     1
                       cart. coord. in units 2pi/alat
        k(    1) = (   0.0000000   0.0000000   0.0000000), wk =   2.0000000

     Dense  grid:   350738 G-vectors     FFT dimensions: ( 120, 120, 120)

     Smooth grid:    88755 G-vectors     FFT dimensions: (  72,  72,  72)

     Estimated max dynamical RAM per process >     624.11 MB

     Initial potential from superposition of free atoms

     starting charge   24.42266, renormalised to   24.00000

     negative rho (up, down):  4.438E-04 0.000E+00
     Starting wfcs are   22 randomized atomic wfcs

     total cpu time spent up to now is        5.7 secs

     Self-consistent Calculation

     iteration #  1     ecut=    30.00 Ry     beta= 0.70
     Davidson diagonalization with overlap
     ethr =  1.00E-02,  avg # of iterations =  2.0

     negative rho (up, down):  1.234E-04 0.000E+00

     add environment contribution to local potential
     polarization accuracy = 5.1E-06, # of iterations =  22

     total cpu time spent up to now is       14.6 secs

     total energy              =     -80.29562589 Ry
     estimated scf accuracy    <       3.64924908 Ry
     electrostatic embedding   =       0.00000000 Ry
     correction to one-el term =      -0.00000000 Ry

     iteration #  2     ecut=    30.00 Ry     beta= 0.70
     Davidson diagonalization with overlap
     ethr =  1.00E-02,  avg # of iterations =  5.0

     negative rho (up, down):  6.337E-04 0.000E+00

     add environment contribution to local potential
     polarization accuracy = 7.4E-06, # of iterations =  16

     total cpu time spent up to now is       22.0 secs

     total energy              =     -81.11660167 Ry
     estimated scf accuracy    <       1.32137644 Ry
     electrostatic embedding   =      -0.27301765 Ry
     correction to one-el term =      -5.02176510 Ry

     iteration #  3     ecut=    30.00 Ry     beta= 0.70
     Davidson diagonalization with overlap
     ethr =  5.51E-03,  avg # of iterations =  4.0

     negative rho (up, down):  2.814E-04 0.000E+00

     add environment contribution to local potential
     polarization accuracy = 7.4E-06, # of iterations =  15

     total cpu time spent up to now is       29.2 secs

     total energy              =     -81.39163446 Ry
     estimated scf accuracy    <       0.16252847 Ry
     electrostatic embedding   =      -0.23778036 Ry
     correction to one-el term =      -4.55803645 Ry

     iteration #  4     ecut=    30.00 Ry     beta= 0.70
     Davidson diagonalization with overlap
     ethr =  6.77E-04,  avg # of iterations =  4.0

     negative rho (up, down):  7.449E-05 0.000E+00

     add environment contribution to local potential
     polarization accuracy = 8.7E-06, # of iterations =  12

     total cpu time spent up to now is       35.5 secs

     total energy              =     -81.43608030 Ry
     estimated scf accuracy    <       0.01566441 Ry
     electrostatic embedding   =      -0.19337855 Ry
     correction to one-el term =      -4.17606673 Ry

     iteration #  5     ecut=    30.00 Ry     beta= 0.70
     Davidson diagonalization with overlap
     ethr =  6.53E-05,  avg # of iterations =  4.0

     negative rho (up, down):  7.928E-05 0.000E+00

     add environment contribution to local potential
     polarization accuracy = 6.5E-06, # of iterations =   8

     total cpu time spent up to now is       40.6 secs

     total energy              =     -81.43976324 Ry
     estimated scf accuracy    <       0.00134094 Ry
     electrostatic embedding   =      -0.17372992 Ry
     correction to one-el term =      -3.85804394 Ry

     iteration #  6     ecut=    30.00 Ry     beta= 0.70
     Davidson diagonalization with overlap
     ethr =  5.59E-06,  avg # of iterations =  3.0

     negative rho (up, down):  1.126E-04 0.000E+00

     add environment contribution to local potential
     polarization accuracy = 6.0E-06, # of iterations =   5

     total cpu time spent up to now is       44.9 secs

     total energy              =     -81.44009777 Ry
     estimated scf accuracy    <       0.00017710 Ry
     electrostatic embedding   =      -0.17190136 Ry
     correction to one-el term =      -3.82042527 Ry

     iteration #  7     ecut=    30.00 Ry     beta= 0.70
     Davidson diagonalization with overlap
     ethr =  7.38E-07,  avg # of iterations =  2.0

     negative rho (up, down):  2.569E-04 0.000E+00

     add environment contribution to local potential
     polarization accuracy = 6.0E-06, # of iterations =   3

     total cpu time spent up to now is       48.7 secs

     total energy              =     -81.44015338 Ry
     estimated scf accuracy    <       0.00001051 Ry
     electrostatic embedding   =      -0.17133848 Ry
     correction to one-el term =      -3.80600645 Ry

     iteration #  8     ecut=    30.00 Ry     beta= 0.70
     Davidson diagonalization with overlap
     ethr =  4.38E-08,  avg # of iterations =  5.0

     negative rho (up, down):  2.803E-04 0.000E+00

     add environment contribution to local potential
     polarization accuracy = 7.0E-06, # of iterations =   1

     total cpu time spent up to now is       52.2 secs

     total energy              =     -81.44015343 Ry
     estimated scf accuracy    <       0.00000652 Ry
     electrostatic embedding   =      -0.17082786 Ry
     correction to one-el term =      -3.79706280 Ry

     iteration #  9     ecut=    30.00 Ry     beta= 0.70
     Davidson diagonalization with overlap
     ethr =  2.71E-08,  avg # of iterations =  3.0

     negative rho (up, down):  2.730E-04 0.000E+00

     the potential shift due to the Gaussian-smeared nuclei is    -0.0668 ev

     total cpu time spent up to now is       54.6 secs

     End of self-consistent calculation

          k = 0.0000 0.0000 0.0000 ( 11060 PWs)   bands (ev):

   -29.2894 -23.1954 -18.5478 -16.1188 -14.7105 -13.3990 -11.9092 -11.0264
    -9.4108  -9.3776  -9.0742  -7.5273

     highest occupied level (ev):    -7.5273

!    total energy              =     -81.44016105 Ry
     estimated scf accuracy    <       0.00000035 Ry

     The total energy is the sum of the following terms:
     one-electron contribution =    -241.96723165 Ry
     hartree contribution      =     123.08260406 Ry
     xc contribution           =     -22.89674019 Ry
     ewald contribution        =      64.30784069 Ry
     electrostatic embedding   =      -0.17082632 Ry
     correction to one-el term =      -3.79580765 Ry

     convergence has been achieved in   9 iterations
 forces lc
       1    0.0580    0.0000   -0.0337
       2    0.0235    0.0000    0.1092
       3    0.1364    0.0000   -0.1301
       4    0.0153   -0.0151    0.0671
       5   -0.0387   -0.0000    0.1027
       6    0.0153    0.0151    0.0671
       7    0.1108   -0.0000   -0.1951
       8    0.0620    0.0000   -0.0888
       9    0.0692    0.0000   -0.0181
      10   -0.0096   -0.0000   -0.0827

     Forces acting on atoms (cartesian axes, Ry/au):

     atom    1 type  1   force =     0.23406923    0.00000162    0.11277311
     atom    2 type  1   force =    -0.03837227    0.00000141   -0.09115458
     atom    3 type  3   force =    -0.15357581   -0.00000078    0.03723705
     atom    4 type  2   force =     0.02642457   -0.05025738    0.04474256
     atom    5 type  2   force =    -0.07772344   -0.00000178    0.07237933
     atom    6 type  2   force =     0.02642196    0.05026060    0.04474599
     atom    7 type  4   force =    -0.10847468   -0.00000877   -0.02493823
     atom    8 type  2   force =     0.04614847    0.00000121   -0.11608825
     atom    9 type  2   force =     0.08073087    0.00000477    0.02933135
     atom   10 type  2   force =    -0.03564889   -0.00000090   -0.10902833

     Total force =     0.415358     Total SCF correction =     0.000722

     Writing output data file /Users/gabrielmedrano/Desktop/q-e/Environ/tests/../..//tempdir/pwscf.save/

     init_run     :      5.12s CPU      5.62s WALL (       1 calls)
     electrons    :     49.85s CPU     48.89s WALL (       1 calls)
     forces       :      1.83s CPU      2.04s WALL (       1 calls)

     Called by init_run:
     wfcinit      :      0.12s CPU      0.12s WALL (       1 calls)
     potinit      :      1.07s CPU      1.15s WALL (       1 calls)
     hinit0       :      3.25s CPU      3.39s WALL (       1 calls)

     Called by electrons:
     c_bands      :      2.00s CPU      1.66s WALL (       9 calls)
     sum_band     :     11.51s CPU      7.01s WALL (       9 calls)
     v_of_rho     :      5.67s CPU      6.61s WALL (      10 calls)
     newd         :      3.87s CPU      5.45s WALL (      10 calls)
     mix_rho      :      0.69s CPU      0.78s WALL (       9 calls)

     Called by c_bands:
     init_us_2    :      0.07s CPU      0.07s WALL (      19 calls)
     regterg      :      1.90s CPU      1.57s WALL (       9 calls)

     Called by *egterg:
     rdiaghg      :      0.01s CPU      0.01s WALL (      41 calls)
     h_psi        :      1.67s CPU      1.53s WALL (      42 calls)
     s_psi        :      0.12s CPU      0.02s WALL (      42 calls)
     g_psi        :      0.01s CPU      0.01s WALL (      32 calls)

     Called by h_psi:
     h_psi:calbec :      0.05s CPU      0.04s WALL (      42 calls)
     vloc_psi     :      1.39s CPU      1.40s WALL (      42 calls)
     add_vuspsi   :      0.22s CPU      0.08s WALL (      42 calls)

     General routines
     calbec       :      0.07s CPU      0.06s WALL (      55 calls)
     fft          :     21.56s CPU     22.59s WALL (     515 calls)
     ffts         :      0.10s CPU      0.10s WALL (      19 calls)
     fftw         :      1.26s CPU      1.27s WALL (     406 calls)
     interpolate  :      0.46s CPU      0.52s WALL (      10 calls)

     Parallel routines
     fft_scatt_xy :      2.03s CPU      2.04s WALL (     401 calls)
     fft_scatt_yz :      2.67s CPU      2.68s WALL (     401 calls)

     Environ routines
     calc_eelect  :      0.04s CPU      0.04s WALL (      18 calls)
     calc_velect  :     22.51s CPU     23.73s WALL (      16 calls)
     dielectric   :      0.08s CPU      0.09s WALL (       2 calls)
     calc_felect  :      0.35s CPU      0.37s WALL (       1 calls)

     PWSCF        :     56.90s CPU     56.75s WALL


   This run was terminated on:  12:40:41  20Apr2021            

=------------------------------------------------------------------------------=
   JOB DONE.
=------------------------------------------------------------------------------=
 Calling electrostatic_initbase now
 electrolyte_distance:    0.0000000000000000     
 sc_distance:    0.0000000000000000     
 velectrostatic started
 vreference created

%%%% IONS %%%%%%%%%%%%%%%%%%%%%%%%%%%%%%%%%%%%%%%%%%%%%%%%%%%%%%%%%%%%%%%%%%%%%%
 number of ions             =         10
 ionic center of charge     =      0.0095530    -0.0000002     0.0063981
 total ionic charge         =    -25.0000000
 ionic dipole               =      0.0000000     0.0000000     0.0000000
 ionic quadrupole (pc)      =    -79.0828051    -5.4513517  -105.8059620
 ionic quadrupole (gauss)   =    -82.2078051    -8.5763517  -108.9309620
 ion   1 type =  1 coordinates =      0.0000000     0.0000000     0.0000000
 ion   2 type =  1 coordinates =      0.0000000     0.0000000     2.9101782
 ion   3 type =  3 coordinates =      2.3419379     0.0000000    -1.0900479
 ion   4 type =  2 coordinates =      0.9532347    -1.6509323     3.5841800
 ion   5 type =  2 coordinates =     -1.9063663    -0.0000596     3.5841809
 ion   6 type =  2 coordinates =      0.9531315     1.6509919     3.5841800
 ion   7 type =  4 coordinates =     -1.9680045    -0.0000375    -1.2826193
 ion   8 type =  2 coordinates =      2.5262613    -0.0000303    -2.9510950
 ion   9 type =  2 coordinates =      3.8892907     0.0002681    -0.0514326
 ion  10 type =  2 coordinates =     -1.5407317    -0.0000890    -3.0457220

%%%% SYSTEM %%%%%%%%%%%%%%%%%%%%%%%%%%%%%%%%%%%%%%%%%%%%%%%%%%%%%%%%%%%%%%%%%%%%
 system is built from all present ionic types
 system defined dimension   =  0 
 system defined axis        =  3 
 system center              =      0.0095530    -0.0000002     0.0063981 
 system width               =      0.2021425 

%%%% IONS %%%%%%%%%%%%%%%%%%%%%%%%%%%%%%%%%%%%%%%%%%%%%%%%%%%%%%%%%%%%%%%%%%%%%%
 number of ions             =         10
 ionic center of charge     =      0.0095530    -0.0000002     0.0063981
 total ionic charge         =    -25.0000000
 ionic dipole               =      0.0000000     0.0000000     0.0000000
 ionic quadrupole (pc)      =    -79.0828051    -5.4513517  -105.8059620
 ionic quadrupole (gauss)   =    -82.2078051    -8.5763517  -108.9309620
 ion   1 type =  1 coordinates =      0.0000000     0.0000000     0.0000000
 ion   2 type =  1 coordinates =      0.0000000     0.0000000     2.9101782
 ion   3 type =  3 coordinates =      2.3419379     0.0000000    -1.0900479
 ion   4 type =  2 coordinates =      0.9532347    -1.6509323     3.5841800
 ion   5 type =  2 coordinates =     -1.9063663    -0.0000596     3.5841809
 ion   6 type =  2 coordinates =      0.9531315     1.6509919     3.5841800
 ion   7 type =  4 coordinates =     -1.9680045    -0.0000375    -1.2826193
 ion   8 type =  2 coordinates =      2.5262613    -0.0000303    -2.9510950
 ion   9 type =  2 coordinates =      3.8892907     0.0002681    -0.0514326
 ion  10 type =  2 coordinates =     -1.5407317    -0.0000890    -3.0457220

%%%% SYSTEM %%%%%%%%%%%%%%%%%%%%%%%%%%%%%%%%%%%%%%%%%%%%%%%%%%%%%%%%%%%%%%%%%%%%
 system is built from all present ionic types
 system defined dimension   =  0 
 system defined axis        =  3 
 system center              =      0.0095530    -0.0000002     0.0063981 
 system width               =      0.2021425 

%%%% BOUNDARY %%%%%%%%%%%%%%%%%%%%%%%%%%%%%%%%%%%%%%%%%%%%%%%%%%%%%%%%%%%%%%%%%%
 boundary label             = solvent              
 boundary mode              = system               
 boundary is built as an analytic function centered on system position
 center of the boundary     =      0.0095530    -0.0000002     0.0063981 
 distance from the center   =      6.0000000 
 spread of the interface    =      0.5000000 
 dimensionality             =  0 
 axis                       =  3 
 volume of the QM region    =    914.2034622 
 surface of the QM region   =    453.9601384 

%%%% DIELECTRIC %%%%%%%%%%%%%%%%%%%%%%%%%%%%%%%%%%%%%%%%%%%%%%%%%%%%%%%%%%%%%%%%%
 dielectric build on homogeneous background
 environment bulk permitt.  =    100.0000000 
 dielectric flags
 need gradient              =  F 
 need factor depend. sqrt   =  F 
 total dielectric charge    =      0.0000000

%%%% ELECTRONS %%%%%%%%%%%%%%%%%%%%%%%%%%%%%%%%%%%%%%%%%%%%%%%%%%%%%%%%%%%%%%%%%
 number of electrons        =         24
 total electronic charge    =     24.0000000

%%%% ELECTRONS %%%%%%%%%%%%%%%%%%%%%%%%%%%%%%%%%%%%%%%%%%%%%%%%%%%%%%%%%%%%%%%%%
 number of electrons        =         24
 total electronic charge    =     24.0000000

%%%% DENSITY %%%%%%%%%%%%%%%%%%%%%%%%%%%%%%%%%%%%%%%%%%%%%%%%%%%%%%%%%%%%%%%%%%%
 density label              = dvtot                                                                           
 integral of density        =      0.000000000    

%%%% DENSITY %%%%%%%%%%%%%%%%%%%%%%%%%%%%%%%%%%%%%%%%%%%%%%%%%%%%%%%%%%%%%%%%%%%
 density label              = vreference                                                                      
 integral of density        =      0.000000000    

%%%% DENSITY %%%%%%%%%%%%%%%%%%%%%%%%%%%%%%%%%%%%%%%%%%%%%%%%%%%%%%%%%%%%%%%%%%%
 density label              = velectrostatic                                                                  
 integral of density        =      0.000000000    

%%%% CHARGES %%%%%%%%%%%%%%%%%%%%%%%%%%%%%%%%%%%%%%%%%%%%%%%%%%%%%%%%%%%%%%%%%%%
 total number of charges    =         34
 total charge               =     -1.0000000

%%%% ELECTRONS %%%%%%%%%%%%%%%%%%%%%%%%%%%%%%%%%%%%%%%%%%%%%%%%%%%%%%%%%%%%%%%%%
 number of electrons        =         24
 total electronic charge    =     24.0000000

%%%% ELECTRONS %%%%%%%%%%%%%%%%%%%%%%%%%%%%%%%%%%%%%%%%%%%%%%%%%%%%%%%%%%%%%%%%%
 number of electrons        =         24
 total electronic charge    =     24.0000000

%%%% DENSITY %%%%%%%%%%%%%%%%%%%%%%%%%%%%%%%%%%%%%%%%%%%%%%%%%%%%%%%%%%%%%%%%%%%
 density label              = vreference                                                                      
 integral of density        =    -0.2399915657E-11

%%%% COMPUTE ELECTROSTATIC POTENTIAL %%%%%%%%%%%%%%%%%%%%%%%%%%%%%%%%%%%%%%%%%%%
 Starting from polarization: rhoiter =      0.000000
 Iteration #          1
 calling poisson_gradient_direct
 finished poisson_gradient_direct
 finished scalar product environ gradient
 delta_qm =   0.487222E-02 delta_en =   0.410201E+02 tol =   0.100000E-04
 Iteration #          2
 calling poisson_gradient_direct
 finished poisson_gradient_direct
 finished scalar product environ gradient
 delta_qm =   0.285472E-02 delta_en =   0.140822E+02 tol =   0.100000E-04
 Iteration #          3
 calling poisson_gradient_direct
 finished poisson_gradient_direct
 finished scalar product environ gradient
 delta_qm =   0.164249E-02 delta_en =   0.466178E+01 tol =   0.100000E-04
 Iteration #          4
 calling poisson_gradient_direct
 finished poisson_gradient_direct
 finished scalar product environ gradient
 delta_qm =   0.108654E-02 delta_en =   0.204001E+01 tol =   0.100000E-04
 Iteration #          5
 calling poisson_gradient_direct
 finished poisson_gradient_direct
 finished scalar product environ gradient
 delta_qm =   0.715125E-03 delta_en =   0.883706E+00 tol =   0.100000E-04
 Iteration #          6
 calling poisson_gradient_direct
 finished poisson_gradient_direct
 finished scalar product environ gradient
 delta_qm =   0.404891E-03 delta_en =   0.283283E+00 tol =   0.100000E-04
 Iteration #          7
 calling poisson_gradient_direct
 finished poisson_gradient_direct
 finished scalar product environ gradient
 delta_qm =   0.306042E-03 delta_en =   0.161847E+00 tol =   0.100000E-04
 Iteration #          8
 calling poisson_gradient_direct
 finished poisson_gradient_direct
 finished scalar product environ gradient
 delta_qm =   0.207672E-03 delta_en =   0.745244E-01 tol =   0.100000E-04
 Iteration #          9
 calling poisson_gradient_direct
 finished poisson_gradient_direct
 finished scalar product environ gradient
 delta_qm =   0.127779E-03 delta_en =   0.282141E-01 tol =   0.100000E-04
 Iteration #         10
 calling poisson_gradient_direct
 finished poisson_gradient_direct
 finished scalar product environ gradient
 delta_qm =   0.981925E-04 delta_en =   0.166610E-01 tol =   0.100000E-04
 Iteration #         11
 calling poisson_gradient_direct
 finished poisson_gradient_direct
 finished scalar product environ gradient
 delta_qm =   0.740619E-04 delta_en =   0.947836E-02 tol =   0.100000E-04
 Iteration #         12
 calling poisson_gradient_direct
 finished poisson_gradient_direct
 finished scalar product environ gradient
 delta_qm =   0.464783E-04 delta_en =   0.373288E-02 tol =   0.100000E-04
 Iteration #         13
 calling poisson_gradient_direct
 finished poisson_gradient_direct
 finished scalar product environ gradient
 delta_qm =   0.336824E-04 delta_en =   0.196043E-02 tol =   0.100000E-04
 Iteration #         14
 calling poisson_gradient_direct
 finished poisson_gradient_direct
 finished scalar product environ gradient
 delta_qm =   0.273658E-04 delta_en =   0.129407E-02 tol =   0.100000E-04
 Iteration #         15
 calling poisson_gradient_direct
 finished poisson_gradient_direct
 finished scalar product environ gradient
 delta_qm =   0.180049E-04 delta_en =   0.560178E-03 tol =   0.100000E-04
 Iteration #         16
 calling poisson_gradient_direct
 finished poisson_gradient_direct
 finished scalar product environ gradient
 delta_qm =   0.119097E-04 delta_en =   0.245100E-03 tol =   0.100000E-04
 Iteration #         17
 calling poisson_gradient_direct
 finished poisson_gradient_direct
 finished scalar product environ gradient
 delta_qm =   0.995483E-05 delta_en =   0.171242E-03 tol =   0.100000E-04
 Iteration #         18
 calling poisson_gradient_direct
 finished poisson_gradient_direct
 finished scalar product environ gradient
 delta_qm =   0.708762E-05 delta_en =   0.868049E-04 tol =   0.100000E-04
 Iteration #         19
 calling poisson_gradient_direct
 finished poisson_gradient_direct
 finished scalar product environ gradient
 delta_qm =   0.440163E-05 delta_en =   0.334789E-04 tol =   0.100000E-04
 Iteration #         20
 calling poisson_gradient_direct
 finished poisson_gradient_direct
 finished scalar product environ gradient
 delta_qm =   0.354340E-05 delta_en =   0.216962E-04 tol =   0.100000E-04
 Iteration #         21
 calling poisson_gradient_direct
 finished poisson_gradient_direct
 finished scalar product environ gradient
 delta_qm =   0.275319E-05 delta_en =   0.130983E-04 tol =   0.100000E-04
 Iteration #         22
 calling poisson_gradient_direct
 finished poisson_gradient_direct
 finished scalar product environ gradient
 delta_qm =   0.171030E-05 delta_en =   0.505460E-05 tol =   0.100000E-04
 Charges are converged, EXIT

%%%% DENSITY %%%%%%%%%%%%%%%%%%%%%%%%%%%%%%%%%%%%%%%%%%%%%%%%%%%%%%%%%%%%%%%%%%%
 density label              = velectrostatic                                                                  
 integral of density        =    -0.2607338214E-11

%%%% CHARGES %%%%%%%%%%%%%%%%%%%%%%%%%%%%%%%%%%%%%%%%%%%%%%%%%%%%%%%%%%%%%%%%%%%
 total number of charges    =         34
 total charge               =     -1.0000000

%%%% DENSITY %%%%%%%%%%%%%%%%%%%%%%%%%%%%%%%%%%%%%%%%%%%%%%%%%%%%%%%%%%%%%%%%%%%
 density label              = dvtot                                                                           
 integral of density        =     0.2221443194E-12

%%%% ELECTRONS %%%%%%%%%%%%%%%%%%%%%%%%%%%%%%%%%%%%%%%%%%%%%%%%%%%%%%%%%%%%%%%%%
 number of electrons        =         24
 total electronic charge    =     24.0000000

%%%% ELECTRONS %%%%%%%%%%%%%%%%%%%%%%%%%%%%%%%%%%%%%%%%%%%%%%%%%%%%%%%%%%%%%%%%%
 number of electrons        =         24
 total electronic charge    =     24.0000000

%%%% DENSITY %%%%%%%%%%%%%%%%%%%%%%%%%%%%%%%%%%%%%%%%%%%%%%%%%%%%%%%%%%%%%%%%%%%
 density label              = vreference                                                                      
 integral of density        =    -0.9677279554E-12

%%%% COMPUTE ELECTROSTATIC POTENTIAL %%%%%%%%%%%%%%%%%%%%%%%%%%%%%%%%%%%%%%%%%%%
 Starting from polarization: rhoiter =      1.824184
 Iteration #          1
 calling poisson_gradient_direct
 finished poisson_gradient_direct
 finished scalar product environ gradient
 delta_qm =   0.697693E-03 delta_en =   0.841147E+00 tol =   0.100000E-04
 Iteration #          2
 calling poisson_gradient_direct
 finished poisson_gradient_direct
 finished scalar product environ gradient
 delta_qm =   0.372899E-03 delta_en =   0.240285E+00 tol =   0.100000E-04
 Iteration #          3
 calling poisson_gradient_direct
 finished poisson_gradient_direct
 finished scalar product environ gradient
 delta_qm =   0.276989E-03 delta_en =   0.132577E+00 tol =   0.100000E-04
 Iteration #          4
 calling poisson_gradient_direct
 finished poisson_gradient_direct
 finished scalar product environ gradient
 delta_qm =   0.197738E-03 delta_en =   0.675656E-01 tol =   0.100000E-04
 Iteration #          5
 calling poisson_gradient_direct
 finished poisson_gradient_direct
 finished scalar product environ gradient
 delta_qm =   0.127383E-03 delta_en =   0.280394E-01 tol =   0.100000E-04
 Iteration #          6
 calling poisson_gradient_direct
 finished poisson_gradient_direct
 finished scalar product environ gradient
 delta_qm =   0.909150E-04 delta_en =   0.142828E-01 tol =   0.100000E-04
 Iteration #          7
 calling poisson_gradient_direct
 finished poisson_gradient_direct
 finished scalar product environ gradient
 delta_qm =   0.613568E-04 delta_en =   0.650532E-02 tol =   0.100000E-04
 Iteration #          8
 calling poisson_gradient_direct
 finished poisson_gradient_direct
 finished scalar product environ gradient
 delta_qm =   0.397505E-04 delta_en =   0.273042E-02 tol =   0.100000E-04
 Iteration #          9
 calling poisson_gradient_direct
 finished poisson_gradient_direct
 finished scalar product environ gradient
 delta_qm =   0.288856E-04 delta_en =   0.144180E-02 tol =   0.100000E-04
 Iteration #         10
 calling poisson_gradient_direct
 finished poisson_gradient_direct
 finished scalar product environ gradient
 delta_qm =   0.191864E-04 delta_en =   0.636108E-03 tol =   0.100000E-04
 Iteration #         11
 calling poisson_gradient_direct
 finished poisson_gradient_direct
 finished scalar product environ gradient
 delta_qm =   0.128998E-04 delta_en =   0.287549E-03 tol =   0.100000E-04
 Iteration #         12
 calling poisson_gradient_direct
 finished poisson_gradient_direct
 finished scalar product environ gradient
 delta_qm =   0.950157E-05 delta_en =   0.156003E-03 tol =   0.100000E-04
 Iteration #         13
 calling poisson_gradient_direct
 finished poisson_gradient_direct
 finished scalar product environ gradient
 delta_qm =   0.623359E-05 delta_en =   0.671460E-04 tol =   0.100000E-04
 Iteration #         14
 calling poisson_gradient_direct
 finished poisson_gradient_direct
 finished scalar product environ gradient
 delta_qm =   0.431679E-05 delta_en =   0.322008E-04 tol =   0.100000E-04
 Iteration #         15
 calling poisson_gradient_direct
 finished poisson_gradient_direct
 finished scalar product environ gradient
 delta_qm =   0.319812E-05 delta_en =   0.176739E-04 tol =   0.100000E-04
 Iteration #         16
 calling poisson_gradient_direct
 finished poisson_gradient_direct
 finished scalar product environ gradient
 delta_qm =   0.206309E-05 delta_en =   0.735493E-05 tol =   0.100000E-04
 Charges are converged, EXIT

%%%% DENSITY %%%%%%%%%%%%%%%%%%%%%%%%%%%%%%%%%%%%%%%%%%%%%%%%%%%%%%%%%%%%%%%%%%%
 density label              = velectrostatic                                                                  
 integral of density        =     0.1673081426E-11

%%%% CHARGES %%%%%%%%%%%%%%%%%%%%%%%%%%%%%%%%%%%%%%%%%%%%%%%%%%%%%%%%%%%%%%%%%%%
 total number of charges    =         34
 total charge               =     -1.0000000

%%%% DENSITY %%%%%%%%%%%%%%%%%%%%%%%%%%%%%%%%%%%%%%%%%%%%%%%%%%%%%%%%%%%%%%%%%%%
 density label              = dvtot                                                                           
 integral of density        =     0.7656180217E-12

%%%% ELECTRONS %%%%%%%%%%%%%%%%%%%%%%%%%%%%%%%%%%%%%%%%%%%%%%%%%%%%%%%%%%%%%%%%%
 number of electrons        =         24
 total electronic charge    =     24.0000000

%%%% ELECTRONS %%%%%%%%%%%%%%%%%%%%%%%%%%%%%%%%%%%%%%%%%%%%%%%%%%%%%%%%%%%%%%%%%
 number of electrons        =         24
 total electronic charge    =     24.0000000

%%%% DENSITY %%%%%%%%%%%%%%%%%%%%%%%%%%%%%%%%%%%%%%%%%%%%%%%%%%%%%%%%%%%%%%%%%%%
 density label              = vreference                                                                      
 integral of density        =    -0.9368555314E-11

%%%% COMPUTE ELECTROSTATIC POTENTIAL %%%%%%%%%%%%%%%%%%%%%%%%%%%%%%%%%%%%%%%%%%%
 Starting from polarization: rhoiter =      1.682154
 Iteration #          1
 calling poisson_gradient_direct
 finished poisson_gradient_direct
 finished scalar product environ gradient
 delta_qm =   0.441051E-03 delta_en =   0.336141E+00 tol =   0.100000E-04
 Iteration #          2
 calling poisson_gradient_direct
 finished poisson_gradient_direct
 finished scalar product environ gradient
 delta_qm =   0.245102E-03 delta_en =   0.103810E+00 tol =   0.100000E-04
 Iteration #          3
 calling poisson_gradient_direct
 finished poisson_gradient_direct
 finished scalar product environ gradient
 delta_qm =   0.172772E-03 delta_en =   0.515811E-01 tol =   0.100000E-04
 Iteration #          4
 calling poisson_gradient_direct
 finished poisson_gradient_direct
 finished scalar product environ gradient
 delta_qm =   0.119666E-03 delta_en =   0.247448E-01 tol =   0.100000E-04
 Iteration #          5
 calling poisson_gradient_direct
 finished poisson_gradient_direct
 finished scalar product environ gradient
 delta_qm =   0.770560E-04 delta_en =   0.102602E-01 tol =   0.100000E-04
 Iteration #          6
 calling poisson_gradient_direct
 finished poisson_gradient_direct
 finished scalar product environ gradient
 delta_qm =   0.535757E-04 delta_en =   0.495997E-02 tol =   0.100000E-04
 Iteration #          7
 calling poisson_gradient_direct
 finished poisson_gradient_direct
 finished scalar product environ gradient
 delta_qm =   0.370391E-04 delta_en =   0.237063E-02 tol =   0.100000E-04
 Iteration #          8
 calling poisson_gradient_direct
 finished poisson_gradient_direct
 finished scalar product environ gradient
 delta_qm =   0.240993E-04 delta_en =   0.100358E-02 tol =   0.100000E-04
 Iteration #          9
 calling poisson_gradient_direct
 finished poisson_gradient_direct
 finished scalar product environ gradient
 delta_qm =   0.171500E-04 delta_en =   0.508244E-03 tol =   0.100000E-04
 Iteration #         10
 calling poisson_gradient_direct
 finished poisson_gradient_direct
 finished scalar product environ gradient
 delta_qm =   0.118561E-04 delta_en =   0.242900E-03 tol =   0.100000E-04
 Iteration #         11
 calling poisson_gradient_direct
 finished poisson_gradient_direct
 finished scalar product environ gradient
 delta_qm =   0.824774E-05 delta_en =   0.117548E-03 tol =   0.100000E-04
 Iteration #         12
 calling poisson_gradient_direct
 finished poisson_gradient_direct
 finished scalar product environ gradient
 delta_qm =   0.582888E-05 delta_en =   0.587103E-04 tol =   0.100000E-04
 Iteration #         13
 calling poisson_gradient_direct
 finished poisson_gradient_direct
 finished scalar product environ gradient
 delta_qm =   0.393467E-05 delta_en =   0.267523E-04 tol =   0.100000E-04
 Iteration #         14
 calling poisson_gradient_direct
 finished poisson_gradient_direct
 finished scalar product environ gradient
 delta_qm =   0.290742E-05 delta_en =   0.146070E-04 tol =   0.100000E-04
 Iteration #         15
 calling poisson_gradient_direct
 finished poisson_gradient_direct
 finished scalar product environ gradient
 delta_qm =   0.206687E-05 delta_en =   0.738190E-05 tol =   0.100000E-04
 Charges are converged, EXIT

%%%% DENSITY %%%%%%%%%%%%%%%%%%%%%%%%%%%%%%%%%%%%%%%%%%%%%%%%%%%%%%%%%%%%%%%%%%%
 density label              = velectrostatic                                                                  
 integral of density        =    -0.4811550335E-11

%%%% CHARGES %%%%%%%%%%%%%%%%%%%%%%%%%%%%%%%%%%%%%%%%%%%%%%%%%%%%%%%%%%%%%%%%%%%
 total number of charges    =         34
 total charge               =     -1.0000000

%%%% DENSITY %%%%%%%%%%%%%%%%%%%%%%%%%%%%%%%%%%%%%%%%%%%%%%%%%%%%%%%%%%%%%%%%%%%
 density label              = dvtot                                                                           
 integral of density        =    -0.2323522033E-12

%%%% ELECTRONS %%%%%%%%%%%%%%%%%%%%%%%%%%%%%%%%%%%%%%%%%%%%%%%%%%%%%%%%%%%%%%%%%
 number of electrons        =         24
 total electronic charge    =     24.0000000

%%%% ELECTRONS %%%%%%%%%%%%%%%%%%%%%%%%%%%%%%%%%%%%%%%%%%%%%%%%%%%%%%%%%%%%%%%%%
 number of electrons        =         24
 total electronic charge    =     24.0000000

%%%% DENSITY %%%%%%%%%%%%%%%%%%%%%%%%%%%%%%%%%%%%%%%%%%%%%%%%%%%%%%%%%%%%%%%%%%%
 density label              = vreference                                                                      
 integral of density        =     0.1689331802E-11

%%%% COMPUTE ELECTROSTATIC POTENTIAL %%%%%%%%%%%%%%%%%%%%%%%%%%%%%%%%%%%%%%%%%%%
 Starting from polarization: rhoiter =      1.553626
 Iteration #          1
 calling poisson_gradient_direct
 finished poisson_gradient_direct
 finished scalar product environ gradient
 delta_qm =   0.272494E-03 delta_en =   0.128310E+00 tol =   0.100000E-04
 Iteration #          2
 calling poisson_gradient_direct
 finished poisson_gradient_direct
 finished scalar product environ gradient
 delta_qm =   0.162375E-03 delta_en =   0.455600E-01 tol =   0.100000E-04
 Iteration #          3
 calling poisson_gradient_direct
 finished poisson_gradient_direct
 finished scalar product environ gradient
 delta_qm =   0.922366E-04 delta_en =   0.147011E-01 tol =   0.100000E-04
 Iteration #          4
 calling poisson_gradient_direct
 finished poisson_gradient_direct
 finished scalar product environ gradient
 delta_qm =   0.564616E-04 delta_en =   0.550872E-02 tol =   0.100000E-04
 Iteration #          5
 calling poisson_gradient_direct
 finished poisson_gradient_direct
 finished scalar product environ gradient
 delta_qm =   0.368547E-04 delta_en =   0.234708E-02 tol =   0.100000E-04
 Iteration #          6
 calling poisson_gradient_direct
 finished poisson_gradient_direct
 finished scalar product environ gradient
 delta_qm =   0.196290E-04 delta_en =   0.665794E-03 tol =   0.100000E-04
 Iteration #          7
 calling poisson_gradient_direct
 finished poisson_gradient_direct
 finished scalar product environ gradient
 delta_qm =   0.147140E-04 delta_en =   0.374113E-03 tol =   0.100000E-04
 Iteration #          8
 calling poisson_gradient_direct
 finished poisson_gradient_direct
 finished scalar product environ gradient
 delta_qm =   0.983789E-05 delta_en =   0.167243E-03 tol =   0.100000E-04
 Iteration #          9
 calling poisson_gradient_direct
 finished poisson_gradient_direct
 finished scalar product environ gradient
 delta_qm =   0.603207E-05 delta_en =   0.628748E-04 tol =   0.100000E-04
 Iteration #         10
 calling poisson_gradient_direct
 finished poisson_gradient_direct
 finished scalar product environ gradient
 delta_qm =   0.459634E-05 delta_en =   0.365063E-04 tol =   0.100000E-04
 Iteration #         11
 calling poisson_gradient_direct
 finished poisson_gradient_direct
 finished scalar product environ gradient
 delta_qm =   0.351252E-05 delta_en =   0.213197E-04 tol =   0.100000E-04
 Iteration #         12
 calling poisson_gradient_direct
 finished poisson_gradient_direct
 finished scalar product environ gradient
 delta_qm =   0.224854E-05 delta_en =   0.873665E-05 tol =   0.100000E-04
 Charges are converged, EXIT

%%%% DENSITY %%%%%%%%%%%%%%%%%%%%%%%%%%%%%%%%%%%%%%%%%%%%%%%%%%%%%%%%%%%%%%%%%%%
 density label              = velectrostatic                                                                  
 integral of density        =     0.3992263310E-11

%%%% CHARGES %%%%%%%%%%%%%%%%%%%%%%%%%%%%%%%%%%%%%%%%%%%%%%%%%%%%%%%%%%%%%%%%%%%
 total number of charges    =         34
 total charge               =     -1.0000000

%%%% DENSITY %%%%%%%%%%%%%%%%%%%%%%%%%%%%%%%%%%%%%%%%%%%%%%%%%%%%%%%%%%%%%%%%%%%
 density label              = dvtot                                                                           
 integral of density        =     0.2057484841E-11

%%%% ELECTRONS %%%%%%%%%%%%%%%%%%%%%%%%%%%%%%%%%%%%%%%%%%%%%%%%%%%%%%%%%%%%%%%%%
 number of electrons        =         24
 total electronic charge    =     24.0000000

%%%% ELECTRONS %%%%%%%%%%%%%%%%%%%%%%%%%%%%%%%%%%%%%%%%%%%%%%%%%%%%%%%%%%%%%%%%%
 number of electrons        =         24
 total electronic charge    =     24.0000000

%%%% DENSITY %%%%%%%%%%%%%%%%%%%%%%%%%%%%%%%%%%%%%%%%%%%%%%%%%%%%%%%%%%%%%%%%%%%
 density label              = vreference                                                                      
 integral of density        =    -0.5731020596E-11

%%%% COMPUTE ELECTROSTATIC POTENTIAL %%%%%%%%%%%%%%%%%%%%%%%%%%%%%%%%%%%%%%%%%%%
 Starting from polarization: rhoiter =      1.437096
 Iteration #          1
 calling poisson_gradient_direct
 finished poisson_gradient_direct
 finished scalar product environ gradient
 delta_qm =   0.408239E-04 delta_en =   0.287987E-02 tol =   0.100000E-04
 Iteration #          2
 calling poisson_gradient_direct
 finished poisson_gradient_direct
 finished scalar product environ gradient
 delta_qm =   0.229820E-04 delta_en =   0.912682E-03 tol =   0.100000E-04
 Iteration #          3
 calling poisson_gradient_direct
 finished poisson_gradient_direct
 finished scalar product environ gradient
 delta_qm =   0.155075E-04 delta_en =   0.415554E-03 tol =   0.100000E-04
 Iteration #          4
 calling poisson_gradient_direct
 finished poisson_gradient_direct
 finished scalar product environ gradient
 delta_qm =   0.103717E-04 delta_en =   0.185886E-03 tol =   0.100000E-04
 Iteration #          5
 calling poisson_gradient_direct
 finished poisson_gradient_direct
 finished scalar product environ gradient
 delta_qm =   0.663787E-05 delta_en =   0.761380E-04 tol =   0.100000E-04
 Iteration #          6
 calling poisson_gradient_direct
 finished poisson_gradient_direct
 finished scalar product environ gradient
 delta_qm =   0.451850E-05 delta_en =   0.352803E-04 tol =   0.100000E-04
 Iteration #          7
 calling poisson_gradient_direct
 finished poisson_gradient_direct
 finished scalar product environ gradient
 delta_qm =   0.304621E-05 delta_en =   0.160348E-04 tol =   0.100000E-04
 Iteration #          8
 calling poisson_gradient_direct
 finished poisson_gradient_direct
 finished scalar product environ gradient
 delta_qm =   0.194048E-05 delta_en =   0.650672E-05 tol =   0.100000E-04
 Charges are converged, EXIT

%%%% DENSITY %%%%%%%%%%%%%%%%%%%%%%%%%%%%%%%%%%%%%%%%%%%%%%%%%%%%%%%%%%%%%%%%%%%
 density label              = velectrostatic                                                                  
 integral of density        =     0.3582155149E-12

%%%% CHARGES %%%%%%%%%%%%%%%%%%%%%%%%%%%%%%%%%%%%%%%%%%%%%%%%%%%%%%%%%%%%%%%%%%%
 total number of charges    =         34
 total charge               =     -1.0000000

%%%% DENSITY %%%%%%%%%%%%%%%%%%%%%%%%%%%%%%%%%%%%%%%%%%%%%%%%%%%%%%%%%%%%%%%%%%%
 density label              = dvtot                                                                           
 integral of density        =    -0.1281141859E-11

%%%% ELECTRONS %%%%%%%%%%%%%%%%%%%%%%%%%%%%%%%%%%%%%%%%%%%%%%%%%%%%%%%%%%%%%%%%%
 number of electrons        =         24
 total electronic charge    =     24.0000000

%%%% ELECTRONS %%%%%%%%%%%%%%%%%%%%%%%%%%%%%%%%%%%%%%%%%%%%%%%%%%%%%%%%%%%%%%%%%
 number of electrons        =         24
 total electronic charge    =     24.0000000

%%%% DENSITY %%%%%%%%%%%%%%%%%%%%%%%%%%%%%%%%%%%%%%%%%%%%%%%%%%%%%%%%%%%%%%%%%%%
 density label              = vreference                                                                      
 integral of density        =    -0.6816358177E-12

%%%% COMPUTE ELECTROSTATIC POTENTIAL %%%%%%%%%%%%%%%%%%%%%%%%%%%%%%%%%%%%%%%%%%%
 Starting from polarization: rhoiter =      1.423819
 Iteration #          1
 calling poisson_gradient_direct
 finished poisson_gradient_direct
 finished scalar product environ gradient
 delta_qm =   0.995053E-05 delta_en =   0.171094E-03 tol =   0.100000E-04
 Iteration #          2
 calling poisson_gradient_direct
 finished poisson_gradient_direct
 finished scalar product environ gradient
 delta_qm =   0.558182E-05 delta_en =   0.538388E-04 tol =   0.100000E-04
 Iteration #          3
 calling poisson_gradient_direct
 finished poisson_gradient_direct
 finished scalar product environ gradient
 delta_qm =   0.363023E-05 delta_en =   0.227726E-04 tol =   0.100000E-04
 Iteration #          4
 calling poisson_gradient_direct
 finished poisson_gradient_direct
 finished scalar product environ gradient
 delta_qm =   0.273459E-05 delta_en =   0.129220E-04 tol =   0.100000E-04
 Iteration #          5
 calling poisson_gradient_direct
 finished poisson_gradient_direct
 finished scalar product environ gradient
 delta_qm =   0.186609E-05 delta_en =   0.601741E-05 tol =   0.100000E-04
 Charges are converged, EXIT

%%%% DENSITY %%%%%%%%%%%%%%%%%%%%%%%%%%%%%%%%%%%%%%%%%%%%%%%%%%%%%%%%%%%%%%%%%%%
 density label              = velectrostatic                                                                  
 integral of density        =     0.2165987554E-11

%%%% CHARGES %%%%%%%%%%%%%%%%%%%%%%%%%%%%%%%%%%%%%%%%%%%%%%%%%%%%%%%%%%%%%%%%%%%
 total number of charges    =         34
 total charge               =     -1.0000000

%%%% DENSITY %%%%%%%%%%%%%%%%%%%%%%%%%%%%%%%%%%%%%%%%%%%%%%%%%%%%%%%%%%%%%%%%%%%
 density label              = dvtot                                                                           
 integral of density        =    -0.1972698753E-11

%%%% ELECTRONS %%%%%%%%%%%%%%%%%%%%%%%%%%%%%%%%%%%%%%%%%%%%%%%%%%%%%%%%%%%%%%%%%
 number of electrons        =         24
 total electronic charge    =     24.0000000

%%%% ELECTRONS %%%%%%%%%%%%%%%%%%%%%%%%%%%%%%%%%%%%%%%%%%%%%%%%%%%%%%%%%%%%%%%%%
 number of electrons        =         24
 total electronic charge    =     24.0000000

%%%% DENSITY %%%%%%%%%%%%%%%%%%%%%%%%%%%%%%%%%%%%%%%%%%%%%%%%%%%%%%%%%%%%%%%%%%%
 density label              = vreference                                                                      
 integral of density        =    -0.1638812542E-11

%%%% COMPUTE ELECTROSTATIC POTENTIAL %%%%%%%%%%%%%%%%%%%%%%%%%%%%%%%%%%%%%%%%%%%
 Starting from polarization: rhoiter =      1.420915
 Iteration #          1
 calling poisson_gradient_direct
 finished poisson_gradient_direct
 finished scalar product environ gradient
 delta_qm =   0.547946E-05 delta_en =   0.518822E-04 tol =   0.100000E-04
 Iteration #          2
 calling poisson_gradient_direct
 finished poisson_gradient_direct
 finished scalar product environ gradient
 delta_qm =   0.323823E-05 delta_en =   0.181200E-04 tol =   0.100000E-04
 Iteration #          3
 calling poisson_gradient_direct
 finished poisson_gradient_direct
 finished scalar product environ gradient
 delta_qm =   0.187106E-05 delta_en =   0.604951E-05 tol =   0.100000E-04
 Charges are converged, EXIT

%%%% DENSITY %%%%%%%%%%%%%%%%%%%%%%%%%%%%%%%%%%%%%%%%%%%%%%%%%%%%%%%%%%%%%%%%%%%
 density label              = velectrostatic                                                                  
 integral of density        =    -0.2770623237E-12

%%%% CHARGES %%%%%%%%%%%%%%%%%%%%%%%%%%%%%%%%%%%%%%%%%%%%%%%%%%%%%%%%%%%%%%%%%%%
 total number of charges    =         34
 total charge               =     -1.0000000

%%%% DENSITY %%%%%%%%%%%%%%%%%%%%%%%%%%%%%%%%%%%%%%%%%%%%%%%%%%%%%%%%%%%%%%%%%%%
 density label              = dvtot                                                                           
 integral of density        =    -0.7868705687E-12

%%%% ELECTRONS %%%%%%%%%%%%%%%%%%%%%%%%%%%%%%%%%%%%%%%%%%%%%%%%%%%%%%%%%%%%%%%%%
 number of electrons        =         24
 total electronic charge    =     24.0000000

%%%% ELECTRONS %%%%%%%%%%%%%%%%%%%%%%%%%%%%%%%%%%%%%%%%%%%%%%%%%%%%%%%%%%%%%%%%%
 number of electrons        =         24
 total electronic charge    =     24.0000000

%%%% DENSITY %%%%%%%%%%%%%%%%%%%%%%%%%%%%%%%%%%%%%%%%%%%%%%%%%%%%%%%%%%%%%%%%%%%
 density label              = vreference                                                                      
 integral of density        =     0.3608685367E-11

%%%% COMPUTE ELECTROSTATIC POTENTIAL %%%%%%%%%%%%%%%%%%%%%%%%%%%%%%%%%%%%%%%%%%%
 Starting from polarization: rhoiter =      1.419574
 Iteration #          1
 calling poisson_gradient_direct
 finished poisson_gradient_direct
 finished scalar product environ gradient
 delta_qm =   0.200594E-05 delta_en =   0.695315E-05 tol =   0.100000E-04
 Charges are converged, EXIT

%%%% DENSITY %%%%%%%%%%%%%%%%%%%%%%%%%%%%%%%%%%%%%%%%%%%%%%%%%%%%%%%%%%%%%%%%%%%
 density label              = velectrostatic                                                                  
 integral of density        =     0.3508633713E-11

%%%% CHARGES %%%%%%%%%%%%%%%%%%%%%%%%%%%%%%%%%%%%%%%%%%%%%%%%%%%%%%%%%%%%%%%%%%%
 total number of charges    =         34
 total charge               =     -1.0000000

%%%% DENSITY %%%%%%%%%%%%%%%%%%%%%%%%%%%%%%%%%%%%%%%%%%%%%%%%%%%%%%%%%%%%%%%%%%%
 density label              = dvtot                                                                           
 integral of density        =     0.8338247788E-12

%%%% ELECTRONS %%%%%%%%%%%%%%%%%%%%%%%%%%%%%%%%%%%%%%%%%%%%%%%%%%%%%%%%%%%%%%%%%
 number of electrons        =         24
 total electronic charge    =     24.0000000

%%%% ELECTRONS %%%%%%%%%%%%%%%%%%%%%%%%%%%%%%%%%%%%%%%%%%%%%%%%%%%%%%%%%%%%%%%%%
 number of electrons        =         24
 total electronic charge    =     24.0000000

%%%% DENSITY %%%%%%%%%%%%%%%%%%%%%%%%%%%%%%%%%%%%%%%%%%%%%%%%%%%%%%%%%%%%%%%%%%%
 density label              = dvtot                                                                           
 integral of density        =     0.8338247788E-12

%%%% DENSITY %%%%%%%%%%%%%%%%%%%%%%%%%%%%%%%%%%%%%%%%%%%%%%%%%%%%%%%%%%%%%%%%%%%
 density label              = vreference                                                                      
 integral of density        =     0.3608685367E-11

%%%% DENSITY %%%%%%%%%%%%%%%%%%%%%%%%%%%%%%%%%%%%%%%%%%%%%%%%%%%%%%%%%%%%%%%%%%%
 density label              = velectrostatic                                                                  
 integral of density        =     0.3508633713E-11

%%%% CHARGES %%%%%%%%%%%%%%%%%%%%%%%%%%%%%%%%%%%%%%%%%%%%%%%%%%%%%%%%%%%%%%%%%%%
 total number of charges    =         34
 total charge               =     -1.0000000
