
     Program PWSCF v.6.4.1 starts on 24Apr2019 at 15:14:44 

     This program is part of the open-source Quantum ESPRESSO suite
     for quantum simulation of materials; please cite
         "P. Giannozzi et al., J. Phys.:Condens. Matter 21 395502 (2009);
         "P. Giannozzi et al., J. Phys.:Condens. Matter 29 465901 (2017);
          URL http://www.quantum-espresso.org", 
     in publications or presentations arising from this work. More details at
     http://www.quantum-espresso.org/quote

     Parallel version (MPI), running on     1 processors

     MPI processes distributed on     1 nodes
     Reading input from charged.in

     Current dimensions of program PWSCF are:
     Max number of different atomic species (ntypx) = 10
     Max number of k-points (npk) =  40000
     Max angular momentum in pseudopotentials (lmaxx) =  3
               file C.pbe-rrkjus.UPF: wavefunction(s)  2S 2P renormalized
               file H.pbe-rrkjus.UPF: wavefunction(s)  1S renormalized
               file N.pbe-rrkjus.UPF: wavefunction(s)  2S renormalized
               file O.pbe-rrkjus.UPF: wavefunction(s)  2S renormalized

     gamma-point specific algorithms are used

     Subspace diagonalization in iterative solution of the eigenvalue problem:
     a serial algorithm will be used

 
     G-vector sticks info
     --------------------
     sticks:   dense  smooth     PW     G-vecs:    dense   smooth      PW
     Sum        9549    3809    949               701475   177509   22119
 


     bravais-lattice index     =            1
     lattice parameter (alat)  =      20.0000  a.u.
     unit-cell volume          =    8000.0000 (a.u.)^3
     number of atoms/cell      =           10
     number of atomic types    =            4
     number of electrons       =        24.00
     number of Kohn-Sham states=           12
     kinetic-energy cutoff     =      30.0000  Ry
     charge density cutoff     =     300.0000  Ry
     convergence threshold     =      5.0E-06
     mixing beta               =       0.7000
     number of iterations used =            8  plain     mixing
     Exchange-correlation      = SLA PW PBE PBE ( 1  4  3  4 0 0)
 

     Environ Module
     ==============

     Plese cite
         O. Andreussi, I. Dabo and N. Marzari, J. Chem. Phys. 136, 064102 (2012)         
     in publications or presentations arising from this work.

     compensation onset threshold      =               0.1000E+03 
     static permittivity               =                   100.00 
     epsilon calculation mode          =                   system 

     Electrostatic Setup
     -------------------
     electrostatic problem to solve    = generalized              
     numerical solver adopted          = cg                       
     type of auxiliary density adopted = none                     
     type of core tool for poisson     = fft                      
     type of core tool for s(r) deriv  = analytic                 



     celldm(1)=  20.000000  celldm(2)=   0.000000  celldm(3)=   0.000000
     celldm(4)=   0.000000  celldm(5)=   0.000000  celldm(6)=   0.000000

     crystal axes: (cart. coord. in units of alat)
               a(1) = (   1.000000   0.000000   0.000000 )  
               a(2) = (   0.000000   1.000000   0.000000 )  
               a(3) = (   0.000000   0.000000   1.000000 )  

     reciprocal axes: (cart. coord. in units 2 pi/alat)
               b(1) = (  1.000000  0.000000  0.000000 )  
               b(2) = (  0.000000  1.000000  0.000000 )  
               b(3) = (  0.000000  0.000000  1.000000 )  


     PseudoPot. # 1 for C  read from file:
     /home/fnattino/Programs/quantumespresso/q-e-qe-6.4.1-develop/Environ/tests/../..//pseudo/C.pbe-rrkjus.UPF
     MD5 check sum: c9ac5a99bc85b198593446162950cd17
     Pseudo is Ultrasoft, Zval =  4.0
     Generated by new atomic code, or converted to UPF format
     Using radial grid of  627 points,  4 beta functions with: 
                l(1) =   0
                l(2) =   0
                l(3) =   1
                l(4) =   1
     Q(r) pseudized with 0 coefficients 


     PseudoPot. # 2 for H  read from file:
     /home/fnattino/Programs/quantumespresso/q-e-qe-6.4.1-develop/Environ/tests/../..//pseudo/H.pbe-rrkjus.UPF
     MD5 check sum: 2d52a7f45632fd764c17cc6affed14c8
     Pseudo is Ultrasoft, Zval =  1.0
     Generated by new atomic code, or converted to UPF format
     Using radial grid of 1061 points,  2 beta functions with: 
                l(1) =   0
                l(2) =   0
     Q(r) pseudized with 0 coefficients 


     PseudoPot. # 3 for N  read from file:
     /home/fnattino/Programs/quantumespresso/q-e-qe-6.4.1-develop/Environ/tests/../..//pseudo/N.pbe-rrkjus.UPF
     MD5 check sum: 28c76d763763edb36c62a6ca2be9aebd
     Pseudo is Ultrasoft, Zval =  5.0
     Generated by new atomic code, or converted to UPF format
     Using radial grid of 1257 points,  4 beta functions with: 
                l(1) =   0
                l(2) =   0
                l(3) =   1
                l(4) =   1
     Q(r) pseudized with 0 coefficients 


     PseudoPot. # 4 for O  read from file:
     /home/fnattino/Programs/quantumespresso/q-e-qe-6.4.1-develop/Environ/tests/../..//pseudo/O.pbe-rrkjus.UPF
     MD5 check sum: fadcf19ee70a498d3030e2e79cf929a4
     Pseudo is Ultrasoft, Zval =  6.0
     Generated by new atomic code, or converted to UPF format
     Using radial grid of 1269 points,  4 beta functions with: 
                l(1) =   0
                l(2) =   0
                l(3) =   1
                l(4) =   1
     Q(r) pseudized with 0 coefficients 


     atomic species   valence    mass     pseudopotential
        C              4.00    12.00000     C ( 1.00)
        H              1.00     1.00000     H ( 1.00)
        N              5.00    14.00000     N ( 1.00)
        O              6.00    16.00000     O ( 1.00)

     No symmetry found



   Cartesian axes

     site n.     atom                  positions (alat units)
         1           C   tau(   1) = (   0.0000000   0.0000000   0.0000000  )
         2           C   tau(   2) = (   0.0000000   0.0000000   0.1455089  )
         3           N   tau(   3) = (   0.1170969   0.0000000  -0.0545024  )
         4           H   tau(   4) = (   0.0476617  -0.0825466   0.1792090  )
         5           H   tau(   5) = (  -0.0953183  -0.0000030   0.1792090  )
         6           H   tau(   6) = (   0.0476566   0.0825496   0.1792090  )
         7           O   tau(   7) = (  -0.0984002  -0.0000019  -0.0641310  )
         8           H   tau(   8) = (   0.1263131  -0.0000015  -0.1475548  )
         9           H   tau(   9) = (   0.1944645   0.0000134  -0.0025716  )
        10           H   tau(  10) = (  -0.0770366  -0.0000045  -0.1522861  )

     number of k points=     1
                       cart. coord. in units 2pi/alat
        k(    1) = (   0.0000000   0.0000000   0.0000000), wk =   2.0000000

     Dense  grid:   350738 G-vectors     FFT dimensions: ( 120, 120, 120)

     Smooth grid:    88755 G-vectors     FFT dimensions: (  72,  72,  72)

     Estimated max dynamical RAM per process >     691.80 MB

     Initial potential from superposition of free atoms

     starting charge   24.42266, renormalised to   24.00000

     negative rho (up, down):  4.438E-04 0.000E+00
     Starting wfcs are   22 randomized atomic wfcs

     total cpu time spent up to now is        5.2 secs

     Self-consistent Calculation

     iteration #  1     ecut=    30.00 Ry     beta= 0.70
     Davidson diagonalization with overlap
     ethr =  1.00E-02,  avg # of iterations =  2.0

     negative rho (up, down):  1.277E-04 0.000E+00

     add environment contribution to local potential
     polarization accuracy = 5.5E-06, # of iterations =  13

     total cpu time spent up to now is        9.0 secs

     total energy              =     -80.23905785 Ry
     Harris-Foulkes estimate   =     -83.01882218 Ry
     estimated scf accuracy    <       3.73443027 Ry
     electrostatic embedding   =       0.00000000 Ry
     correction to one-el term =       0.00000000 Ry

     iteration #  2     ecut=    30.00 Ry     beta= 0.70
     Davidson diagonalization with overlap
     ethr =  1.00E-02,  avg # of iterations =  4.0

     negative rho (up, down):  7.450E-04 0.000E+00

     add environment contribution to local potential
     polarization accuracy = 8.6E-06, # of iterations =  13

     total cpu time spent up to now is       13.0 secs

     total energy              =     -80.98044089 Ry
     Harris-Foulkes estimate   =     -76.56930169 Ry
     estimated scf accuracy    <       1.68143536 Ry
     electrostatic embedding   =      -0.27268871 Ry
     correction to one-el term =      -5.03625279 Ry

     iteration #  3     ecut=    30.00 Ry     beta= 0.70
     Davidson diagonalization with overlap
     ethr =  7.01E-03,  avg # of iterations =  3.0

     negative rho (up, down):  3.446E-04 0.000E+00

     add environment contribution to local potential
     polarization accuracy = 7.5E-06, # of iterations =  13

     total cpu time spent up to now is       16.9 secs

     total energy              =     -81.37248251 Ry
     Harris-Foulkes estimate   =     -76.64641404 Ry
     estimated scf accuracy    <       0.24981501 Ry
     electrostatic embedding   =      -0.24083278 Ry
     correction to one-el term =      -4.61569277 Ry

     iteration #  4     ecut=    30.00 Ry     beta= 0.70
     Davidson diagonalization with overlap
     ethr =  1.04E-03,  avg # of iterations =  4.0

     negative rho (up, down):  7.495E-05 0.000E+00

     add environment contribution to local potential
     polarization accuracy = 7.7E-06, # of iterations =  13

     total cpu time spent up to now is       20.8 secs

     total energy              =     -81.43507970 Ry
     Harris-Foulkes estimate   =     -77.03519470 Ry
     estimated scf accuracy    <       0.02104122 Ry
     electrostatic embedding   =      -0.19468860 Ry
     correction to one-el term =      -4.21615560 Ry

     iteration #  5     ecut=    30.00 Ry     beta= 0.70
     Davidson diagonalization with overlap
     ethr =  8.77E-05,  avg # of iterations =  3.0

     negative rho (up, down):  9.294E-05 0.000E+00

     add environment contribution to local potential
     polarization accuracy = 7.7E-06, # of iterations =  13

     total cpu time spent up to now is       24.6 secs

     total energy              =     -81.44093320 Ry
     Harris-Foulkes estimate   =     -77.37877080 Ry
     estimated scf accuracy    <       0.00184228 Ry
     electrostatic embedding   =      -0.17549510 Ry
     correction to one-el term =      -3.88757722 Ry

     iteration #  6     ecut=    30.00 Ry     beta= 0.70
     Davidson diagonalization with overlap
     ethr =  7.68E-06,  avg # of iterations =  3.0

     negative rho (up, down):  1.151E-04 0.000E+00

     add environment contribution to local potential
     polarization accuracy = 7.7E-06, # of iterations =  13

     total cpu time spent up to now is       28.1 secs

     total energy              =     -81.44141831 Ry
     Harris-Foulkes estimate   =     -77.42508939 Ry
     estimated scf accuracy    <       0.00024861 Ry
     electrostatic embedding   =      -0.17335885 Ry
     correction to one-el term =      -3.84306519 Ry

     iteration #  7     ecut=    30.00 Ry     beta= 0.70
     Davidson diagonalization with overlap
     ethr =  1.04E-06,  avg # of iterations =  3.0

     negative rho (up, down):  2.248E-04 0.000E+00

     add environment contribution to local potential
     polarization accuracy = 7.8E-06, # of iterations =  13

     total cpu time spent up to now is       31.8 secs

     total energy              =     -81.44150059 Ry
     Harris-Foulkes estimate   =     -77.44153459 Ry
     estimated scf accuracy    <       0.00001466 Ry
     electrostatic embedding   =      -0.17263676 Ry
     correction to one-el term =      -3.82733115 Ry

     iteration #  8     ecut=    30.00 Ry     beta= 0.70
     Davidson diagonalization with overlap
     ethr =  6.11E-08,  avg # of iterations =  2.0

     negative rho (up, down):  2.728E-04 0.000E+00

     the potential shift due to the Gaussian-smeared nuclei is    -0.0668 ev

     total cpu time spent up to now is       33.8 secs

     End of self-consistent calculation

          k = 0.0000 0.0000 0.0000 ( 11060 PWs)   bands (ev):

   -29.2855 -23.1913 -18.5417 -16.1136 -14.7065 -13.3939 -11.9041 -11.0218
    -9.4051  -9.3704  -9.0674  -7.5225

     highest occupied level (ev):    -7.5225

!    total energy              =     -81.44150751 Ry
     Harris-Foulkes estimate   =     -77.44976164 Ry
     estimated scf accuracy    <       0.00000097 Ry

     The total energy is the sum of the following terms:

     one-electron contribution =    -241.94045275 Ry
     hartree contribution      =     123.07931005 Ry
     xc contribution           =     -22.89645838 Ry
     ewald contribution        =      64.30784006 Ry
     electrostatic embedding   =      -0.17219235 Ry
     correction to one-el term =      -3.81955413 Ry

     convergence has been achieved in   8 iterations

     Forces acting on atoms (cartesian axes, Ry/au):

     atom    1 type  1   force =     0.23397659    0.00000307    0.11270522
     atom    2 type  1   force =    -0.03841148    0.00000106   -0.09016857
     atom    3 type  3   force =    -0.15230069   -0.00000253    0.03662761
     atom    4 type  2   force =     0.02665755   -0.05062897    0.04498345
     atom    5 type  2   force =    -0.07802881   -0.00000138    0.07263078
     atom    6 type  2   force =     0.02665462    0.05063191    0.04498611
     atom    7 type  4   force =    -0.11003385   -0.00000716   -0.02580354
     atom    8 type  2   force =     0.04628624    0.00000004   -0.11609814
     atom    9 type  2   force =     0.08083205    0.00000509    0.02925676
     atom   10 type  2   force =    -0.03563221   -0.00000113   -0.10911968

     Total force =     0.415344     Total SCF correction =     0.002078

     Writing output data file pwscf.save/
 
     init_run     :      4.06s CPU      4.53s WALL (       1 calls)
     electrons    :     23.36s CPU     28.61s WALL (       1 calls)
     forces       :      1.23s CPU      1.51s WALL (       1 calls)

     Called by init_run:
     wfcinit      :      0.16s CPU      0.16s WALL (       1 calls)
     potinit      :      0.86s CPU      0.93s WALL (       1 calls)
     hinit0       :      2.60s CPU      2.69s WALL (       1 calls)

     Called by electrons:
     c_bands      :      2.07s CPU      2.08s WALL (       8 calls)
     sum_band     :      4.04s CPU      5.40s WALL (       8 calls)
     v_of_rho     :      4.26s CPU      4.70s WALL (       9 calls)
     newd         :      2.66s CPU      4.51s WALL (       9 calls)
     mix_rho      :      0.48s CPU      0.48s WALL (       8 calls)

     Called by c_bands:
     init_us_2    :      0.07s CPU      0.08s WALL (      17 calls)
     regterg      :      1.96s CPU      1.97s WALL (       8 calls)

     Called by sum_band:
     sum_band:bec :      0.00s CPU      0.00s WALL (       8 calls)
     addusdens    :      3.37s CPU      4.73s WALL (       8 calls)

     Called by *egterg:
     h_psi        :      1.92s CPU      1.93s WALL (      33 calls)
     s_psi        :      0.04s CPU      0.04s WALL (      33 calls)
     g_psi        :      0.02s CPU      0.01s WALL (      24 calls)
     rdiaghg      :      0.01s CPU      0.01s WALL (      32 calls)

     Called by h_psi:
     h_psi:pot    :      1.92s CPU      1.93s WALL (      33 calls)
     h_psi:calbec :      0.02s CPU      0.04s WALL (      33 calls)
     vloc_psi     :      1.84s CPU      1.85s WALL (      33 calls)
     add_vuspsi   :      0.05s CPU      0.04s WALL (      33 calls)

     General routines
     calbec       :      0.04s CPU      0.05s WALL (      45 calls)
     fft          :      7.04s CPU      7.00s WALL (     340 calls)
     ffts         :      0.06s CPU      0.06s WALL (      17 calls)
     fftw         :      1.65s CPU      1.66s WALL (     362 calls)
     interpolate  :      0.28s CPU      0.28s WALL (       9 calls)
 
     Parallel routines
 
     Environ routines
     calc_eelect  :      0.02s CPU      0.03s WALL (      16 calls)
     calc_velect  :      9.06s CPU     10.65s WALL (      14 calls)
     dielectric   :      0.12s CPU      0.14s WALL (       2 calls)
     calc_felect  :      0.10s CPU      0.10s WALL (       1 calls)
 
     PWSCF        :     29.30s CPU     35.34s WALL

 
   This run was terminated on:  15:15:20  24Apr2019            

=------------------------------------------------------------------------------=
   JOB DONE.
=------------------------------------------------------------------------------=

%%%% IONS %%%%%%%%%%%%%%%%%%%%%%%%%%%%%%%%%%%%%%%%%%%%%%%%%%%%%%%%%%%%%%%%%%%%%%
 number of ions             =         10
 ionic center of charge     =      0.0095530    -0.0000002     0.0063981
 total ionic charge         =    -25.0000000
 ionic dipole               =      0.0000000     0.0000000     0.0000000
 ionic quadrupole (pc)      =    -79.0828058    -5.4513517  -105.8059629
 ionic quadrupole (gauss)   =    -82.2078058    -8.5763517  -108.9309629
 ion   1 type =  1 coordinates =      0.0000000     0.0000000     0.0000000
 ion   2 type =  1 coordinates =      0.0000000     0.0000000     2.9101782
 ion   3 type =  3 coordinates =      2.3419379     0.0000000    -1.0900479
 ion   4 type =  2 coordinates =      0.9532347    -1.6509323     3.5841800
 ion   5 type =  2 coordinates =     -1.9063663    -0.0000596     3.5841809
 ion   6 type =  2 coordinates =      0.9531315     1.6509919     3.5841800
 ion   7 type =  4 coordinates =     -1.9680045    -0.0000375    -1.2826193
 ion   8 type =  2 coordinates =      2.5262613    -0.0000303    -2.9510950
 ion   9 type =  2 coordinates =      3.8892907     0.0002681    -0.0514326
 ion  10 type =  2 coordinates =     -1.5407317    -0.0000890    -3.0457220

%%%% SYSTEM %%%%%%%%%%%%%%%%%%%%%%%%%%%%%%%%%%%%%%%%%%%%%%%%%%%%%%%%%%%%%%%%%%%%
 system is built from all present ionic types
 system defined dimension   =  0 
 system defined axis        =  3 
 system center              =      0.0095530    -0.0000002     0.0063981 
 system width               =      0.2021425 

%%%% BOUNDARY %%%%%%%%%%%%%%%%%%%%%%%%%%%%%%%%%%%%%%%%%%%%%%%%%%%%%%%%%%%%%%%%%%
 boundary label             = solvent              
 boundary mode              = system               
 boundary is built as an analytic function centered on system position
 center of the boundary     =      0.0095530    -0.0000002     0.0063981 
 distance from the center   =      6.0000000 
 spread of the interface    =      0.5000000 
 dimensionality             =  0 
 axis                       =  3 
 volume of the QM region    =    914.2034622 
 surface of the QM region   =    453.9601384 

%%%% DIELECTRIC %%%%%%%%%%%%%%%%%%%%%%%%%%%%%%%%%%%%%%%%%%%%%%%%%%%%%%%%%%%%%%%%%
 dielectric build on homogeneous background
 environment bulk permitt.  =    100.0000000 
 dielectric flags
 need gradient              =  F 
 need factor depend. sqrt   =  T 
 total dielectric charge    =      0.0000000

%%%% ELECTRONS %%%%%%%%%%%%%%%%%%%%%%%%%%%%%%%%%%%%%%%%%%%%%%%%%%%%%%%%%%%%%%%%%
 number of electrons        =         24
 total electronic charge    =     24.0000000

%%%% DENSITY %%%%%%%%%%%%%%%%%%%%%%%%%%%%%%%%%%%%%%%%%%%%%%%%%%%%%%%%%%%%%%%%%%%
 density label              = vreference                                                                      
 integral of density        =      0.000000000    

%%%% DENSITY %%%%%%%%%%%%%%%%%%%%%%%%%%%%%%%%%%%%%%%%%%%%%%%%%%%%%%%%%%%%%%%%%%%
 density label              = velectrostatic                                                                  
 integral of density        =      0.000000000    

%%%% CHARGES %%%%%%%%%%%%%%%%%%%%%%%%%%%%%%%%%%%%%%%%%%%%%%%%%%%%%%%%%%%%%%%%%%%
 total number of charges    =         34
 total charge               =     -1.0000000

%%%% ELECTRONS %%%%%%%%%%%%%%%%%%%%%%%%%%%%%%%%%%%%%%%%%%%%%%%%%%%%%%%%%%%%%%%%%
 number of electrons        =         24
 total electronic charge    =     24.0000000

%%%% DENSITY %%%%%%%%%%%%%%%%%%%%%%%%%%%%%%%%%%%%%%%%%%%%%%%%%%%%%%%%%%%%%%%%%%%
 density label              = vreference                                                                      
 integral of density        =    -0.2329659099E-12

%%%% COMPUTE ELECTROSTATIC POTENTIAL %%%%%%%%%%%%%%%%%%%%%%%%%%%%%%%%%%%%%%%%%%%
 Iteration #          1
  pAp =    93.2812231391033       rzold =    89.1650420675300       alpha = 
  0.955873423042116     
 delta_qm =   0.215199E-01 delta_en =   0.800244E+03 tol =   0.100000E-04
 Iteration #          2
  pAp =    217.902184369988       rzold =    25.9654654954398       alpha = 
  0.119161106945820     
 delta_qm =   0.587328E-02 delta_en =   0.596082E+02 tol =   0.100000E-04
 Iteration #          3
  pAp =    4.43835631767265       rzold =   0.876598716595711       alpha = 
  0.197505259572168     
 delta_qm =   0.245912E-02 delta_en =   0.104497E+02 tol =   0.100000E-04
 Iteration #          4
  pAp =   0.275894914524008       rzold =   8.270107647979021E-002  alpha = 
  0.299755711780595     
 delta_qm =   0.129280E-02 delta_en =   0.288806E+01 tol =   0.100000E-04
 Iteration #          5
  pAp =   4.126453534839084E-002  rzold =   1.000851188899789E-002  alpha = 
  0.242545125117668     
 delta_qm =   0.914263E-03 delta_en =   0.144440E+01 tol =   0.100000E-04
 Iteration #          6
  pAp =   1.730560785987398E-002  rzold =   4.582959267124678E-003  alpha = 
  0.264825096248197     
 delta_qm =   0.567778E-03 delta_en =   0.557058E+00 tol =   0.100000E-04
 Iteration #          7
  pAp =   2.602737424676189E-003  rzold =   1.137419509724035E-003  alpha = 
  0.437008934877687     
 delta_qm =   0.300775E-03 delta_en =   0.156325E+00 tol =   0.100000E-04
 Iteration #          8
  pAp =   4.528688033838402E-004  rzold =   2.577392776894486E-004  alpha = 
  0.569125706526080     
 delta_qm =   0.171928E-03 delta_en =   0.510783E-01 tol =   0.100000E-04
 Iteration #          9
  pAp =   1.673666899474918E-004  rzold =   1.069476860936114E-004  alpha = 
  0.639002217987129     
 delta_qm =   0.690076E-04 delta_en =   0.822883E-02 tol =   0.100000E-04
 Iteration #         10
  pAp =   1.059886750784904E-004  rzold =   3.689119705180643E-005  alpha = 
  0.348067347992477     
 delta_qm =   0.323202E-04 delta_en =   0.180506E-02 tol =   0.100000E-04
 Iteration #         11
  pAp =   3.616758614815301E-005  rzold =   1.057137753685445E-005  alpha = 
  0.292288722104677     
 delta_qm =   0.145267E-04 delta_en =   0.364649E-03 tol =   0.100000E-04
 Iteration #         12
  pAp =   1.519809201737549E-006  rzold =   7.556201697552570E-007  alpha = 
  0.497180941457244     
 delta_qm =   0.567026E-05 delta_en =   0.555585E-04 tol =   0.100000E-04
 Iteration #         13
  pAp =   1.739656319174130E-007  rzold =   9.938301967931479E-008  alpha = 
  0.571279617611455     
 delta_qm =   0.177965E-05 delta_en =   0.547284E-05 tol =   0.100000E-04
 Charges are converged, EXIT

%%%% DENSITY %%%%%%%%%%%%%%%%%%%%%%%%%%%%%%%%%%%%%%%%%%%%%%%%%%%%%%%%%%%%%%%%%%%
 density label              = velectrostatic                                                                  
 integral of density        =     0.1049761101E-11

%%%% CHARGES %%%%%%%%%%%%%%%%%%%%%%%%%%%%%%%%%%%%%%%%%%%%%%%%%%%%%%%%%%%%%%%%%%%
 total number of charges    =         34
 total charge               =     -1.0000000

%%%% ELECTRONS %%%%%%%%%%%%%%%%%%%%%%%%%%%%%%%%%%%%%%%%%%%%%%%%%%%%%%%%%%%%%%%%%
 number of electrons        =         24
 total electronic charge    =     24.0000000

%%%% DENSITY %%%%%%%%%%%%%%%%%%%%%%%%%%%%%%%%%%%%%%%%%%%%%%%%%%%%%%%%%%%%%%%%%%%
 density label              = vreference                                                                      
 integral of density        =    -0.2046099915E-12

%%%% COMPUTE ELECTROSTATIC POTENTIAL %%%%%%%%%%%%%%%%%%%%%%%%%%%%%%%%%%%%%%%%%%%
 Warning: bad guess with residual norm =   0.813167E+03, reset to no guess
 Iteration #          1
  pAp =    96.8195197465788       rzold =    92.9585730003204       alpha = 
  0.960122227869295     
 delta_qm =   0.210203E-01 delta_en =   0.763518E+03 tol =   0.100000E-04
 Iteration #          2
  pAp =    202.195911417768       rzold =    24.3189731719758       alpha = 
  0.120274307237247     
 delta_qm =   0.565917E-02 delta_en =   0.553413E+02 tol =   0.100000E-04
 Iteration #          3
  pAp =    4.54325615517518       rzold =   0.853941224468430       alpha = 
  0.187957974479540     
 delta_qm =   0.232955E-02 delta_en =   0.937750E+01 tol =   0.100000E-04
 Iteration #          4
  pAp =   0.270477317394078       rzold =   7.340587319911066E-002  alpha = 
  0.271393822987975     
 delta_qm =   0.143322E-02 delta_en =   0.354954E+01 tol =   0.100000E-04
 Iteration #          5
  pAp =   9.289889653035814E-002  rzold =   1.773641562207288E-002  alpha = 
  0.190921703965309     
 delta_qm =   0.983380E-03 delta_en =   0.167104E+01 tol =   0.100000E-04
 Iteration #          6
  pAp =   1.167109621034785E-002  rzold =   4.210139522476169E-003  alpha = 
  0.360732140888648     
 delta_qm =   0.573838E-03 delta_en =   0.569014E+00 tol =   0.100000E-04
 Iteration #          7
  pAp =   2.327655204485230E-003  rzold =   1.084818581694462E-003  alpha = 
  0.466056389968794     
 delta_qm =   0.303391E-03 delta_en =   0.159056E+00 tol =   0.100000E-04
 Iteration #          8
  pAp =   4.581805139370284E-004  rzold =   2.607812377653171E-004  alpha = 
  0.569167020056114     
 delta_qm =   0.174048E-03 delta_en =   0.523457E-01 tol =   0.100000E-04
 Iteration #          9
  pAp =   2.345686105441443E-004  rzold =   1.221865700661433E-004  alpha = 
  0.520899065662277     
 delta_qm =   0.831968E-04 delta_en =   0.119607E-01 tol =   0.100000E-04
 Iteration #         10
  pAp =   2.084668889947834E-004  rzold =   6.402711328215590E-005  alpha = 
  0.307133250708980     
 delta_qm =   0.364302E-04 delta_en =   0.229333E-02 tol =   0.100000E-04
 Iteration #         11
  pAp =   2.507192801950847E-005  rzold =   1.006170253995456E-005  alpha = 
  0.401313474261953     
 delta_qm =   0.141310E-04 delta_en =   0.345058E-03 tol =   0.100000E-04
 Iteration #         12
  pAp =   1.248519399154045E-006  rzold =   6.620391740868635E-007  alpha = 
  0.530259421307702     
 delta_qm =   0.551457E-05 delta_en =   0.525493E-04 tol =   0.100000E-04
 Iteration #         13
  pAp =   1.664147209995723E-007  rzold =   9.663266857738897E-008  alpha = 
  0.580673800953206     
 delta_qm =   0.222776E-05 delta_en =   0.857595E-05 tol =   0.100000E-04
 Charges are converged, EXIT

%%%% DENSITY %%%%%%%%%%%%%%%%%%%%%%%%%%%%%%%%%%%%%%%%%%%%%%%%%%%%%%%%%%%%%%%%%%%
 density label              = velectrostatic                                                                  
 integral of density        =    -0.1437335847E-11

%%%% CHARGES %%%%%%%%%%%%%%%%%%%%%%%%%%%%%%%%%%%%%%%%%%%%%%%%%%%%%%%%%%%%%%%%%%%
 total number of charges    =         34
 total charge               =     -1.0000000

%%%% ELECTRONS %%%%%%%%%%%%%%%%%%%%%%%%%%%%%%%%%%%%%%%%%%%%%%%%%%%%%%%%%%%%%%%%%
 number of electrons        =         24
 total electronic charge    =     24.0000000

%%%% DENSITY %%%%%%%%%%%%%%%%%%%%%%%%%%%%%%%%%%%%%%%%%%%%%%%%%%%%%%%%%%%%%%%%%%%
 density label              = vreference                                                                      
 integral of density        =     0.2436898420E-12

%%%% COMPUTE ELECTROSTATIC POTENTIAL %%%%%%%%%%%%%%%%%%%%%%%%%%%%%%%%%%%%%%%%%%%
 Warning: bad guess with residual norm =   0.643741E+03, reset to no guess
 Iteration #          1
  pAp =    96.7586308392494       rzold =    93.6524280577973       alpha = 
  0.967897408690987     
 delta_qm =   0.188236E-01 delta_en =   0.612280E+03 tol =   0.100000E-04
 Iteration #          2
  pAp =    164.403187401976       rzold =    19.6764409388793       alpha = 
  0.119684059961497     
 delta_qm =   0.527480E-02 delta_en =   0.480790E+02 tol =   0.100000E-04
 Iteration #          3
  pAp =    3.86160222516512       rzold =   0.730680982609676       alpha = 
  0.189217050334187     
 delta_qm =   0.221190E-02 delta_en =   0.845422E+01 tol =   0.100000E-04
 Iteration #          4
  pAp =   0.218425383407320       rzold =   6.253067740188889E-002  alpha = 
  0.286279352822660     
 delta_qm =   0.131538E-02 delta_en =   0.298981E+01 tol =   0.100000E-04
 Iteration #          5
  pAp =   6.268218000015006E-002  rzold =   1.255645318967757E-002  alpha = 
  0.200319344184384     
 delta_qm =   0.932930E-03 delta_en =   0.150398E+01 tol =   0.100000E-04
 Iteration #          6
  pAp =   1.185592819337117E-002  rzold =   3.939145746239337E-003  alpha = 
  0.332251147442153     
 delta_qm =   0.557920E-03 delta_en =   0.537884E+00 tol =   0.100000E-04
 Iteration #          7
  pAp =   2.154101472434156E-003  rzold =   1.006321562410105E-003  alpha = 
  0.467165347263308     
 delta_qm =   0.295967E-03 delta_en =   0.151367E+00 tol =   0.100000E-04
 Iteration #          8
  pAp =   4.314208462361620E-004  rzold =   2.520070274850839E-004  alpha = 
  0.584132708661774     
 delta_qm =   0.164883E-03 delta_en =   0.469781E-01 tol =   0.100000E-04
 Iteration #          9
  pAp =   1.964460235722643E-004  rzold =   1.109918728814207E-004  alpha = 
  0.564999336016549     
 delta_qm =   0.704299E-04 delta_en =   0.857151E-02 tol =   0.100000E-04
 Iteration #         10
  pAp =   1.606310041131808E-004  rzold =   4.726382617506002E-005  alpha = 
  0.294238502934078     
 delta_qm =   0.333584E-04 delta_en =   0.192289E-02 tol =   0.100000E-04
 Iteration #         11
  pAp =   2.526232498307604E-005  rzold =   9.263555603354471E-006  alpha = 
  0.366694499004363     
 delta_qm =   0.134885E-04 delta_en =   0.314394E-03 tol =   0.100000E-04
 Iteration #         12
  pAp =   1.153904298376087E-006  rzold =   6.060139832294100E-007  alpha = 
  0.525185653682256     
 delta_qm =   0.528895E-05 delta_en =   0.483374E-04 tol =   0.100000E-04
 Iteration #         13
  pAp =   1.477188705209424E-007  rzold =   8.576602642223706E-008  alpha = 
  0.580603047665991     
 delta_qm =   0.208277E-05 delta_en =   0.749592E-05 tol =   0.100000E-04
 Charges are converged, EXIT

%%%% DENSITY %%%%%%%%%%%%%%%%%%%%%%%%%%%%%%%%%%%%%%%%%%%%%%%%%%%%%%%%%%%%%%%%%%%
 density label              = velectrostatic                                                                  
 integral of density        =     0.9868649108E-12

%%%% CHARGES %%%%%%%%%%%%%%%%%%%%%%%%%%%%%%%%%%%%%%%%%%%%%%%%%%%%%%%%%%%%%%%%%%%
 total number of charges    =         34
 total charge               =     -1.0000000

%%%% ELECTRONS %%%%%%%%%%%%%%%%%%%%%%%%%%%%%%%%%%%%%%%%%%%%%%%%%%%%%%%%%%%%%%%%%
 number of electrons        =         24
 total electronic charge    =     24.0000000

%%%% DENSITY %%%%%%%%%%%%%%%%%%%%%%%%%%%%%%%%%%%%%%%%%%%%%%%%%%%%%%%%%%%%%%%%%%%
 density label              = vreference                                                                      
 integral of density        =    -0.1884254070E-12

%%%% COMPUTE ELECTROSTATIC POTENTIAL %%%%%%%%%%%%%%%%%%%%%%%%%%%%%%%%%%%%%%%%%%%
 Warning: bad guess with residual norm =   0.562190E+03, reset to no guess
 Iteration #          1
  pAp =    96.2546960588427       rzold =    93.5352669753112       alpha = 
  0.971747569782268     
 delta_qm =   0.176457E-01 delta_en =   0.538048E+03 tol =   0.100000E-04
 Iteration #          2
  pAp =    142.204685289735       rzold =    17.0841572176916       alpha = 
  0.120137794214610     
 delta_qm =   0.508196E-02 delta_en =   0.446279E+02 tol =   0.100000E-04
 Iteration #          3
  pAp =    3.56921195722031       rzold =   0.675840408559530       alpha = 
  0.189352836609309     
 delta_qm =   0.213590E-02 delta_en =   0.788326E+01 tol =   0.100000E-04
 Iteration #          4
  pAp =   0.216196324750685       rzold =   6.079481143859488E-002  alpha = 
  0.281201872921303     
 delta_qm =   0.128096E-02 delta_en =   0.283541E+01 tol =   0.100000E-04
 Iteration #          5
  pAp =   6.359336695476715E-002  rzold =   1.248494506749495E-002  alpha = 
  0.196324643046110     
 delta_qm =   0.902145E-03 delta_en =   0.140636E+01 tol =   0.100000E-04
 Iteration #          6
  pAp =   1.071173416597266E-002  rzold =   3.656691285315109E-003  alpha = 
  0.341372482611742     
 delta_qm =   0.540617E-03 delta_en =   0.505036E+00 tol =   0.100000E-04
 Iteration #          7
  pAp =   2.002533269871861E-003  rzold =   9.397248426674050E-004  alpha = 
  0.469268030052523     
 delta_qm =   0.288108E-03 delta_en =   0.143435E+00 tol =   0.100000E-04
 Iteration #          8
  pAp =   4.142888174105993E-004  rzold =   2.395120862766881E-004  alpha = 
  0.578128291691998     
 delta_qm =   0.161067E-03 delta_en =   0.448290E-01 tol =   0.100000E-04
 Iteration #          9
  pAp =   1.828066833938179E-004  rzold =   1.038486997453918E-004  alpha = 
  0.568079338333993     
 delta_qm =   0.689172E-04 delta_en =   0.820727E-02 tol =   0.100000E-04
 Iteration #         10
  pAp =   1.496607077944416E-004  rzold =   4.439261826615777E-005  alpha = 
  0.296621731384104     
 delta_qm =   0.326557E-04 delta_en =   0.184273E-02 tol =   0.100000E-04
 Iteration #         11
  pAp =   2.463313505708111E-005  rzold =   8.988352136852563E-006  alpha = 
  0.364888680065461     
 delta_qm =   0.131346E-04 delta_en =   0.298110E-03 tol =   0.100000E-04
 Iteration #         12
  pAp =   1.124559482190631E-006  rzold =   5.879604190960513E-007  alpha = 
  0.522836211340916     
 delta_qm =   0.521531E-05 delta_en =   0.470007E-04 tol =   0.100000E-04
 Iteration #         13
  pAp =   1.404460236010138E-007  rzold =   8.240623773046101E-008  alpha = 
  0.586746677603097     
 delta_qm =   0.211073E-05 delta_en =   0.769855E-05 tol =   0.100000E-04
 Charges are converged, EXIT

%%%% DENSITY %%%%%%%%%%%%%%%%%%%%%%%%%%%%%%%%%%%%%%%%%%%%%%%%%%%%%%%%%%%%%%%%%%%
 density label              = velectrostatic                                                                  
 integral of density        =     0.4986299439E-12

%%%% CHARGES %%%%%%%%%%%%%%%%%%%%%%%%%%%%%%%%%%%%%%%%%%%%%%%%%%%%%%%%%%%%%%%%%%%
 total number of charges    =         34
 total charge               =     -1.0000000

%%%% ELECTRONS %%%%%%%%%%%%%%%%%%%%%%%%%%%%%%%%%%%%%%%%%%%%%%%%%%%%%%%%%%%%%%%%%
 number of electrons        =         24
 total electronic charge    =     24.0000000

%%%% DENSITY %%%%%%%%%%%%%%%%%%%%%%%%%%%%%%%%%%%%%%%%%%%%%%%%%%%%%%%%%%%%%%%%%%%
 density label              = vreference                                                                      
 integral of density        =     0.2586243976E-12

%%%% COMPUTE ELECTROSTATIC POTENTIAL %%%%%%%%%%%%%%%%%%%%%%%%%%%%%%%%%%%%%%%%%%%
 Warning: bad guess with residual norm =   0.551338E+03, reset to no guess
 Iteration #          1
  pAp =    96.2688205735891       rzold =    93.5982967268530       alpha = 
  0.972259721986573     
 delta_qm =   0.174819E-01 delta_en =   0.528108E+03 tol =   0.100000E-04
 Iteration #          2
  pAp =    138.942778087638       rzold =    16.7163833818646       alpha = 
  0.120311279304641     
 delta_qm =   0.507897E-02 delta_en =   0.445754E+02 tol =   0.100000E-04
 Iteration #          3
  pAp =    3.57209966164716       rzold =   0.676174363358360       alpha = 
  0.189293252542277     
 delta_qm =   0.213240E-02 delta_en =   0.785745E+01 tol =   0.100000E-04
 Iteration #          4
  pAp =   0.215550597024030       rzold =   6.086706019139375E-002  alpha = 
  0.282379455365684     
 delta_qm =   0.127005E-02 delta_en =   0.278730E+01 tol =   0.100000E-04
 Iteration #          5
  pAp =   6.141934305295977E-002  rzold =   1.214188018237138E-002  alpha = 
  0.197688213172548     
 delta_qm =   0.895480E-03 delta_en =   0.138566E+01 tol =   0.100000E-04
 Iteration #          6
  pAp =   1.088654114556747E-002  rzold =   3.664487252342037E-003  alpha = 
  0.336607119133891     
 delta_qm =   0.538497E-03 delta_en =   0.501085E+00 tol =   0.100000E-04
 Iteration #          7
  pAp =   1.995712063924626E-003  rzold =   9.349834210925545E-004  alpha = 
  0.468496151320488     
 delta_qm =   0.287084E-03 delta_en =   0.142417E+00 tol =   0.100000E-04
 Iteration #          8
  pAp =   4.103007008937629E-004  rzold =   2.372992328081014E-004  alpha = 
  0.578354441733074     
 delta_qm =   0.160570E-03 delta_en =   0.445526E-01 tol =   0.100000E-04
 Iteration #          9
  pAp =   1.758926854813951E-004  rzold =   1.017917218233947E-004  alpha = 
  0.578714922367603     
 delta_qm =   0.675991E-04 delta_en =   0.789634E-02 tol =   0.100000E-04
 Iteration #         10
  pAp =   1.405530006365335E-004  rzold =   4.201792957411497E-005  alpha = 
  0.298947225486650     
 delta_qm =   0.323321E-04 delta_en =   0.180640E-02 tol =   0.100000E-04
 Iteration #         11
  pAp =   2.527072349727511E-005  rzold =   9.010666642932050E-006  alpha = 
  0.356565440000309     
 delta_qm =   0.131315E-04 delta_en =   0.297971E-03 tol =   0.100000E-04
 Iteration #         12
  pAp =   1.132976508565977E-006  rzold =   5.908388830970708E-007  alpha = 
  0.521492615804456     
 delta_qm =   0.522506E-05 delta_en =   0.471766E-04 tol =   0.100000E-04
 Iteration #         13
  pAp =   1.403837525987399E-007  rzold =   8.247139367518773E-008  alpha = 
  0.587471072317866     
 delta_qm =   0.211328E-05 delta_en =   0.771720E-05 tol =   0.100000E-04
 Charges are converged, EXIT

%%%% DENSITY %%%%%%%%%%%%%%%%%%%%%%%%%%%%%%%%%%%%%%%%%%%%%%%%%%%%%%%%%%%%%%%%%%%
 density label              = velectrostatic                                                                  
 integral of density        =     0.7473856924E-13

%%%% CHARGES %%%%%%%%%%%%%%%%%%%%%%%%%%%%%%%%%%%%%%%%%%%%%%%%%%%%%%%%%%%%%%%%%%%
 total number of charges    =         34
 total charge               =     -1.0000000

%%%% ELECTRONS %%%%%%%%%%%%%%%%%%%%%%%%%%%%%%%%%%%%%%%%%%%%%%%%%%%%%%%%%%%%%%%%%
 number of electrons        =         24
 total electronic charge    =     24.0000000

%%%% DENSITY %%%%%%%%%%%%%%%%%%%%%%%%%%%%%%%%%%%%%%%%%%%%%%%%%%%%%%%%%%%%%%%%%%%
 density label              = vreference                                                                      
 integral of density        =    -0.6781077757E-12

%%%% COMPUTE ELECTROSTATIC POTENTIAL %%%%%%%%%%%%%%%%%%%%%%%%%%%%%%%%%%%%%%%%%%%
 Warning: bad guess with residual norm =   0.548764E+03, reset to no guess
 Iteration #          1
  pAp =    96.2744882709374       rzold =    93.6148180879780       alpha = 
  0.972374091717065     
 delta_qm =   0.174428E-01 delta_en =   0.525747E+03 tol =   0.100000E-04
 Iteration #          2
  pAp =    138.278252630567       rzold =    16.6390693990618       alpha = 
  0.120330341774826     
 delta_qm =   0.507716E-02 delta_en =   0.445435E+02 tol =   0.100000E-04
 Iteration #          3
  pAp =    3.56461216201210       rzold =   0.675070771595107       alpha = 
  0.189381268119237     
 delta_qm =   0.213406E-02 delta_en =   0.786970E+01 tol =   0.100000E-04
 Iteration #          4
  pAp =   0.215963824887104       rzold =   6.097170308226760E-002  alpha = 
  0.282323685988339     
 delta_qm =   0.127058E-02 delta_en =   0.278962E+01 tol =   0.100000E-04
 Iteration #          5
  pAp =   6.134073705226110E-002  rzold =   1.213006167635778E-002  alpha = 
  0.197748873901258     
 delta_qm =   0.896270E-03 delta_en =   0.138810E+01 tol =   0.100000E-04
 Iteration #          6
  pAp =   1.089704283290575E-002  rzold =   3.668533125752758E-003  alpha = 
  0.336654006229553     
 delta_qm =   0.539035E-03 delta_en =   0.502086E+00 tol =   0.100000E-04
 Iteration #          7
  pAp =   1.998548688826210E-003  rzold =   9.363490601048203E-004  alpha = 
  0.468514510224296     
 delta_qm =   0.287414E-03 delta_en =   0.142744E+00 tol =   0.100000E-04
 Iteration #          8
  pAp =   4.116766503723594E-004  rzold =   2.380408386888579E-004  alpha = 
  0.578222832102698     
 delta_qm =   0.160701E-03 delta_en =   0.446253E-01 tol =   0.100000E-04
 Iteration #          9
  pAp =   1.759381350913033E-004  rzold =   1.019847071499186E-004  alpha = 
  0.579662317649289     
 delta_qm =   0.674764E-04 delta_en =   0.786769E-02 tol =   0.100000E-04
 Iteration #         10
  pAp =   1.396640518089956E-004  rzold =   4.179922523590860E-005  alpha = 
  0.299284065545178     
 delta_qm =   0.323106E-04 delta_en =   0.180398E-02 tol =   0.100000E-04
 Iteration #         11
  pAp =   2.540938488876801E-005  rzold =   9.028851802529880E-006  alpha = 
  0.355335315752606     
 delta_qm =   0.131457E-04 delta_en =   0.298613E-03 tol =   0.100000E-04
 Iteration #         12
  pAp =   1.136042336328583E-006  rzold =   5.922117908138537E-007  alpha = 
  0.521293768617585     
 delta_qm =   0.523479E-05 delta_en =   0.473525E-04 tol =   0.100000E-04
 Iteration #         13
  pAp =   1.405527064494746E-007  rzold =   8.261383065925422E-008  alpha = 
  0.587778298591155     
 delta_qm =   0.211755E-05 delta_en =   0.774842E-05 tol =   0.100000E-04
 Charges are converged, EXIT

%%%% DENSITY %%%%%%%%%%%%%%%%%%%%%%%%%%%%%%%%%%%%%%%%%%%%%%%%%%%%%%%%%%%%%%%%%%%
 density label              = velectrostatic                                                                  
 integral of density        =     0.3994829159E-12

%%%% CHARGES %%%%%%%%%%%%%%%%%%%%%%%%%%%%%%%%%%%%%%%%%%%%%%%%%%%%%%%%%%%%%%%%%%%
 total number of charges    =         34
 total charge               =     -1.0000000

%%%% ELECTRONS %%%%%%%%%%%%%%%%%%%%%%%%%%%%%%%%%%%%%%%%%%%%%%%%%%%%%%%%%%%%%%%%%
 number of electrons        =         24
 total electronic charge    =     24.0000000

%%%% DENSITY %%%%%%%%%%%%%%%%%%%%%%%%%%%%%%%%%%%%%%%%%%%%%%%%%%%%%%%%%%%%%%%%%%%
 density label              = vreference                                                                      
 integral of density        =     0.5588287035E-12

%%%% COMPUTE ELECTROSTATIC POTENTIAL %%%%%%%%%%%%%%%%%%%%%%%%%%%%%%%%%%%%%%%%%%%
 Warning: bad guess with residual norm =   0.546946E+03, reset to no guess
 Iteration #          1
  pAp =    96.2864980334526       rzold =    93.6349031628535       alpha = 
  0.972461405028170     
 delta_qm =   0.174151E-01 delta_en =   0.524079E+03 tol =   0.100000E-04
 Iteration #          2
  pAp =    137.837142556836       rzold =    16.5860420598244       alpha = 
  0.120330716033128     
 delta_qm =   0.507351E-02 delta_en =   0.444795E+02 tol =   0.100000E-04
 Iteration #          3
  pAp =    3.55612200722071       rzold =   0.673712154048885       alpha = 
  0.189451360971562     
 delta_qm =   0.213351E-02 delta_en =   0.786560E+01 tol =   0.100000E-04
 Iteration #          4
  pAp =   0.215950884477436       rzold =   6.096018845694067E-002  alpha = 
  0.282287283075751     
 delta_qm =   0.127015E-02 delta_en =   0.278777E+01 tol =   0.100000E-04
 Iteration #          5
  pAp =   6.119894749377095E-002  rzold =   1.210654947113672E-002  alpha = 
  0.197822837923299     
 delta_qm =   0.896034E-03 delta_en =   0.138737E+01 tol =   0.100000E-04
 Iteration #          6
  pAp =   1.089703252187117E-002  rzold =   3.667203749030386E-003  alpha = 
  0.336532330400045     
 delta_qm =   0.539069E-03 delta_en =   0.502148E+00 tol =   0.100000E-04
 Iteration #          7
  pAp =   1.997988728615133E-003  rzold =   9.361511784554474E-004  alpha = 
  0.468546776589837     
 delta_qm =   0.287440E-03 delta_en =   0.142770E+00 tol =   0.100000E-04
 Iteration #          8
  pAp =   4.119110602263517E-004  rzold =   2.381725032654289E-004  alpha = 
  0.578213420961674     
 delta_qm =   0.160680E-03 delta_en =   0.446136E-01 tol =   0.100000E-04
 Iteration #          9
  pAp =   1.756772226700144E-004  rzold =   1.019497560022559E-004  alpha = 
  0.580324270003714     
 delta_qm =   0.673577E-04 delta_en =   0.784004E-02 tol =   0.100000E-04
 Iteration #         10
  pAp =   1.388990105291148E-004  rzold =   4.160313764142537E-005  alpha = 
  0.299520763200144     
 delta_qm =   0.322760E-04 delta_en =   0.180013E-02 tol =   0.100000E-04
 Iteration #         11
  pAp =   2.546723634810496E-005  rzold =   9.029279490854769E-006  alpha = 
  0.354544928528401     
 delta_qm =   0.131449E-04 delta_en =   0.298578E-03 tol =   0.100000E-04
 Iteration #         12
  pAp =   1.136625089786475E-006  rzold =   5.923816126845867E-007  alpha = 
  0.521175907524504     
 delta_qm =   0.523708E-05 delta_en =   0.473939E-04 tol =   0.100000E-04
 Iteration #         13
  pAp =   1.405156163431184E-007  rzold =   8.261945217290192E-008  alpha = 
  0.587973453222149     
 delta_qm =   0.211971E-05 delta_en =   0.776423E-05 tol =   0.100000E-04
 Charges are converged, EXIT

%%%% DENSITY %%%%%%%%%%%%%%%%%%%%%%%%%%%%%%%%%%%%%%%%%%%%%%%%%%%%%%%%%%%%%%%%%%%
 density label              = velectrostatic                                                                  
 integral of density        =     0.6875158878E-12

%%%% CHARGES %%%%%%%%%%%%%%%%%%%%%%%%%%%%%%%%%%%%%%%%%%%%%%%%%%%%%%%%%%%%%%%%%%%
 total number of charges    =         34
 total charge               =     -1.0000000

%%%% ELECTRONS %%%%%%%%%%%%%%%%%%%%%%%%%%%%%%%%%%%%%%%%%%%%%%%%%%%%%%%%%%%%%%%%%
 number of electrons        =         24
 total electronic charge    =     24.0000000

%%%% DENSITY %%%%%%%%%%%%%%%%%%%%%%%%%%%%%%%%%%%%%%%%%%%%%%%%%%%%%%%%%%%%%%%%%%%
 density label              = vreference                                                                      
 integral of density        =     0.5588287035E-12

%%%% DENSITY %%%%%%%%%%%%%%%%%%%%%%%%%%%%%%%%%%%%%%%%%%%%%%%%%%%%%%%%%%%%%%%%%%%
 density label              = velectrostatic                                                                  
 integral of density        =     0.6875158878E-12

%%%% CHARGES %%%%%%%%%%%%%%%%%%%%%%%%%%%%%%%%%%%%%%%%%%%%%%%%%%%%%%%%%%%%%%%%%%%
 total number of charges    =         34
 total charge               =     -1.0000000
