
     Program PWSCF v.6.1 (svn rev. 13369) starts on  7Nov2017 at 16:18:47 

     This program is part of the open-source Quantum ESPRESSO suite
     for quantum simulation of materials; please cite
         "P. Giannozzi et al., J. Phys.:Condens. Matter 21 395502 (2009);
          URL http://www.quantum-espresso.org", 
     in publications or presentations arising from this work. More details at
     http://www.quantum-espresso.org/quote

     Serial version
     Reading input from neutral.in

     Current dimensions of program PWSCF are:
     Max number of different atomic species (ntypx) = 10
     Max number of k-points (npk) =  40000
     Max angular momentum in pseudopotentials (lmaxx) =  3
               file H.pbe-rrkjus.UPF: wavefunction(s)  1S renormalized
               file O.pbe-rrkjus.UPF: wavefunction(s)  2S renormalized

     gamma-point specific algorithms are used

     G-vector sticks info
     --------------------
     sticks:   dense  smooth     PW     G-vecs:    dense   smooth      PW
     Sum        9549    3809    949               701475   177509   22119



     bravais-lattice index     =            1
     lattice parameter (alat)  =      20.0000  a.u.
     unit-cell volume          =    8000.0000 (a.u.)^3
     number of atoms/cell      =            3
     number of atomic types    =            2
     number of electrons       =         8.00
     number of Kohn-Sham states=            4
     kinetic-energy cutoff     =      30.0000  Ry
     charge density cutoff     =     300.0000  Ry
     convergence threshold     =      5.0E-03
     mixing beta               =       0.7000
     number of iterations used =            8  plain     mixing
     Exchange-correlation      =  SLA  PW   PBE  PBE ( 1  4  3  4 0 0)


     Environ Module
     ==============

     Plese cite
         O. Andreussi, I. Dabo and N. Marzari, J. Chem. Phys. 136, 064102 (2012)         
     in publications or presentations arising from this work.

     compensation onset threshold      =               0.1000E+03 
     static permittivity               =                   100.00 
     epsilon calculation mode          =               electronic 

     Electrostatic Setup
     -------------------
     electrostatic problem to solve    = generalized              
     numerical solver adopted          = cg                       
     type of auxiliary density adopted = none                     
     type of core tool for poisson     = fft                      
     type of core tool for s(r) deriv  = analytic                 



     celldm(1)=  20.000000  celldm(2)=   0.000000  celldm(3)=   0.000000
     celldm(4)=   0.000000  celldm(5)=   0.000000  celldm(6)=   0.000000

     crystal axes: (cart. coord. in units of alat)
               a(1) = (   1.000000   0.000000   0.000000 )  
               a(2) = (   0.000000   1.000000   0.000000 )  
               a(3) = (   0.000000   0.000000   1.000000 )  

     reciprocal axes: (cart. coord. in units 2 pi/alat)
               b(1) = (  1.000000  0.000000  0.000000 )  
               b(2) = (  0.000000  1.000000  0.000000 )  
               b(3) = (  0.000000  0.000000  1.000000 )  


     PseudoPot. # 1 for H  read from file:
     /Users/oliviero/PWSCF/espresso-6.1-Environ-1.0/Environ/tests/../..//pseudo/H.pbe-rrkjus.UPF
     MD5 check sum: 7cc9d459525c9a0585f487a71c3c9563
     Pseudo is Ultrasoft, Zval =  1.0
     Generated by new atomic code, or converted to UPF format
     Using radial grid of 1061 points,  2 beta functions with: 
                l(1) =   0
                l(2) =   0
     Q(r) pseudized with 0 coefficients 


     PseudoPot. # 2 for O  read from file:
     /Users/oliviero/PWSCF/espresso-6.1-Environ-1.0/Environ/tests/../..//pseudo/O.pbe-rrkjus.UPF
     MD5 check sum: 390ba29e75625707450f3bd3f0eb6be9
     Pseudo is Ultrasoft, Zval =  6.0
     Generated by new atomic code, or converted to UPF format
     Using radial grid of 1269 points,  4 beta functions with: 
                l(1) =   0
                l(2) =   0
                l(3) =   1
                l(4) =   1
     Q(r) pseudized with 0 coefficients 


     atomic species   valence    mass     pseudopotential
        H              1.00     1.00000     H ( 1.00)
        O              6.00    16.00000     O ( 1.00)

     No symmetry found



   Cartesian axes

     site n.     atom                  positions (alat units)
         1           O   tau(   1) = (   0.5895000   0.6025000   0.5750000  )
         2           H   tau(   2) = (   0.6725000   0.5610000   0.5750000  )
         3           H   tau(   3) = (   0.5280000   0.5330000   0.5750000  )

     number of k points=     1
                       cart. coord. in units 2pi/alat
        k(    1) = (   0.0000000   0.0000000   0.0000000), wk =   2.0000000

     Dense  grid:   350738 G-vectors     FFT dimensions: ( 120, 120, 120)

     Smooth grid:    88755 G-vectors     FFT dimensions: (  72,  72,  72)

     Estimated max dynamical RAM per process >     270.62MB

     Initial potential from superposition of free atoms
     Check: negative starting charge=   -0.000775

     starting charge    7.80759, renormalised to    8.00000

     negative rho (up, down):  7.936E-04 0.000E+00
     Starting wfc are    6 randomized atomic wfcs

     total cpu time spent up to now is        4.7 secs

     Self-consistent Calculation

     iteration #  1     ecut=    30.00 Ry     beta=0.70
     Davidson diagonalization with overlap
     ethr =  1.00E-02,  avg # of iterations =  2.0

     negative rho (up, down):  2.595E-04 0.000E+00

     add environment contribution to local potential
     polarization accuracy = 4.4E-05, # of iterations =  10

     total cpu time spent up to now is       10.8 secs

     total energy              =     -34.06236055 Ry
     Harris-Foulkes estimate   =     -34.58697711 Ry
     estimated scf accuracy    <       0.68458994 Ry
     electrostatic embedding   =       0.00000000 Ry
     correction to one-el term =       0.00000000 Ry

     iteration #  2     ecut=    30.00 Ry     beta=0.70
     Davidson diagonalization with overlap
     ethr =  8.56E-03,  avg # of iterations =  2.0

     negative rho (up, down):  2.656E-03 0.000E+00

     add environment contribution to local potential
     polarization accuracy = 1.2E-05, # of iterations =  11

     total cpu time spent up to now is       17.4 secs

     total energy              =     -34.21517769 Ry
     Harris-Foulkes estimate   =     -33.94010648 Ry
     estimated scf accuracy    <       0.35517680 Ry
     electrostatic embedding   =      -0.03412249 Ry
     correction to one-el term =      -0.42401293 Ry

     iteration #  3     ecut=    30.00 Ry     beta=0.70
     Davidson diagonalization with overlap
     ethr =  4.44E-03,  avg # of iterations =  2.0

     negative rho (up, down):  2.205E-04 0.000E+00

     add environment contribution to local potential
     polarization accuracy = 3.7E-05, # of iterations =  11

     total cpu time spent up to now is       23.5 secs

     total energy              =     -34.28765244 Ry
     Harris-Foulkes estimate   =     -33.97794108 Ry
     estimated scf accuracy    <       0.01537371 Ry
     electrostatic embedding   =      -0.02912296 Ry
     correction to one-el term =      -0.28923673 Ry

     iteration #  4     ecut=    30.00 Ry     beta=0.70
     Davidson diagonalization with overlap
     ethr =  1.92E-04,  avg # of iterations =  2.0

     negative rho (up, down):  2.142E-04 0.000E+00

     total cpu time spent up to now is       26.6 secs

     End of self-consistent calculation

          k = 0.0000 0.0000 0.0000 ( 11060 PWs)   bands (ev):

   -24.5417 -12.3152  -8.7691  -6.7994

     highest occupied level (ev):    -6.7994

!    total energy              =     -34.29562483 Ry
     Harris-Foulkes estimate   =     -34.17196305 Ry
     estimated scf accuracy    <       0.00017517 Ry

     The total energy is the sum of the following terms:

     one-electron contribution =     -63.79215108 Ry
     hartree contribution      =      33.45947774 Ry
     xc contribution           =      -8.39660820 Ry
     ewald contribution        =       4.55735774 Ry
     electrostatic embedding   =      -0.03350890 Ry
     correction to one-el term =      -0.09019214 Ry

     convergence has been achieved in   4 iterations

     Forces acting on atoms (cartesian axes, Ry/au):

     atom    1 type  2   force =     0.00237664   -0.01238950   -0.00000596
     atom    2 type  1   force =    -0.00872078    0.00471266    0.00000269
     atom    3 type  1   force =     0.00634414    0.00767683    0.00000327

     Total force =     0.018884     Total SCF correction =     0.022995
     SCF correction compared to forces is large: reduce conv_thr to get better values

     Writing output data file pwscf.save

     init_run     :      4.17s CPU      4.59s WALL (       1 calls)
     electrons    :     20.18s CPU     22.23s WALL (       1 calls)
     forces       :      1.23s CPU      1.38s WALL (       1 calls)

     Called by init_run:
     wfcinit      :      0.08s CPU      0.11s WALL (       1 calls)
     potinit      :      1.55s CPU      1.65s WALL (       1 calls)

     Called by electrons:
     c_bands      :      0.44s CPU      0.47s WALL (       4 calls)
     sum_band     :      2.68s CPU      2.75s WALL (       4 calls)
     v_of_rho     :      5.48s CPU      5.90s WALL (       5 calls)
     newd         :      1.40s CPU      1.87s WALL (       5 calls)
     mix_rho      :      0.44s CPU      0.50s WALL (       4 calls)

     Called by c_bands:
     init_us_2    :      0.03s CPU      0.05s WALL (       9 calls)
     regterg      :      0.41s CPU      0.43s WALL (       4 calls)

     Called by sum_band:
     sum_band:bec :      0.00s CPU      0.00s WALL (       4 calls)
     addusdens    :      1.78s CPU      1.81s WALL (       4 calls)

     Called by *egterg:
     h_psi        :      0.43s CPU      0.44s WALL (      13 calls)
     s_psi        :      0.01s CPU      0.01s WALL (      13 calls)
     g_psi        :      0.00s CPU      0.00s WALL (       8 calls)
     rdiaghg      :      0.00s CPU      0.02s WALL (      12 calls)

     Called by h_psi:
     h_psi:pot    :      0.43s CPU      0.44s WALL (      13 calls)
     h_psi:calbec :      0.01s CPU      0.01s WALL (      13 calls)
     vloc_psi     :      0.41s CPU      0.42s WALL (      13 calls)
     add_vuspsi   :      0.01s CPU      0.01s WALL (      13 calls)

     General routines
     calbec       :      0.01s CPU      0.01s WALL (      21 calls)
     fft          :     10.38s CPU     10.51s WALL (     193 calls)
     ffts         :      0.09s CPU      0.09s WALL (       9 calls)
     fftw         :      0.37s CPU      0.39s WALL (      62 calls)
     interpolate  :      0.67s CPU      0.73s WALL (       9 calls)
     davcio       :      0.00s CPU      0.08s WALL (       1 calls)


     Environ routines
     calc_eelect  :      0.02s CPU      0.02s WALL (       8 calls)
     calc_velect  :      6.23s CPU      6.77s WALL (       6 calls)
     dielectric   :      0.37s CPU      0.45s WALL (       5 calls)
     calc_felect  :      0.46s CPU      0.50s WALL (       1 calls)

     PWSCF        :    25.78s CPU        28.66s WALL


   This run was terminated on:  16:19:16   7Nov2017            

=------------------------------------------------------------------------------=
   JOB DONE.
=------------------------------------------------------------------------------=

%%%% IONS %%%%%%%%%%%%%%%%%%%%%%%%%%%%%%%%%%%%%%%%%%%%%%%%%%%%%%%%%%%%%%%%%%%%%%
 number of ions             =          3
 ionic center of charge     =      0.5921875     0.5886250     0.5750000
 total ionic charge         =     -8.0000000
 ionic dipole               =      0.0000000     0.0000000     0.0000000
 ionic quadrupole (pc)      =     -4.2453875    -2.0049500     0.0000000
 ionic quadrupole (gauss)   =     -5.2453875    -3.0049500    -1.0000000
 ion   1 type =  2 coordinates =     11.7900000    12.0500000    11.5000000
 ion   2 type =  1 coordinates =     13.4500000    11.2200000    11.5000000
 ion   3 type =  1 coordinates =     10.5600000    10.6600000    11.5000000

%%%% SYSTEM %%%%%%%%%%%%%%%%%%%%%%%%%%%%%%%%%%%%%%%%%%%%%%%%%%%%%%%%%%%%%%%%%%%%
 system is built from all present ionic types
 system defined dimension   =  0 
 system defined axis        =  3 
 system center              =      0.5921875     0.5886250     0.5750000 
 system width               =      0.1209436 

%%%% ELECTRONS %%%%%%%%%%%%%%%%%%%%%%%%%%%%%%%%%%%%%%%%%%%%%%%%%%%%%%%%%%%%%%%%%
 number of electrons        =          8
 total electronic charge    =      8.0000000
 number of spin components  =  1

%%%% BOUNDARY %%%%%%%%%%%%%%%%%%%%%%%%%%%%%%%%%%%%%%%%%%%%%%%%%%%%%%%%%%%%%%%%%%
 boundary mode              = electronic           
 boundary is built as a function of a smooth density
 function type              =  2 
 using the modified SCCS function with parameters 
 rhomax                     =      0.0050000 
 rhomin                     =      0.0001000 
 volume of the QM region    =    306.9268418 
 surface of the QM region   =    219.1546597 

%%%% DIELECTRIC %%%%%%%%%%%%%%%%%%%%%%%%%%%%%%%%%%%%%%%%%%%%%%%%%%%%%%%%%%%%%%%%%
 dielectric build on homogeneous background
 environment bulk permitt.  =    100.0000000 
 dielectric flags
 need gradient              =  F 
 need factor depend. sqrt   =  T 
 need gradient of logarithm =  T 

%%%% COMPUTE ELECTROSTATIC POTENTIAL %%%%%%%%%%%%%%%%%%%%%%%%%%%%%%%%%%%%%%%%%%%
 Iteration #          1
  pAp =    26.724011334975529       rzold =    26.162202473674565       alpha =   0.97897737528027140     
 delta_qm =   0.832724E-02 delta_en =   0.119825E+03 tol =   0.100000E-03
 Iteration #          2
  pAp =    26.707037563388354       rzold =    3.3693211826045042       alpha =   0.12615855182767918     
 delta_qm =   0.276282E-02 delta_en =   0.131901E+02 tol =   0.100000E-03
 Iteration #          3
  pAp =    1.6608487111818675       rzold =   0.23569829128796377       alpha =   0.14191436564998133     
 delta_qm =   0.788670E-03 delta_en =   0.107482E+01 tol =   0.100000E-03
 Iteration #          4
  pAp =    3.3071149492290723E-002  rzold =    8.5753992907114992E-003  alpha =   0.25930151876669805     
 delta_qm =   0.436589E-03 delta_en =   0.329375E+00 tol =   0.100000E-03
 Iteration #          5
  pAp =    1.2080552383062523E-003  rzold =    7.1601706794388522E-004  alpha =   0.59270225834025048     
 delta_qm =   0.126505E-03 delta_en =   0.276541E-01 tol =   0.100000E-03
 Iteration #          6
  pAp =    2.1968784635063599E-004  rzold =    8.6005788014019340E-005  alpha =   0.39149087872957955     
 delta_qm =   0.716146E-04 delta_en =   0.886232E-02 tol =   0.100000E-03
 Iteration #          7
  pAp =    6.7879825039191661E-006  rzold =    7.2300759615847305E-006  alpha =    1.0651288446029896     
 delta_qm =   0.330558E-04 delta_en =   0.188816E-02 tol =   0.100000E-03
 Iteration #          8
  pAp =    9.6949349731941584E-006  rzold =    4.2656396193186107E-006  alpha =   0.43998640848162640     
 delta_qm =   0.176526E-04 delta_en =   0.538472E-03 tol =   0.100000E-03
 Iteration #          9
  pAp =    6.7476670090163739E-006  rzold =    1.9421661415081085E-006  alpha =   0.28782779869145075     
 delta_qm =   0.957677E-05 delta_en =   0.158483E-03 tol =   0.100000E-03
 Iteration #         10
  pAp =    1.2070067139049852E-006  rzold =    3.8786216338844279E-007  alpha =   0.32134217558211120     
 delta_qm =   0.502009E-05 delta_en =   0.435479E-04 tol =   0.100000E-03
 Charges are converged, EXIT

%%%% ELECTRONS %%%%%%%%%%%%%%%%%%%%%%%%%%%%%%%%%%%%%%%%%%%%%%%%%%%%%%%%%%%%%%%%%
 number of electrons        =          8
 total electronic charge    =      8.0000000
 number of spin components  =  1

%%%% BOUNDARY %%%%%%%%%%%%%%%%%%%%%%%%%%%%%%%%%%%%%%%%%%%%%%%%%%%%%%%%%%%%%%%%%%
 boundary mode              = electronic           
 boundary is built as a function of a smooth density
 function type              =  2 
 using the modified SCCS function with parameters 
 rhomax                     =      0.0050000 
 rhomin                     =      0.0001000 
 volume of the QM region    =    332.8675808 
 surface of the QM region   =    231.8873801 

%%%% DIELECTRIC %%%%%%%%%%%%%%%%%%%%%%%%%%%%%%%%%%%%%%%%%%%%%%%%%%%%%%%%%%%%%%%%%
 dielectric build on homogeneous background
 environment bulk permitt.  =    100.0000000 
 dielectric flags
 need gradient              =  F 
 need factor depend. sqrt   =  T 
 need gradient of logarithm =  T 

%%%% COMPUTE ELECTROSTATIC POTENTIAL %%%%%%%%%%%%%%%%%%%%%%%%%%%%%%%%%%%%%%%%%%%
 Warning: bad guess with residual norm =   0.454753E+02, reset to no guess
 Iteration #          1
  pAp =    28.942675353192232       rzold =    28.528475111009996       alpha =   0.98568894419304076     
 delta_qm =   0.102049E-01 delta_en =   0.179953E+03 tol =   0.100000E-03
 Iteration #          2
  pAp =    19.854225155185741       rzold =    2.5086195226736678       alpha =   0.12635192273008145     
 delta_qm =   0.321024E-02 delta_en =   0.178082E+02 tol =   0.100000E-03
 Iteration #          3
  pAp =    1.1588775781558029       rzold =   0.16513706469412728       alpha =   0.14249741975068722     
 delta_qm =   0.100495E-02 delta_en =   0.174515E+01 tol =   0.100000E-03
 Iteration #          4
  pAp =    2.9552604974761032E-002  rzold =    7.2086601003037666E-003  alpha =   0.24392638504998854     
 delta_qm =   0.590669E-03 delta_en =   0.602882E+00 tol =   0.100000E-03
 Iteration #          5
  pAp =    9.7502454901098241E-004  rzold =    5.9189737629790459E-004  alpha =   0.60705894728322130     
 delta_qm =   0.208461E-03 delta_en =   0.750922E-01 tol =   0.100000E-03
 Iteration #          6
  pAp =    1.7902374022635585E-004  rzold =    6.8099832126448476E-005  alpha =   0.38039553882822313     
 delta_qm =   0.146213E-03 delta_en =   0.369415E-01 tol =   0.100000E-03
 Iteration #          7
  pAp =    1.1658169469475795E-005  rzold =    1.0336624437249293E-005  alpha =   0.88664214946551767     
 delta_qm =   0.749987E-04 delta_en =   0.971967E-02 tol =   0.100000E-03
 Iteration #          8
  pAp =    1.8803958402808517E-005  rzold =    8.7916642582609359E-006  alpha =   0.46754327306679389     
 delta_qm =   0.282832E-04 delta_en =   0.138229E-02 tol =   0.100000E-03
 Iteration #          9
  pAp =    3.3214513344073832E-006  rzold =    1.4599994741963767E-006  alpha =   0.43956672165328337     
 delta_qm =   0.145833E-04 delta_en =   0.367500E-03 tol =   0.100000E-03
 Iteration #         10
  pAp =    2.4387275520080714E-006  rzold =    5.4954772705981885E-007  alpha =   0.22534199304359195     
 delta_qm =   0.919216E-05 delta_en =   0.146009E-03 tol =   0.100000E-03
 Iteration #         11
  pAp =    1.5029265612568408E-007  rzold =    9.2350709615345925E-008  alpha =   0.61447253642331345     
 delta_qm =   0.268041E-05 delta_en =   0.124150E-04 tol =   0.100000E-03
 Charges are converged, EXIT

%%%% ELECTRONS %%%%%%%%%%%%%%%%%%%%%%%%%%%%%%%%%%%%%%%%%%%%%%%%%%%%%%%%%%%%%%%%%
 number of electrons        =          8
 total electronic charge    =      8.0000000
 number of spin components  =  1

%%%% BOUNDARY %%%%%%%%%%%%%%%%%%%%%%%%%%%%%%%%%%%%%%%%%%%%%%%%%%%%%%%%%%%%%%%%%%
 boundary mode              = electronic           
 boundary is built as a function of a smooth density
 function type              =  2 
 using the modified SCCS function with parameters 
 rhomax                     =      0.0050000 
 rhomin                     =      0.0001000 
 volume of the QM region    =    295.4304536 
 surface of the QM region   =    214.3066337 

%%%% DIELECTRIC %%%%%%%%%%%%%%%%%%%%%%%%%%%%%%%%%%%%%%%%%%%%%%%%%%%%%%%%%%%%%%%%%
 dielectric build on homogeneous background
 environment bulk permitt.  =    100.0000000 
 dielectric flags
 need gradient              =  F 
 need factor depend. sqrt   =  T 
 need gradient of logarithm =  T 

%%%% COMPUTE ELECTROSTATIC POTENTIAL %%%%%%%%%%%%%%%%%%%%%%%%%%%%%%%%%%%%%%%%%%%
 Warning: bad guess with residual norm =   0.265221E+02, reset to no guess
 Iteration #          1
  pAp =    28.838288504861296       rzold =    28.404144594018145       alpha =   0.98494557293960194     
 delta_qm =   0.106347E-01 delta_en =   0.195432E+03 tol =   0.100000E-03
 Iteration #          2
  pAp =    19.472307659691925       rzold =    2.5565897335028955       alpha =   0.13129361851626289     
 delta_qm =   0.257414E-02 delta_en =   0.114501E+02 tol =   0.100000E-03
 Iteration #          3
  pAp =    1.5327963462984813       rzold =   0.17744973016501256       alpha =   0.11576862809826778     
 delta_qm =   0.921762E-03 delta_en =   0.146819E+01 tol =   0.100000E-03
 Iteration #          4
  pAp =    5.3713732829961197E-002  rzold =    1.1040292048444146E-002  alpha =   0.20553946759563019     
 delta_qm =   0.538552E-03 delta_en =   0.501186E+00 tol =   0.100000E-03
 Iteration #          5
  pAp =    1.1898759291704751E-003  rzold =    7.0005640170456036E-004  alpha =   0.58834403196357321     
 delta_qm =   0.190545E-03 delta_en =   0.627392E-01 tol =   0.100000E-03
 Iteration #          6
  pAp =    4.2472890369947341E-004  rzold =    1.4030202710172765E-004  alpha =   0.33033312750714405     
 delta_qm =   0.132111E-03 delta_en =   0.301592E-01 tol =   0.100000E-03
 Iteration #          7
  pAp =    2.1565637150811306E-005  rzold =    1.3879482154905293E-005  alpha =   0.64359249197435109     
 delta_qm =   0.898076E-04 delta_en =   0.139370E-01 tol =   0.100000E-03
 Iteration #          8
  pAp =    1.9792718618408306E-005  rzold =    1.2428463803323738E-005  alpha =   0.62793111158386250     
 delta_qm =   0.350835E-04 delta_en =   0.212692E-02 tol =   0.100000E-03
 Iteration #          9
  pAp =    1.1670707079995398E-005  rzold =    4.0381295894861131E-006  alpha =   0.34600556434218255     
 delta_qm =   0.226044E-04 delta_en =   0.882935E-03 tol =   0.100000E-03
 Iteration #         10
  pAp =    9.1285771124824142E-006  rzold =    2.0632921217506985E-006  alpha =   0.22602560030186450     
 delta_qm =   0.148772E-04 delta_en =   0.382459E-03 tol =   0.100000E-03
 Iteration #         11
  pAp =    3.0443194261255727E-007  rzold =    2.1553592771355994E-007  alpha =   0.70799379941502061     
 delta_qm =   0.463536E-05 delta_en =   0.371289E-04 tol =   0.100000E-03
 Charges are converged, EXIT

%%%% ELECTRONS %%%%%%%%%%%%%%%%%%%%%%%%%%%%%%%%%%%%%%%%%%%%%%%%%%%%%%%%%%%%%%%%%
 number of electrons        =          8
 total electronic charge    =      8.0000000
 number of spin components  =  1

%%%% BOUNDARY %%%%%%%%%%%%%%%%%%%%%%%%%%%%%%%%%%%%%%%%%%%%%%%%%%%%%%%%%%%%%%%%%%
 boundary mode              = electronic           
 boundary is built as a function of a smooth density
 function type              =  2 
 using the modified SCCS function with parameters 
 rhomax                     =      0.0050000 
 rhomin                     =      0.0001000 
 volume of the QM region    =    295.4304536 
 surface of the QM region   =    214.3066337 

%%%% DIELECTRIC %%%%%%%%%%%%%%%%%%%%%%%%%%%%%%%%%%%%%%%%%%%%%%%%%%%%%%%%%%%%%%%%%
 dielectric build on homogeneous background
 environment bulk permitt.  =    100.0000000 
 dielectric flags
 need gradient              =  F 
 need factor depend. sqrt   =  T 
 need gradient of logarithm =  T 
