
     Program PWSCF v.6.3MaX starts on 21Apr2019 at 23:16:29 

     This program is part of the open-source Quantum ESPRESSO suite
     for quantum simulation of materials; please cite
         "P. Giannozzi et al., J. Phys.:Condens. Matter 21 395502 (2009);
         "P. Giannozzi et al., J. Phys.:Condens. Matter 29 465901 (2017);
          URL http://www.quantum-espresso.org", 
     in publications or presentations arising from this work. More details at
     http://www.quantum-espresso.org/quote

     Parallel version (MPI), running on     1 processors

     MPI processes distributed on     1 nodes
     Reading input from charged.in

     Current dimensions of program PWSCF are:
     Max number of different atomic species (ntypx) = 10
     Max number of k-points (npk) =  40000
     Max angular momentum in pseudopotentials (lmaxx) =  3
               file C.pbe-rrkjus.UPF: wavefunction(s)  2S 2P renormalized
               file H.pbe-rrkjus.UPF: wavefunction(s)  1S renormalized
               file N.pbe-rrkjus.UPF: wavefunction(s)  2S renormalized
               file O.pbe-rrkjus.UPF: wavefunction(s)  2S renormalized

     gamma-point specific algorithms are used

     Subspace diagonalization in iterative solution of the eigenvalue problem:
     a serial algorithm will be used

 
     G-vector sticks info
     --------------------
     sticks:   dense  smooth     PW     G-vecs:    dense   smooth      PW
     Sum        9549    3809    949               701475   177509   22119
 


     bravais-lattice index     =            1
     lattice parameter (alat)  =      20.0000  a.u.
     unit-cell volume          =    8000.0000 (a.u.)^3
     number of atoms/cell      =           10
     number of atomic types    =            4
     number of electrons       =        24.00
     number of Kohn-Sham states=           12
     kinetic-energy cutoff     =      30.0000  Ry
     charge density cutoff     =     300.0000  Ry
     convergence threshold     =      5.0E-03
     mixing beta               =       0.7000
     number of iterations used =            8  plain     mixing
     Exchange-correlation      = SLA PW PBE PBE ( 1  4  3  4 0 0)
 

     Environ Module
     ==============

     Plese cite
         O. Andreussi, I. Dabo and N. Marzari, J. Chem. Phys. 136, 064102 (2012)         
     in publications or presentations arising from this work.

     compensation onset threshold      =               0.1000E+03 
     static permittivity               =                   100.00 
     epsilon calculation mode          =                    ionic 

     Electrostatic Setup
     -------------------
     electrostatic problem to solve    = generalized              
     numerical solver adopted          = cg                       
     type of auxiliary density adopted = none                     
     type of core tool for poisson     = fft                      
     type of core tool for s(r) deriv  = analytic                 



     celldm(1)=  20.000000  celldm(2)=   0.000000  celldm(3)=   0.000000
     celldm(4)=   0.000000  celldm(5)=   0.000000  celldm(6)=   0.000000

     crystal axes: (cart. coord. in units of alat)
               a(1) = (   1.000000   0.000000   0.000000 )  
               a(2) = (   0.000000   1.000000   0.000000 )  
               a(3) = (   0.000000   0.000000   1.000000 )  

     reciprocal axes: (cart. coord. in units 2 pi/alat)
               b(1) = (  1.000000  0.000000  0.000000 )  
               b(2) = (  0.000000  1.000000  0.000000 )  
               b(3) = (  0.000000  0.000000  1.000000 )  


     PseudoPot. # 1 for C  read from file:
     /home/fnattino/Programs/quantumespresso/q-e-qe-6.3-develop/Environ/tests/../..//pseudo/C.pbe-rrkjus.UPF
     MD5 check sum: c9ac5a99bc85b198593446162950cd17
     Pseudo is Ultrasoft, Zval =  4.0
     Generated by new atomic code, or converted to UPF format
     Using radial grid of  627 points,  4 beta functions with: 
                l(1) =   0
                l(2) =   0
                l(3) =   1
                l(4) =   1
     Q(r) pseudized with 0 coefficients 


     PseudoPot. # 2 for H  read from file:
     /home/fnattino/Programs/quantumespresso/q-e-qe-6.3-develop/Environ/tests/../..//pseudo/H.pbe-rrkjus.UPF
     MD5 check sum: 2d52a7f45632fd764c17cc6affed14c8
     Pseudo is Ultrasoft, Zval =  1.0
     Generated by new atomic code, or converted to UPF format
     Using radial grid of 1061 points,  2 beta functions with: 
                l(1) =   0
                l(2) =   0
     Q(r) pseudized with 0 coefficients 


     PseudoPot. # 3 for N  read from file:
     /home/fnattino/Programs/quantumespresso/q-e-qe-6.3-develop/Environ/tests/../..//pseudo/N.pbe-rrkjus.UPF
     MD5 check sum: 28c76d763763edb36c62a6ca2be9aebd
     Pseudo is Ultrasoft, Zval =  5.0
     Generated by new atomic code, or converted to UPF format
     Using radial grid of 1257 points,  4 beta functions with: 
                l(1) =   0
                l(2) =   0
                l(3) =   1
                l(4) =   1
     Q(r) pseudized with 0 coefficients 


     PseudoPot. # 4 for O  read from file:
     /home/fnattino/Programs/quantumespresso/q-e-qe-6.3-develop/Environ/tests/../..//pseudo/O.pbe-rrkjus.UPF
     MD5 check sum: fadcf19ee70a498d3030e2e79cf929a4
     Pseudo is Ultrasoft, Zval =  6.0
     Generated by new atomic code, or converted to UPF format
     Using radial grid of 1269 points,  4 beta functions with: 
                l(1) =   0
                l(2) =   0
                l(3) =   1
                l(4) =   1
     Q(r) pseudized with 0 coefficients 


     atomic species   valence    mass     pseudopotential
        C              4.00    12.00000     C ( 1.00)
        H              1.00     1.00000     H ( 1.00)
        N              5.00    14.00000     N ( 1.00)
        O              6.00    16.00000     O ( 1.00)

     No symmetry found



   Cartesian axes

     site n.     atom                  positions (alat units)
         1           C   tau(   1) = (   0.0000000   0.0000000   0.0000000  )
         2           C   tau(   2) = (   0.0000000   0.0000000   0.1455089  )
         3           N   tau(   3) = (   0.1170969   0.0000000  -0.0545024  )
         4           H   tau(   4) = (   0.0476617  -0.0825466   0.1792090  )
         5           H   tau(   5) = (  -0.0953183  -0.0000030   0.1792090  )
         6           H   tau(   6) = (   0.0476566   0.0825496   0.1792090  )
         7           O   tau(   7) = (  -0.0984002  -0.0000019  -0.0641310  )
         8           H   tau(   8) = (   0.1263131  -0.0000015  -0.1475548  )
         9           H   tau(   9) = (   0.1944645   0.0000134  -0.0025716  )
        10           H   tau(  10) = (  -0.0770366  -0.0000045  -0.1522861  )

     number of k points=     1
                       cart. coord. in units 2pi/alat
        k(    1) = (   0.0000000   0.0000000   0.0000000), wk =   2.0000000

     Dense  grid:   350738 G-vectors     FFT dimensions: ( 120, 120, 120)

     Smooth grid:    88755 G-vectors     FFT dimensions: (  72,  72,  72)

     Estimated max dynamical RAM per process >     691.80 MB

     Initial potential from superposition of free atoms
     Check: negative starting charge=   -0.000452

     starting charge   24.42266, renormalised to   24.00000

     negative rho (up, down):  4.438E-04 0.000E+00
     Starting wfcs are   22 randomized atomic wfcs

     total cpu time spent up to now is       15.2 secs

     Self-consistent Calculation

     iteration #  1     ecut=    30.00 Ry     beta= 0.70
     Davidson diagonalization with overlap
     ethr =  1.00E-02,  avg # of iterations =  2.0

     negative rho (up, down):  1.277E-04 0.000E+00

     add environment contribution to local potential
     polarization accuracy = 3.5E-06, # of iterations =  18

     total cpu time spent up to now is       19.1 secs

     total energy              =     -80.23905785 Ry
     Harris-Foulkes estimate   =     -83.01882218 Ry
     estimated scf accuracy    <       3.73443027 Ry
     electrostatic embedding   =       0.00000000 Ry
     correction to one-el term =       0.00000000 Ry

     iteration #  2     ecut=    30.00 Ry     beta= 0.70
     Davidson diagonalization with overlap
     ethr =  1.00E-02,  avg # of iterations =  4.0

     negative rho (up, down):  7.190E-04 0.000E+00

     add environment contribution to local potential
     polarization accuracy = 7.3E-06, # of iterations =  17

     total cpu time spent up to now is       23.0 secs

     total energy              =     -80.98831364 Ry
     Harris-Foulkes estimate   =     -75.67875842 Ry
     estimated scf accuracy    <       1.58000655 Ry
     electrostatic embedding   =      -0.23053363 Ry
     correction to one-el term =      -5.91828810 Ry

     iteration #  3     ecut=    30.00 Ry     beta= 0.70
     Davidson diagonalization with overlap
     ethr =  6.58E-03,  avg # of iterations =  3.0

     negative rho (up, down):  2.647E-04 0.000E+00

     add environment contribution to local potential
     polarization accuracy = 3.5E-06, # of iterations =  18

     total cpu time spent up to now is       26.9 secs

     total energy              =     -81.34836710 Ry
     Harris-Foulkes estimate   =     -75.92850267 Ry
     estimated scf accuracy    <       0.18943055 Ry
     electrostatic embedding   =      -0.19282009 Ry
     correction to one-el term =      -5.33081354 Ry

     iteration #  4     ecut=    30.00 Ry     beta= 0.70
     Davidson diagonalization with overlap
     ethr =  7.89E-04,  avg # of iterations =  4.0

     negative rho (up, down):  1.171E-04 0.000E+00

     add environment contribution to local potential
     polarization accuracy = 5.7E-06, # of iterations =  17

     total cpu time spent up to now is       30.6 secs

     total energy              =     -81.40093256 Ry
     Harris-Foulkes estimate   =     -76.35874004 Ry
     estimated scf accuracy    <       0.02186613 Ry
     electrostatic embedding   =      -0.15374241 Ry
     correction to one-el term =      -4.89970763 Ry

     iteration #  5     ecut=    30.00 Ry     beta= 0.70
     Davidson diagonalization with overlap
     ethr =  9.11E-05,  avg # of iterations =  4.0

     negative rho (up, down):  2.672E-04 0.000E+00

     the potential shift due to the Gaussian-smeared nuclei is    -0.0668 ev

     total cpu time spent up to now is       32.3 secs

     End of self-consistent calculation

          k = 0.0000 0.0000 0.0000 ( 11060 PWs)   bands (ev):

   -28.8750 -23.0511 -18.5007 -15.9405 -14.6083 -13.3270 -11.5581 -10.8624
    -9.3972  -9.3897  -9.2494  -7.3013

     highest occupied level (ev):    -7.3013

!    total energy              =     -81.40678096 Ry
     Harris-Foulkes estimate   =     -76.78350841 Ry
     estimated scf accuracy    <       0.00174027 Ry

     The total energy is the sum of the following terms:

     one-electron contribution =    -240.91175114 Ry
     hartree contribution      =     122.71286792 Ry
     xc contribution           =     -22.89115932 Ry
     ewald contribution        =      64.30784006 Ry
     electrostatic embedding   =      -0.13814031 Ry
     correction to one-el term =      -4.48643817 Ry

     convergence has been achieved in   5 iterations

     Forces acting on atoms (cartesian axes, Ry/au):

     atom    1 type  1   force =     0.22556246   -0.00001113    0.10483489
     atom    2 type  1   force =    -0.03368604   -0.00002868   -0.08418957
     atom    3 type  3   force =    -0.14405345   -0.00003401    0.04737316
     atom    4 type  2   force =     0.01986160   -0.03113041    0.00847411
     atom    5 type  2   force =    -0.03527658    0.00001242    0.01204691
     atom    6 type  2   force =     0.01986636    0.03117240    0.00848061
     atom    7 type  4   force =    -0.09471908   -0.00005832   -0.00696375
     atom    8 type  2   force =     0.00655214    0.00002594   -0.05488975
     atom    9 type  2   force =     0.04255812    0.00002705    0.04053045
     atom   10 type  2   force =    -0.00666552    0.00002474   -0.07569705

     Total force =     0.344463     Total SCF correction =     0.099051
     SCF correction compared to forces is large: reduce conv_thr to get better values

     Writing output data file pwscf.save/
 
     init_run     :     13.62s CPU     14.37s WALL (       1 calls)
     electrons    :     13.70s CPU     17.16s WALL (       1 calls)
     forces       :     17.30s CPU     17.72s WALL (       1 calls)

     Called by init_run:
     wfcinit      :      0.14s CPU      0.14s WALL (       1 calls)
     potinit      :      0.85s CPU      0.94s WALL (       1 calls)
     hinit0       :     12.28s CPU     12.68s WALL (       1 calls)

     Called by electrons:
     c_bands      :      1.18s CPU      1.18s WALL (       5 calls)
     sum_band     :      2.02s CPU      2.84s WALL (       5 calls)
     v_of_rho     :      2.86s CPU      3.12s WALL (       6 calls)
     newd         :      1.46s CPU      2.61s WALL (       6 calls)
     mix_rho      :      0.23s CPU      0.23s WALL (       5 calls)

     Called by c_bands:
     init_us_2    :      0.05s CPU      0.05s WALL (      11 calls)
     regterg      :      1.12s CPU      1.11s WALL (       5 calls)

     Called by sum_band:
     sum_band:bec :      0.00s CPU      0.00s WALL (       5 calls)
     addusdens    :      1.65s CPU      2.47s WALL (       5 calls)

     Called by *egterg:
     h_psi        :      1.14s CPU      1.13s WALL (      23 calls)
     s_psi        :      0.01s CPU      0.02s WALL (      23 calls)
     g_psi        :      0.02s CPU      0.01s WALL (      17 calls)
     rdiaghg      :      0.01s CPU      0.01s WALL (      22 calls)

     Called by h_psi:
     h_psi:pot    :      1.14s CPU      1.13s WALL (      23 calls)
     h_psi:calbec :      0.02s CPU      0.02s WALL (      23 calls)
     vloc_psi     :      1.08s CPU      1.08s WALL (      23 calls)
     add_vuspsi   :      0.04s CPU      0.02s WALL (      23 calls)

     General routines
     calbec       :      0.02s CPU      0.03s WALL (      32 calls)
     fft          :      4.33s CPU      4.33s WALL (     242 calls)
     ffts         :      0.03s CPU      0.03s WALL (      11 calls)
     fftw         :      0.96s CPU      0.97s WALL (     244 calls)
     interpolate  :      0.16s CPU      0.17s WALL (       6 calls)
 
     Parallel routines
 
     Environ routines
     calc_eelect  :      0.02s CPU      0.01s WALL (      10 calls)
     calc_velect  :      5.91s CPU      7.25s WALL (       8 calls)
     dielectric   :      0.11s CPU      0.13s WALL (       2 calls)
     calc_felect  :      0.09s CPU      0.09s WALL (       1 calls)
 
     PWSCF        :    45.40s CPU        50.07s WALL

 
   This run was terminated on:  23:17:19  21Apr2019            

=------------------------------------------------------------------------------=
   JOB DONE.
=------------------------------------------------------------------------------=

%%%% IONS %%%%%%%%%%%%%%%%%%%%%%%%%%%%%%%%%%%%%%%%%%%%%%%%%%%%%%%%%%%%%%%%%%%%%%
 number of ions             =         10
 ionic center of charge     =      0.0095530    -0.0000002     0.0063981
 total ionic charge         =    -25.0000000
 ionic dipole               =      0.0000000     0.0000000     0.0000000
 ionic quadrupole (pc)      =    -79.0828058    -5.4513517  -105.8059629
 ionic quadrupole (gauss)   =    -82.2078058    -8.5763517  -108.9309629
 ion   1 type =  1 coordinates =      0.0000000     0.0000000     0.0000000
 ion   2 type =  1 coordinates =      0.0000000     0.0000000     2.9101782
 ion   3 type =  3 coordinates =      2.3419379     0.0000000    -1.0900479
 ion   4 type =  2 coordinates =      0.9532347    -1.6509323     3.5841800
 ion   5 type =  2 coordinates =     -1.9063663    -0.0000596     3.5841809
 ion   6 type =  2 coordinates =      0.9531315     1.6509919     3.5841800
 ion   7 type =  4 coordinates =     -1.9680045    -0.0000375    -1.2826193
 ion   8 type =  2 coordinates =      2.5262613    -0.0000303    -2.9510950
 ion   9 type =  2 coordinates =      3.8892907     0.0002681    -0.0514326
 ion  10 type =  2 coordinates =     -1.5407317    -0.0000890    -3.0457220

%%%% SYSTEM %%%%%%%%%%%%%%%%%%%%%%%%%%%%%%%%%%%%%%%%%%%%%%%%%%%%%%%%%%%%%%%%%%%%
 system is built from all present ionic types
 system defined dimension   =  0 
 system defined axis        =  3 
 system center              =      0.0095530    -0.0000002     0.0063981 
 system width               =      0.2021425 

%%%% BOUNDARY %%%%%%%%%%%%%%%%%%%%%%%%%%%%%%%%%%%%%%%%%%%%%%%%%%%%%%%%%%%%%%%%%%
 boundary label             = solvent              
 boundary mode              = ionic                
 boundary is built from soft-spheres centered on ionic positions
 solvent-dependent scaling  =      1.0000000 
 softness parameter         =      0.5000000 
 volume of the QM region    =    609.3920716 
 surface of the QM region   =    383.1651442 

%%%% DIELECTRIC %%%%%%%%%%%%%%%%%%%%%%%%%%%%%%%%%%%%%%%%%%%%%%%%%%%%%%%%%%%%%%%%%
 dielectric build on homogeneous background
 environment bulk permitt.  =    100.0000000 
 dielectric flags
 need gradient              =  F 
 need factor depend. sqrt   =  T 
 total dielectric charge    =      0.0000000

%%%% ELECTRONS %%%%%%%%%%%%%%%%%%%%%%%%%%%%%%%%%%%%%%%%%%%%%%%%%%%%%%%%%%%%%%%%%
 number of electrons        =         24
 total electronic charge    =     24.0000000
 number of spin components  =  1

%%%% DENSITY %%%%%%%%%%%%%%%%%%%%%%%%%%%%%%%%%%%%%%%%%%%%%%%%%%%%%%%%%%%%%%%%%%%
 density label              = vreference                                                                      
 integral of density        =      0.000000000    

%%%% DENSITY %%%%%%%%%%%%%%%%%%%%%%%%%%%%%%%%%%%%%%%%%%%%%%%%%%%%%%%%%%%%%%%%%%%
 density label              = velectrostatic                                                                  
 integral of density        =      0.000000000    

%%%% CHARGES %%%%%%%%%%%%%%%%%%%%%%%%%%%%%%%%%%%%%%%%%%%%%%%%%%%%%%%%%%%%%%%%%%%
 total number of charges    =         34
 total charge               =     -1.0000000

%%%% ELECTRONS %%%%%%%%%%%%%%%%%%%%%%%%%%%%%%%%%%%%%%%%%%%%%%%%%%%%%%%%%%%%%%%%%
 number of electrons        =         24
 total electronic charge    =     24.0000000
 number of spin components  =  1

%%%% DENSITY %%%%%%%%%%%%%%%%%%%%%%%%%%%%%%%%%%%%%%%%%%%%%%%%%%%%%%%%%%%%%%%%%%%
 density label              = vreference                                                                      
 integral of density        =    -0.1947413424E-12

%%%% COMPUTE ELECTROSTATIC POTENTIAL %%%%%%%%%%%%%%%%%%%%%%%%%%%%%%%%%%%%%%%%%%%
 Iteration #          1
  pAp =    95.4218001780820       rzold =    89.2010359080949       alpha = 
  0.934807724666926     
 delta_qm =   0.319336E-01 delta_en =   0.176214E+04 tol =   0.100000E-04
 Iteration #          2
  pAp =    606.163822928004       rzold =    55.8115070754127       alpha = 
  9.207330586939630E-002
 delta_qm =   0.435098E-02 delta_en =   0.327128E+02 tol =   0.100000E-04
 Iteration #          3
  pAp =    2.10451104780141       rzold =   0.393840955107177       alpha = 
  0.187141310338391     
 delta_qm =   0.195693E-02 delta_en =   0.661751E+01 tol =   0.100000E-04
 Iteration #          4
  pAp =   0.310128354604482       rzold =   4.673165981774774E-002  alpha = 
  0.150684899087497     
 delta_qm =   0.142397E-02 delta_en =   0.350386E+01 tol =   0.100000E-04
 Iteration #          5
  pAp =   3.266101311711651E-002  rzold =   8.215190375723210E-003  alpha = 
  0.251528951238133     
 delta_qm =   0.946607E-03 delta_en =   0.154840E+01 tol =   0.100000E-04
 Iteration #          6
  pAp =   8.332484744359230E-003  rzold =   2.907062244089157E-003  alpha = 
  0.348882996282367     
 delta_qm =   0.492899E-03 delta_en =   0.419817E+00 tol =   0.100000E-04
 Iteration #          7
  pAp =   5.112659698933139E-003  rzold =   1.147934353220418E-003  alpha = 
  0.224527823250188     
 delta_qm =   0.327525E-03 delta_en =   0.185367E+00 tol =   0.100000E-04
 Iteration #          8
  pAp =   1.869741415665182E-003  rzold =   4.737701423284080E-004  alpha = 
  0.253388055887856     
 delta_qm =   0.238001E-03 delta_en =   0.978817E-01 tol =   0.100000E-04
 Iteration #          9
  pAp =   2.757029416138356E-004  rzold =   1.621892545439274E-004  alpha = 
  0.588275386524887     
 delta_qm =   0.145822E-03 delta_en =   0.367444E-01 tol =   0.100000E-04
 Iteration #         10
  pAp =   3.387250425579278E-004  rzold =   1.331105458140684E-004  alpha = 
  0.392975213196125     
 delta_qm =   0.709418E-04 delta_en =   0.869656E-02 tol =   0.100000E-04
 Iteration #         11
  pAp =   9.087037689576848E-005  rzold =   3.259189452031963E-005  alpha = 
  0.358663578095463     
 delta_qm =   0.450482E-04 delta_en =   0.350670E-02 tol =   0.100000E-04
 Iteration #         12
  pAp =   1.690208010532857E-005  rzold =   5.748606594480213E-006  alpha = 
  0.340112374255515     
 delta_qm =   0.290665E-04 delta_en =   0.145993E-02 tol =   0.100000E-04
 Iteration #         13
  pAp =   4.503201015693032E-006  rzold =   1.822356164769923E-006  alpha = 
  0.404680172708095     
 delta_qm =   0.187945E-04 delta_en =   0.610386E-03 tol =   0.100000E-04
 Iteration #         14
  pAp =   3.060369651686067E-006  rzold =   1.056988894583691E-006  alpha = 
  0.345379485122445     
 delta_qm =   0.119453E-04 delta_en =   0.246570E-03 tol =   0.100000E-04
 Iteration #         15
  pAp =   1.231210518178875E-006  rzold =   4.225722268449040E-007  alpha = 
  0.343216875266746     
 delta_qm =   0.761691E-05 delta_en =   0.100254E-03 tol =   0.100000E-04
 Iteration #         16
  pAp =   5.964581865486643E-007  rzold =   1.744688120707865E-007  alpha = 
  0.292508034939264     
 delta_qm =   0.523295E-05 delta_en =   0.473191E-04 tol =   0.100000E-04
 Iteration #         17
  pAp =   2.234451276101891E-007  rzold =   8.007126391173769E-008  alpha = 
  0.358348668275398     
 delta_qm =   0.277311E-05 delta_en =   0.132886E-04 tol =   0.100000E-04
 Iteration #         18
  pAp =   5.840174952973963E-008  rzold =   2.497106057452891E-008  alpha = 
  0.427573844544041     
 delta_qm =   0.142054E-05 delta_en =   0.348697E-05 tol =   0.100000E-04
 Charges are converged, EXIT

%%%% DENSITY %%%%%%%%%%%%%%%%%%%%%%%%%%%%%%%%%%%%%%%%%%%%%%%%%%%%%%%%%%%%%%%%%%%
 density label              = velectrostatic                                                                  
 integral of density        =     0.1617142634E-12

%%%% CHARGES %%%%%%%%%%%%%%%%%%%%%%%%%%%%%%%%%%%%%%%%%%%%%%%%%%%%%%%%%%%%%%%%%%%
 total number of charges    =         34
 total charge               =     -1.0000000

%%%% ELECTRONS %%%%%%%%%%%%%%%%%%%%%%%%%%%%%%%%%%%%%%%%%%%%%%%%%%%%%%%%%%%%%%%%%
 number of electrons        =         24
 total electronic charge    =     24.0000000
 number of spin components  =  1

%%%% DENSITY %%%%%%%%%%%%%%%%%%%%%%%%%%%%%%%%%%%%%%%%%%%%%%%%%%%%%%%%%%%%%%%%%%%
 density label              = vreference                                                                      
 integral of density        =    -0.4198123330E-12

%%%% COMPUTE ELECTROSTATIC POTENTIAL %%%%%%%%%%%%%%%%%%%%%%%%%%%%%%%%%%%%%%%%%%%
 Warning: bad guess with residual norm =   0.178951E+04, reset to no guess
 Iteration #          1
  pAp =    98.8691510042569       rzold =    93.2687776172576       alpha = 
  0.943355704685294     
 delta_qm =   0.306214E-01 delta_en =   0.162029E+04 tol =   0.100000E-04
 Iteration #          2
  pAp =    561.359407894862       rzold =    51.3736563459897       alpha = 
  9.151651441746490E-002
 delta_qm =   0.382283E-02 delta_en =   0.252530E+02 tol =   0.100000E-04
 Iteration #          3
  pAp =    1.96426533944029       rzold =   0.311174800923868       alpha = 
  0.158417905501777     
 delta_qm =   0.190904E-02 delta_en =   0.629760E+01 tol =   0.100000E-04
 Iteration #          4
  pAp =   0.262284160138683       rzold =   3.969731966469016E-002  alpha = 
  0.151352333452772     
 delta_qm =   0.145126E-02 delta_en =   0.363944E+01 tol =   0.100000E-04
 Iteration #          5
  pAp =   1.879184555669211E-002  rzold =   6.053194452500338E-003  alpha = 
  0.322118146098997     
 delta_qm =   0.895454E-03 delta_en =   0.138558E+01 tol =   0.100000E-04
 Iteration #          6
  pAp =   9.204212341513222E-003  rzold =   2.878143392403814E-003  alpha = 
  0.312698499949061     
 delta_qm =   0.471660E-03 delta_en =   0.384416E+00 tol =   0.100000E-04
 Iteration #          7
  pAp =   5.427208061789081E-003  rzold =   1.116178185242134E-003  alpha = 
  0.205663422617003     
 delta_qm =   0.341375E-03 delta_en =   0.201376E+00 tol =   0.100000E-04
 Iteration #          8
  pAp =   1.214261339161950E-003  rzold =   4.167993781506564E-004  alpha = 
  0.343253437055255     
 delta_qm =   0.238342E-03 delta_en =   0.981621E-01 tol =   0.100000E-04
 Iteration #          9
  pAp =   3.589739657707392E-004  rzold =   2.030830533675634E-004  alpha = 
  0.565731982628689     
 delta_qm =   0.136496E-03 delta_en =   0.321944E-01 tol =   0.100000E-04
 Iteration #         10
  pAp =   3.709227208892414E-004  rzold =   1.330109004359578E-004  alpha = 
  0.358594642347820     
 delta_qm =   0.645598E-04 delta_en =   0.720226E-02 tol =   0.100000E-04
 Iteration #         11
  pAp =   6.353247107462579E-005  rzold =   2.294575773099408E-005  alpha = 
  0.361165831312335     
 delta_qm =   0.442960E-04 delta_en =   0.339058E-02 tol =   0.100000E-04
 Iteration #         12
  pAp =   1.261843910541311E-005  rzold =   4.730250282762637E-006  alpha = 
  0.374868099235304     
 delta_qm =   0.279558E-04 delta_en =   0.135048E-02 tol =   0.100000E-04
 Iteration #         13
  pAp =   2.717040009180450E-006  rzold =   1.479706563429022E-006  alpha = 
  0.544602419702811     
 delta_qm =   0.153654E-04 delta_en =   0.407975E-03 tol =   0.100000E-04
 Iteration #         14
  pAp =   2.176199296435041E-006  rzold =   7.230738358412232E-007  alpha = 
  0.332264529735734     
 delta_qm =   0.105197E-04 delta_en =   0.191229E-03 tol =   0.100000E-04
 Iteration #         15
  pAp =   1.619734234429036E-006  rzold =   4.349426319873488E-007  alpha = 
  0.268527158803103     
 delta_qm =   0.694153E-05 delta_en =   0.832635E-04 tol =   0.100000E-04
 Iteration #         16
  pAp =   2.300113662492062E-007  rzold =   1.053573433263634E-007  alpha = 
  0.458052769497547     
 delta_qm =   0.362540E-05 delta_en =   0.227119E-04 tol =   0.100000E-04
 Iteration #         17
  pAp =   1.073041747997152E-007  rzold =   4.072430108124145E-008  alpha = 
  0.379522056408839     
 delta_qm =   0.205428E-05 delta_en =   0.729230E-05 tol =   0.100000E-04
 Charges are converged, EXIT

%%%% DENSITY %%%%%%%%%%%%%%%%%%%%%%%%%%%%%%%%%%%%%%%%%%%%%%%%%%%%%%%%%%%%%%%%%%%
 density label              = velectrostatic                                                                  
 integral of density        =    -0.8085713169E-13

%%%% CHARGES %%%%%%%%%%%%%%%%%%%%%%%%%%%%%%%%%%%%%%%%%%%%%%%%%%%%%%%%%%%%%%%%%%%
 total number of charges    =         34
 total charge               =     -1.0000000

%%%% ELECTRONS %%%%%%%%%%%%%%%%%%%%%%%%%%%%%%%%%%%%%%%%%%%%%%%%%%%%%%%%%%%%%%%%%
 number of electrons        =         24
 total electronic charge    =     24.0000000
 number of spin components  =  1

%%%% DENSITY %%%%%%%%%%%%%%%%%%%%%%%%%%%%%%%%%%%%%%%%%%%%%%%%%%%%%%%%%%%%%%%%%%%
 density label              = vreference                                                                      
 integral of density        =    -0.1736882243E-13

%%%% COMPUTE ELECTROSTATIC POTENTIAL %%%%%%%%%%%%%%%%%%%%%%%%%%%%%%%%%%%%%%%%%%%
 Warning: bad guess with residual norm =   0.141514E+04, reset to no guess
 Iteration #          1
  pAp =    98.2612995735903       rzold =    93.7827797380732       alpha = 
  0.954422342723413     
 delta_qm =   0.275058E-01 delta_en =   0.130735E+04 tol =   0.100000E-04
 Iteration #          2
  pAp =    465.580525829303       rzold =    42.0747638556470       alpha = 
  9.037054069369088E-002
 delta_qm =   0.358355E-02 delta_en =   0.221906E+02 tol =   0.100000E-04
 Iteration #          3
  pAp =    1.47715185774715       rzold =   0.250941598715872       alpha = 
  0.169882058773964     
 delta_qm =   0.180129E-02 delta_en =   0.560673E+01 tol =   0.100000E-04
 Iteration #          4
  pAp =   0.247742438124010       rzold =   3.678123516600072E-002  alpha = 
  0.148465621976278     
 delta_qm =   0.135733E-02 delta_en =   0.318358E+01 tol =   0.100000E-04
 Iteration #          5
  pAp =   1.798932695838287E-002  rzold =   5.525288663689013E-003  alpha = 
  0.307142600524823     
 delta_qm =   0.863695E-03 delta_en =   0.128903E+01 tol =   0.100000E-04
 Iteration #          6
  pAp =   6.346444836479043E-003  rzold =   2.330308644289965E-003  alpha = 
  0.367183313545163     
 delta_qm =   0.434726E-03 delta_en =   0.326569E+00 tol =   0.100000E-04
 Iteration #          7
  pAp =   1.728431964170992E-003  rzold =   6.378481106786391E-004  alpha = 
  0.369032813498430     
 delta_qm =   0.279617E-03 delta_en =   0.135105E+00 tol =   0.100000E-04
 Iteration #          8
  pAp =   7.241566028426447E-004  rzold =   2.618777332890997E-004  alpha = 
  0.361631354683656     
 delta_qm =   0.202432E-03 delta_en =   0.708114E-01 tol =   0.100000E-04
 Iteration #          9
  pAp =   9.301939271373928E-004  rzold =   2.732804876003524E-004  alpha = 
  0.293788724724697     
 delta_qm =   0.129145E-03 delta_en =   0.288202E-01 tol =   0.100000E-04
 Iteration #         10
  pAp =   4.008795092265964E-004  rzold =   1.306564203142488E-004  alpha = 
  0.325924416955908     
 delta_qm =   0.630333E-04 delta_en =   0.686568E-02 tol =   0.100000E-04
 Iteration #         11
  pAp =   7.393598264155996E-005  rzold =   2.449911184622013E-005  alpha = 
  0.331355734662935     
 delta_qm =   0.447442E-04 delta_en =   0.345953E-02 tol =   0.100000E-04
 Iteration #         12
  pAp =   1.580223542647370E-005  rzold =   5.309379161386490E-006  alpha = 
  0.335989119140170     
 delta_qm =   0.292638E-04 delta_en =   0.147981E-02 tol =   0.100000E-04
 Iteration #         13
  pAp =   4.125282315646920E-006  rzold =   1.741606915511818E-006  alpha = 
  0.422178843107542     
 delta_qm =   0.181291E-04 delta_en =   0.567935E-03 tol =   0.100000E-04
 Iteration #         14
  pAp =   2.782889516919016E-006  rzold =   1.036892526319089E-006  alpha = 
  0.372595649239805     
 delta_qm =   0.112023E-04 delta_en =   0.216851E-03 tol =   0.100000E-04
 Iteration #         15
  pAp =   8.703117568651954E-007  rzold =   3.554731762423746E-007  alpha = 
  0.408443495607557     
 delta_qm =   0.658108E-05 delta_en =   0.748407E-04 tol =   0.100000E-04
 Iteration #         16
  pAp =   2.886197156269260E-007  rzold =   1.091708353522373E-007  alpha = 
  0.378251482630359     
 delta_qm =   0.405466E-05 delta_en =   0.284088E-04 tol =   0.100000E-04
 Iteration #         17
  pAp =   2.256524094470829E-007  rzold =   5.913628218411367E-008  alpha = 
  0.262068029005387     
 delta_qm =   0.246903E-05 delta_en =   0.105340E-04 tol =   0.100000E-04
 Iteration #         18
  pAp =   6.289649453980808E-008  rzold =   2.236641029209479E-008  alpha = 
  0.355606627296833     
 delta_qm =   0.141665E-05 delta_en =   0.346793E-05 tol =   0.100000E-04
 Charges are converged, EXIT

%%%% DENSITY %%%%%%%%%%%%%%%%%%%%%%%%%%%%%%%%%%%%%%%%%%%%%%%%%%%%%%%%%%%%%%%%%%%
 density label              = velectrostatic                                                                  
 integral of density        =     0.8762044588E-12

%%%% CHARGES %%%%%%%%%%%%%%%%%%%%%%%%%%%%%%%%%%%%%%%%%%%%%%%%%%%%%%%%%%%%%%%%%%%
 total number of charges    =         34
 total charge               =     -1.0000000

%%%% ELECTRONS %%%%%%%%%%%%%%%%%%%%%%%%%%%%%%%%%%%%%%%%%%%%%%%%%%%%%%%%%%%%%%%%%
 number of electrons        =         24
 total electronic charge    =     24.0000000
 number of spin components  =  1

%%%% DENSITY %%%%%%%%%%%%%%%%%%%%%%%%%%%%%%%%%%%%%%%%%%%%%%%%%%%%%%%%%%%%%%%%%%%
 density label              = vreference                                                                      
 integral of density        =     0.8971917859E-12

%%%% COMPUTE ELECTROSTATIC POTENTIAL %%%%%%%%%%%%%%%%%%%%%%%%%%%%%%%%%%%%%%%%%%%
 Warning: bad guess with residual norm =   0.122574E+04, reset to no guess
 Iteration #          1
  pAp =    97.4582454921252       rzold =    93.5665304961678       alpha = 
  0.960067873412805     
 delta_qm =   0.257287E-01 delta_en =   0.114388E+04 tol =   0.100000E-04
 Iteration #          2
  pAp =    406.202770192900       rzold =    36.6587316590371       alpha = 
  9.024736990746852E-002
 delta_qm =   0.369378E-02 delta_en =   0.235768E+02 tol =   0.100000E-04
 Iteration #          3
  pAp =    1.65346735106116       rzold =   0.278150667553019       alpha = 
  0.168222654880066     
 delta_qm =   0.177211E-02 delta_en =   0.542655E+01 tol =   0.100000E-04
 Iteration #          4
  pAp =   0.274243455751930       rzold =   4.029860236407122E-002  alpha = 
  0.146944627187472     
 delta_qm =   0.131777E-02 delta_en =   0.300073E+01 tol =   0.100000E-04
 Iteration #          5
  pAp =   1.883341523961406E-002  rzold =   5.555830053994905E-003  alpha = 
  0.294998542925386     
 delta_qm =   0.860769E-03 delta_en =   0.128031E+01 tol =   0.100000E-04
 Iteration #          6
  pAp =   5.938239920048066E-003  rzold =   2.202583929586687E-003  alpha = 
  0.370915281167834     
 delta_qm =   0.448351E-03 delta_en =   0.347359E+00 tol =   0.100000E-04
 Iteration #          7
  pAp =   2.225593580851683E-003  rzold =   7.165603590819098E-004  alpha = 
  0.321963706782304     
 delta_qm =   0.297109E-03 delta_en =   0.152537E+00 tol =   0.100000E-04
 Iteration #          8
  pAp =   1.607090144576071E-003  rzold =   3.836678702208563E-004  alpha = 
  0.238734505040514     
 delta_qm =   0.224486E-03 delta_en =   0.870806E-01 tol =   0.100000E-04
 Iteration #          9
  pAp =   4.649349500126105E-004  rzold =   2.167041024580145E-004  alpha = 
  0.466095531110614     
 delta_qm =   0.131990E-03 delta_en =   0.301039E-01 tol =   0.100000E-04
 Iteration #         10
  pAp =   3.209676772015058E-004  rzold =   1.204200029999692E-004  alpha = 
  0.375177974461175     
 delta_qm =   0.620670E-04 delta_en =   0.665679E-02 tol =   0.100000E-04
 Iteration #         11
  pAp =   7.433433234950372E-005  rzold =   2.450299973098992E-005  alpha = 
  0.329632337528535     
 delta_qm =   0.442056E-04 delta_en =   0.337674E-02 tol =   0.100000E-04
 Iteration #         12
  pAp =   1.657581216052571E-005  rzold =   5.436338002529454E-006  alpha = 
  0.327968123062818     
 delta_qm =   0.289832E-04 delta_en =   0.145157E-02 tol =   0.100000E-04
 Iteration #         13
  pAp =   3.928221031222649E-006  rzold =   1.679728018722185E-006  alpha = 
  0.427605271030122     
 delta_qm =   0.179633E-04 delta_en =   0.557590E-03 tol =   0.100000E-04
 Iteration #         14
  pAp =   2.670819569543228E-006  rzold =   1.001107916224270E-006  alpha = 
  0.374831728672515     
 delta_qm =   0.111352E-04 delta_en =   0.214260E-03 tol =   0.100000E-04
 Iteration #         15
  pAp =   8.669727965205905E-007  rzold =   3.579490423795250E-007  alpha = 
  0.412872288284104     
 delta_qm =   0.639692E-05 delta_en =   0.707108E-04 tol =   0.100000E-04
 Iteration #         16
  pAp =   2.157575570351038E-007  rzold =   9.766303258937970E-008  alpha = 
  0.452651735269184     
 delta_qm =   0.357095E-05 delta_en =   0.220350E-04 tol =   0.100000E-04
 Iteration #         17
  pAp =   7.196090020014299E-008  rzold =   3.233886224249074E-008  alpha = 
  0.449394909632141     
 delta_qm =   0.181085E-05 delta_en =   0.566644E-05 tol =   0.100000E-04
 Charges are converged, EXIT

%%%% DENSITY %%%%%%%%%%%%%%%%%%%%%%%%%%%%%%%%%%%%%%%%%%%%%%%%%%%%%%%%%%%%%%%%%%%
 density label              = velectrostatic                                                                  
 integral of density        =    -0.6598178793E-12

%%%% CHARGES %%%%%%%%%%%%%%%%%%%%%%%%%%%%%%%%%%%%%%%%%%%%%%%%%%%%%%%%%%%%%%%%%%%
 total number of charges    =         34
 total charge               =     -1.0000000

%%%% ELECTRONS %%%%%%%%%%%%%%%%%%%%%%%%%%%%%%%%%%%%%%%%%%%%%%%%%%%%%%%%%%%%%%%%%
 number of electrons        =         24
 total electronic charge    =     24.0000000
 number of spin components  =  1

%%%% DENSITY %%%%%%%%%%%%%%%%%%%%%%%%%%%%%%%%%%%%%%%%%%%%%%%%%%%%%%%%%%%%%%%%%%%
 density label              = vreference                                                                      
 integral of density        =     0.8971917859E-12

%%%% DENSITY %%%%%%%%%%%%%%%%%%%%%%%%%%%%%%%%%%%%%%%%%%%%%%%%%%%%%%%%%%%%%%%%%%%
 density label              = velectrostatic                                                                  
 integral of density        =    -0.6598178793E-12

%%%% CHARGES %%%%%%%%%%%%%%%%%%%%%%%%%%%%%%%%%%%%%%%%%%%%%%%%%%%%%%%%%%%%%%%%%%%
 total number of charges    =         34
 total charge               =     -1.0000000
