
     Program PWSCF v.6.7MaX starts on 22Jan2021 at 10: 1:36 

     This program is part of the open-source Quantum ESPRESSO suite
     for quantum simulation of materials; please cite
         "P. Giannozzi et al., J. Phys.:Condens. Matter 21 395502 (2009);
         "P. Giannozzi et al., J. Phys.:Condens. Matter 29 465901 (2017);
          URL http://www.quantum-espresso.org", 
     in publications or presentations arising from this work. More details at
     http://www.quantum-espresso.org/quote

     Parallel version (MPI), running on     1 processors

     MPI processes distributed on     1 nodes
     Reading input from charged.in

     Current dimensions of program PWSCF are:
     Max number of different atomic species (ntypx) = 10
     Max number of k-points (npk) =  40000
     Max angular momentum in pseudopotentials (lmaxx) =  3
     file C.pbe-rrkjus.UPF: wavefunction(s)  2S 2P renormalized
     file H.pbe-rrkjus.UPF: wavefunction(s)  1S renormalized
     file N.pbe-rrkjus.UPF: wavefunction(s)  2S renormalized
     file O.pbe-rrkjus.UPF: wavefunction(s)  2S renormalized

     gamma-point specific algorithms are used

     Subspace diagonalization in iterative solution of the eigenvalue problem:
     a serial algorithm will be used


     G-vector sticks info
     --------------------
     sticks:   dense  smooth     PW     G-vecs:    dense   smooth      PW
     Sum        9549    3809    949               701475   177509   22119



     bravais-lattice index     =            1
     lattice parameter (alat)  =      20.0000  a.u.
     unit-cell volume          =    8000.0000 (a.u.)^3
     number of atoms/cell      =           10
     number of atomic types    =            4
     number of electrons       =        24.00
     number of Kohn-Sham states=           12
     kinetic-energy cutoff     =      30.0000  Ry
     charge density cutoff     =     300.0000  Ry
     scf convergence threshold =      5.0E-06
     mixing beta               =       0.7000
     number of iterations used =            8  plain     mixing
     Exchange-correlation= SLA  PW   PBE  PBE
                           (   1   4   3   4   0   0   0)


     Environ Module
     ==============

     Plese cite
         O. Andreussi, I. Dabo and N. Marzari, J. Chem. Phys. 136, 064102 (2012)         
     in publications or presentations arising from this work.

     compensation onset threshold      =               0.1000E+03 
     static permittivity               =                   100.00 
     epsilon calculation mode          =                    ionic 

     Electrostatic Setup
     -------------------
     electrostatic problem to solve    = generalized              
     numerical solver adopted          = cg                       
     type of auxiliary density adopted = none                     
     type of core tool for poisson     = fft                      



     celldm(1)=  20.000000  celldm(2)=   0.000000  celldm(3)=   0.000000
     celldm(4)=   0.000000  celldm(5)=   0.000000  celldm(6)=   0.000000

     crystal axes: (cart. coord. in units of alat)
               a(1) = (   1.000000   0.000000   0.000000 )  
               a(2) = (   0.000000   1.000000   0.000000 )  
               a(3) = (   0.000000   0.000000   1.000000 )  

     reciprocal axes: (cart. coord. in units 2 pi/alat)
               b(1) = (  1.000000  0.000000  0.000000 )  
               b(2) = (  0.000000  1.000000  0.000000 )  
               b(3) = (  0.000000  0.000000  1.000000 )  


     PseudoPot. # 1 for C  read from file:
     /Users/gabrielmedrano/Desktop/q-e/Environ/tests/../..//pseudo/C.pbe-rrkjus.UPF
     MD5 check sum: c9ac5a99bc85b198593446162950cd17
     Pseudo is Ultrasoft, Zval =  4.0
     Generated by new atomic code, or converted to UPF format
     Using radial grid of  627 points,  4 beta functions with: 
                l(1) =   0
                l(2) =   0
                l(3) =   1
                l(4) =   1
     Q(r) pseudized with 0 coefficients 


     PseudoPot. # 2 for H  read from file:
     /Users/gabrielmedrano/Desktop/q-e/Environ/tests/../..//pseudo/H.pbe-rrkjus.UPF
     MD5 check sum: 2d52a7f45632fd764c17cc6affed14c8
     Pseudo is Ultrasoft, Zval =  1.0
     Generated by new atomic code, or converted to UPF format
     Using radial grid of 1061 points,  2 beta functions with: 
                l(1) =   0
                l(2) =   0
     Q(r) pseudized with 0 coefficients 


     PseudoPot. # 3 for N  read from file:
     /Users/gabrielmedrano/Desktop/q-e/Environ/tests/../..//pseudo/N.pbe-rrkjus.UPF
     MD5 check sum: 28c76d763763edb36c62a6ca2be9aebd
     Pseudo is Ultrasoft, Zval =  5.0
     Generated by new atomic code, or converted to UPF format
     Using radial grid of 1257 points,  4 beta functions with: 
                l(1) =   0
                l(2) =   0
                l(3) =   1
                l(4) =   1
     Q(r) pseudized with 0 coefficients 


     PseudoPot. # 4 for O  read from file:
     /Users/gabrielmedrano/Desktop/q-e/Environ/tests/../..//pseudo/O.pbe-rrkjus.UPF
     MD5 check sum: fadcf19ee70a498d3030e2e79cf929a4
     Pseudo is Ultrasoft, Zval =  6.0
     Generated by new atomic code, or converted to UPF format
     Using radial grid of 1269 points,  4 beta functions with: 
                l(1) =   0
                l(2) =   0
                l(3) =   1
                l(4) =   1
     Q(r) pseudized with 0 coefficients 


     atomic species   valence    mass     pseudopotential
        C              4.00    12.00000     C ( 1.00)
        H              1.00     1.00000     H ( 1.00)
        N              5.00    14.00000     N ( 1.00)
        O              6.00    16.00000     O ( 1.00)

     No symmetry found



   Cartesian axes

     site n.     atom                  positions (alat units)
         1           C   tau(   1) = (   0.0000000   0.0000000   0.0000000  )
         2           C   tau(   2) = (   0.0000000   0.0000000   0.1455089  )
         3           N   tau(   3) = (   0.1170969   0.0000000  -0.0545024  )
         4           H   tau(   4) = (   0.0476617  -0.0825466   0.1792090  )
         5           H   tau(   5) = (  -0.0953183  -0.0000030   0.1792090  )
         6           H   tau(   6) = (   0.0476566   0.0825496   0.1792090  )
         7           O   tau(   7) = (  -0.0984002  -0.0000019  -0.0641310  )
         8           H   tau(   8) = (   0.1263131  -0.0000015  -0.1475548  )
         9           H   tau(   9) = (   0.1944645   0.0000134  -0.0025716  )
        10           H   tau(  10) = (  -0.0770366  -0.0000045  -0.1522861  )

     number of k points=     1
                       cart. coord. in units 2pi/alat
        k(    1) = (   0.0000000   0.0000000   0.0000000), wk =   2.0000000

     Dense  grid:   350738 G-vectors     FFT dimensions: ( 120, 120, 120)

     Smooth grid:    88755 G-vectors     FFT dimensions: (  72,  72,  72)

     Estimated max dynamical RAM per process >     624.11 MB

     Initial potential from superposition of free atoms

     starting charge   24.42266, renormalised to   24.00000

     negative rho (up, down):  4.438E-04 0.000E+00
     Starting wfcs are   22 randomized atomic wfcs

     total cpu time spent up to now is       13.1 secs

     Self-consistent Calculation

     iteration #  1     ecut=    30.00 Ry     beta= 0.70
     Davidson diagonalization with overlap
     ethr =  1.00E-02,  avg # of iterations =  2.0

     negative rho (up, down):  1.234E-04 0.000E+00

     add environment contribution to local potential
     polarization accuracy = 5.4E-06, # of iterations =  17

     total cpu time spent up to now is       18.2 secs

     total energy              =     -80.29562589 Ry
     estimated scf accuracy    <       3.64924908 Ry
     electrostatic embedding   =       0.00000000 Ry
     correction to one-el term =      -0.00000000 Ry

     iteration #  2     ecut=    30.00 Ry     beta= 0.70
     Davidson diagonalization with overlap
     ethr =  1.00E-02,  avg # of iterations =  5.0

     negative rho (up, down):  6.007E-04 0.000E+00

     add environment contribution to local potential
     polarization accuracy = 6.2E-06, # of iterations =  17

     total cpu time spent up to now is       23.6 secs

     total energy              =     -81.12511621 Ry
     estimated scf accuracy    <       1.21997961 Ry
     electrostatic embedding   =      -0.23189369 Ry
     correction to one-el term =      -5.92784507 Ry

     iteration #  3     ecut=    30.00 Ry     beta= 0.70
     Davidson diagonalization with overlap
     ethr =  5.08E-03,  avg # of iterations =  4.0

     negative rho (up, down):  2.220E-04 0.000E+00

     add environment contribution to local potential
     polarization accuracy = 9.9E-06, # of iterations =  17

     total cpu time spent up to now is       29.2 secs

     total energy              =     -81.36290489 Ry
     estimated scf accuracy    <       0.12146851 Ry
     electrostatic embedding   =      -0.19196474 Ry
     correction to one-el term =      -5.29800798 Ry

     iteration #  4     ecut=    30.00 Ry     beta= 0.70
     Davidson diagonalization with overlap
     ethr =  5.06E-04,  avg # of iterations =  5.0

     negative rho (up, down):  1.137E-04 0.000E+00

     add environment contribution to local potential
     polarization accuracy = 5.8E-06, # of iterations =  17

     total cpu time spent up to now is       35.4 secs

     total energy              =     -81.40299139 Ry
     estimated scf accuracy    <       0.01821925 Ry
     electrostatic embedding   =      -0.15441454 Ry
     correction to one-el term =      -4.89232183 Ry

     iteration #  5     ecut=    30.00 Ry     beta= 0.70
     Davidson diagonalization with overlap
     ethr =  7.59E-05,  avg # of iterations =  4.0

     negative rho (up, down):  7.553E-05 0.000E+00

     add environment contribution to local potential
     polarization accuracy = 5.6E-06, # of iterations =  17

     total cpu time spent up to now is       41.8 secs

     total energy              =     -81.40731948 Ry
     estimated scf accuracy    <       0.00150414 Ry
     electrostatic embedding   =      -0.13730914 Ry
     correction to one-el term =      -4.47707887 Ry

     iteration #  6     ecut=    30.00 Ry     beta= 0.70
     Davidson diagonalization with overlap
     ethr =  6.27E-06,  avg # of iterations =  2.0

     negative rho (up, down):  1.051E-04 0.000E+00

     add environment contribution to local potential
     polarization accuracy = 5.7E-06, # of iterations =  17

     total cpu time spent up to now is       47.1 secs

     total energy              =     -81.40771344 Ry
     estimated scf accuracy    <       0.00019683 Ry
     electrostatic embedding   =      -0.13644364 Ry
     correction to one-el term =      -4.43377642 Ry

     iteration #  7     ecut=    30.00 Ry     beta= 0.70
     Davidson diagonalization with overlap
     ethr =  8.20E-07,  avg # of iterations =  5.0

     negative rho (up, down):  2.493E-04 0.000E+00

     add environment contribution to local potential
     polarization accuracy = 6.0E-06, # of iterations =  17

     total cpu time spent up to now is       52.4 secs

     total energy              =     -81.40777506 Ry
     estimated scf accuracy    <       0.00002056 Ry
     electrostatic embedding   =      -0.13601303 Ry
     correction to one-el term =      -4.40867614 Ry

     iteration #  8     ecut=    30.00 Ry     beta= 0.70
     Davidson diagonalization with overlap
     ethr =  8.57E-08,  avg # of iterations =  3.0

     negative rho (up, down):  2.705E-04 0.000E+00

     the potential shift due to the Gaussian-smeared nuclei is    -0.0668 ev

     total cpu time spent up to now is       54.8 secs

     End of self-consistent calculation

          k = 0.0000 0.0000 0.0000 ( 11060 PWs)   bands (ev):

   -28.9233 -22.9737 -18.4866 -15.9889 -14.5591 -13.2938 -11.5636 -10.8842
    -9.4234  -9.4231  -9.2465  -7.2644

     highest occupied level (ev):    -7.2644

!    total energy              =     -81.40778220 Ry
     estimated scf accuracy    <       0.00000111 Ry

     The total energy is the sum of the following terms:
     one-electron contribution =    -240.99567639 Ry
     hartree contribution      =     122.71462461 Ry
     xc contribution           =     -22.90350585 Ry
     ewald contribution        =      64.30784069 Ry
     electrostatic embedding   =      -0.13562099 Ry
     correction to one-el term =      -4.39544428 Ry

     convergence has been achieved in   8 iterations
 forces lc
       1    0.0566   -0.0000   -0.0775
       2    0.0511   -0.0000   -0.0611
       3    0.0073   -0.0000   -0.0758
       4    0.0154   -0.0043   -0.0151
       5    0.0011   -0.0000   -0.0087
       6    0.0154    0.0043   -0.0151
       7    0.2377   -0.0001   -0.1932
       8   -0.0154   -0.0000   -0.0349
       9    0.0195   -0.0000    0.0098
      10    0.0386   -0.0000   -0.0587

     Forces acting on atoms (cartesian axes, Ry/au):

     atom    1 type  1   force =     0.22882591   -0.00001883    0.10184505
     atom    2 type  1   force =    -0.03260776   -0.00002354   -0.08277664
     atom    3 type  3   force =    -0.14589113   -0.00003404    0.04595753
     atom    4 type  2   force =     0.02062541   -0.03158376    0.00908149
     atom    5 type  2   force =    -0.03468621    0.00001691    0.01231897
     atom    6 type  2   force =     0.02062455    0.03162262    0.00908474
     atom    7 type  4   force =    -0.10325765   -0.00004659   -0.00493444
     atom    8 type  2   force =     0.00874740    0.00002204   -0.05987966
     atom    9 type  2   force =     0.04742840    0.00002356    0.03974640
     atom   10 type  2   force =    -0.00980892    0.00002164   -0.07044345

     Total force =     0.348783     Total SCF correction =     0.001835

     Writing output data file /Users/gabrielmedrano/Desktop/q-e/Environ/tests/../..//tempdir/pwscf.save/

     init_run     :     12.26s CPU     12.98s WALL (       1 calls)
     electrons    :     43.35s CPU     41.73s WALL (       1 calls)
     forces       :     15.70s CPU     16.05s WALL (       1 calls)

     Called by init_run:
     wfcinit      :      0.12s CPU      0.12s WALL (       1 calls)
     potinit      :      0.99s CPU      1.05s WALL (       1 calls)
     hinit0       :     10.50s CPU     10.92s WALL (       1 calls)

     Called by electrons:
     c_bands      :      1.83s CPU      1.49s WALL (       8 calls)
     sum_band     :     11.10s CPU      6.48s WALL (       8 calls)
     v_of_rho     :      5.03s CPU      5.83s WALL (       9 calls)
     newd         :      3.52s CPU      4.89s WALL (       9 calls)
     mix_rho      :      0.62s CPU      0.69s WALL (       8 calls)

     Called by c_bands:
     init_us_2    :      0.06s CPU      0.07s WALL (      17 calls)
     regterg      :      1.74s CPU      1.40s WALL (       8 calls)

     Called by *egterg:
     rdiaghg      :      0.01s CPU      0.01s WALL (      38 calls)
     h_psi        :      1.53s CPU      1.37s WALL (      39 calls)
     s_psi        :      0.11s CPU      0.02s WALL (      39 calls)
     g_psi        :      0.01s CPU      0.01s WALL (      30 calls)

     Called by h_psi:
     h_psi:calbec :      0.04s CPU      0.04s WALL (      39 calls)
     vloc_psi     :      1.25s CPU      1.26s WALL (      39 calls)
     add_vuspsi   :      0.23s CPU      0.07s WALL (      39 calls)

     General routines
     calbec       :      0.06s CPU      0.05s WALL (      51 calls)
     fft          :     16.90s CPU     17.69s WALL (     404 calls)
     ffts         :      0.09s CPU      0.09s WALL (      17 calls)
     fftw         :      1.14s CPU      1.14s WALL (     362 calls)
     interpolate  :      0.42s CPU      0.48s WALL (       9 calls)

     Parallel routines
     fft_scatt_xy :      1.44s CPU      1.44s WALL (     301 calls)
     fft_scatt_yz :      1.91s CPU      1.91s WALL (     301 calls)

     Environ routines
     calc_eelect  :      0.04s CPU      0.04s WALL (      16 calls)
     calc_velect  :     18.06s CPU     19.11s WALL (      14 calls)
     dielectric   :      0.10s CPU      0.11s WALL (       2 calls)
     calc_felect  :      0.33s CPU      0.35s WALL (       1 calls)

     PWSCF        :   1m11.41s CPU   1m10.94s WALL


   This run was terminated on:  10: 2:47  22Jan2021            

=------------------------------------------------------------------------------=
   JOB DONE.
=------------------------------------------------------------------------------=
 Calling electrostatic_initbase now
 electrolyte_distance:    0.0000000000000000     
 sc_distance:    0.0000000000000000     
 velectrostatic started
 vreference created

%%%% IONS %%%%%%%%%%%%%%%%%%%%%%%%%%%%%%%%%%%%%%%%%%%%%%%%%%%%%%%%%%%%%%%%%%%%%%
 number of ions             =         10
 ionic center of charge     =      0.0095530    -0.0000002     0.0063981
 total ionic charge         =    -25.0000000
 ionic dipole               =      0.0000000     0.0000000     0.0000000
 ionic quadrupole (pc)      =    -79.0828051    -5.4513517  -105.8059620
 ionic quadrupole (gauss)   =    -82.2078051    -8.5763517  -108.9309620
 ion   1 type =  1 coordinates =      0.0000000     0.0000000     0.0000000
 ion   2 type =  1 coordinates =      0.0000000     0.0000000     2.9101782
 ion   3 type =  3 coordinates =      2.3419379     0.0000000    -1.0900479
 ion   4 type =  2 coordinates =      0.9532347    -1.6509323     3.5841800
 ion   5 type =  2 coordinates =     -1.9063663    -0.0000596     3.5841809
 ion   6 type =  2 coordinates =      0.9531315     1.6509919     3.5841800
 ion   7 type =  4 coordinates =     -1.9680045    -0.0000375    -1.2826193
 ion   8 type =  2 coordinates =      2.5262613    -0.0000303    -2.9510950
 ion   9 type =  2 coordinates =      3.8892907     0.0002681    -0.0514326
 ion  10 type =  2 coordinates =     -1.5407317    -0.0000890    -3.0457220

%%%% SYSTEM %%%%%%%%%%%%%%%%%%%%%%%%%%%%%%%%%%%%%%%%%%%%%%%%%%%%%%%%%%%%%%%%%%%%
 system is built from all present ionic types
 system defined dimension   =  0 
 system defined axis        =  3 
 system center              =      0.0095530    -0.0000002     0.0063981 
 system width               =      0.2021425 

%%%% IONS %%%%%%%%%%%%%%%%%%%%%%%%%%%%%%%%%%%%%%%%%%%%%%%%%%%%%%%%%%%%%%%%%%%%%%
 number of ions             =         10
 ionic center of charge     =      0.0095530    -0.0000002     0.0063981
 total ionic charge         =    -25.0000000
 ionic dipole               =      0.0000000     0.0000000     0.0000000
 ionic quadrupole (pc)      =    -79.0828051    -5.4513517  -105.8059620
 ionic quadrupole (gauss)   =    -82.2078051    -8.5763517  -108.9309620
 ion   1 type =  1 coordinates =      0.0000000     0.0000000     0.0000000
 ion   2 type =  1 coordinates =      0.0000000     0.0000000     2.9101782
 ion   3 type =  3 coordinates =      2.3419379     0.0000000    -1.0900479
 ion   4 type =  2 coordinates =      0.9532347    -1.6509323     3.5841800
 ion   5 type =  2 coordinates =     -1.9063663    -0.0000596     3.5841809
 ion   6 type =  2 coordinates =      0.9531315     1.6509919     3.5841800
 ion   7 type =  4 coordinates =     -1.9680045    -0.0000375    -1.2826193
 ion   8 type =  2 coordinates =      2.5262613    -0.0000303    -2.9510950
 ion   9 type =  2 coordinates =      3.8892907     0.0002681    -0.0514326
 ion  10 type =  2 coordinates =     -1.5407317    -0.0000890    -3.0457220

%%%% SYSTEM %%%%%%%%%%%%%%%%%%%%%%%%%%%%%%%%%%%%%%%%%%%%%%%%%%%%%%%%%%%%%%%%%%%%
 system is built from all present ionic types
 system defined dimension   =  0 
 system defined axis        =  3 
 system center              =      0.0095530    -0.0000002     0.0063981 
 system width               =      0.2021425 

%%%% BOUNDARY %%%%%%%%%%%%%%%%%%%%%%%%%%%%%%%%%%%%%%%%%%%%%%%%%%%%%%%%%%%%%%%%%%
 boundary label             = solvent              
 boundary mode              = ionic                
 boundary is built from soft-spheres centered on ionic positions
 solvent-dependent scaling  =      1.0000000 
 softness parameter         =      0.5000000 
 volume of the QM region    =    609.3920693 
 surface of the QM region   =    383.1651428 

%%%% DIELECTRIC %%%%%%%%%%%%%%%%%%%%%%%%%%%%%%%%%%%%%%%%%%%%%%%%%%%%%%%%%%%%%%%%%
 dielectric build on homogeneous background
 environment bulk permitt.  =    100.0000000 
 dielectric flags
 need gradient              =  F 
 need factor depend. sqrt   =  T 
 total dielectric charge    =      0.0000000

%%%% ELECTRONS %%%%%%%%%%%%%%%%%%%%%%%%%%%%%%%%%%%%%%%%%%%%%%%%%%%%%%%%%%%%%%%%%
 number of electrons        =         24
 total electronic charge    =     24.0000000

%%%% ELECTRONS %%%%%%%%%%%%%%%%%%%%%%%%%%%%%%%%%%%%%%%%%%%%%%%%%%%%%%%%%%%%%%%%%
 number of electrons        =         24
 total electronic charge    =     24.0000000

%%%% DENSITY %%%%%%%%%%%%%%%%%%%%%%%%%%%%%%%%%%%%%%%%%%%%%%%%%%%%%%%%%%%%%%%%%%%
 density label              = dvtot                                                                           
 integral of density        =      0.000000000    

%%%% DENSITY %%%%%%%%%%%%%%%%%%%%%%%%%%%%%%%%%%%%%%%%%%%%%%%%%%%%%%%%%%%%%%%%%%%
 density label              = vreference                                                                      
 integral of density        =      0.000000000    

%%%% DENSITY %%%%%%%%%%%%%%%%%%%%%%%%%%%%%%%%%%%%%%%%%%%%%%%%%%%%%%%%%%%%%%%%%%%
 density label              = velectrostatic                                                                  
 integral of density        =      0.000000000    

%%%% CHARGES %%%%%%%%%%%%%%%%%%%%%%%%%%%%%%%%%%%%%%%%%%%%%%%%%%%%%%%%%%%%%%%%%%%
 total number of charges    =         34
 total charge               =     -1.0000000

%%%% ELECTRONS %%%%%%%%%%%%%%%%%%%%%%%%%%%%%%%%%%%%%%%%%%%%%%%%%%%%%%%%%%%%%%%%%
 number of electrons        =         24
 total electronic charge    =     24.0000000

%%%% ELECTRONS %%%%%%%%%%%%%%%%%%%%%%%%%%%%%%%%%%%%%%%%%%%%%%%%%%%%%%%%%%%%%%%%%
 number of electrons        =         24
 total electronic charge    =     24.0000000

%%%% DENSITY %%%%%%%%%%%%%%%%%%%%%%%%%%%%%%%%%%%%%%%%%%%%%%%%%%%%%%%%%%%%%%%%%%%
 density label              = vreference                                                                      
 integral of density        =    -0.2399915657E-11

%%%% COMPUTE ELECTROSTATIC POTENTIAL %%%%%%%%%%%%%%%%%%%%%%%%%%%%%%%%%%%%%%%%%%%
 Iteration #          1
  pAp =    95.806315312676830       rzold =    89.523868539850938       alpha =   0.93442554645461229     
 delta_qm =   0.320778E-01 delta_en =   0.177809E+04 tol =   0.100000E-04
 Iteration #          2
  pAp =    611.44219962133252       rzold =    56.317925588259897       alpha =    9.2106703827667946E-002
 delta_qm =   0.437690E-02 delta_en =   0.331038E+02 tol =   0.100000E-04
 Iteration #          3
  pAp =    2.1233241755956653       rzold =   0.39776918237497200       alpha =   0.18733323293104034     
 delta_qm =   0.196790E-02 delta_en =   0.669188E+01 tol =   0.100000E-04
 Iteration #          4
  pAp =   0.31081146358504969       rzold =    4.6875537440757259E-002  alpha =   0.15081662979888885     
 delta_qm =   0.143405E-02 delta_en =   0.355365E+01 tol =   0.100000E-04
 Iteration #          5
  pAp =    3.3108271588155651E-002  rzold =    8.3147943722476532E-003  alpha =   0.25113948791039387     
 delta_qm =   0.954176E-03 delta_en =   0.157326E+01 tol =   0.100000E-04
 Iteration #          6
  pAp =    8.4142489805837800E-003  rzold =    2.9462288256055253E-003  alpha =   0.35014756901109861     
 delta_qm =   0.495619E-03 delta_en =   0.424463E+00 tol =   0.100000E-04
 Iteration #          7
  pAp =    5.0469244163489141E-003  rzold =    1.1458300702157156E-003  alpha =   0.22703531412198980     
 delta_qm =   0.329546E-03 delta_en =   0.187662E+00 tol =   0.100000E-04
 Iteration #          8
  pAp =    1.9178191229516164E-003  rzold =    4.8198343446299044E-004  alpha =   0.25131850480309875     
 delta_qm =   0.240120E-03 delta_en =   0.996327E-01 tol =   0.100000E-04
 Iteration #          9
  pAp =    2.8276403819908622E-004  rzold =    1.6613923521385400E-004  alpha =   0.58755433071329966     
 delta_qm =   0.146748E-03 delta_en =   0.372126E-01 tol =   0.100000E-04
 Iteration #         10
  pAp =    3.4403539138845433E-004  rzold =    1.3512080875044963E-004  alpha =   0.39275264153821654     
 delta_qm =   0.713208E-04 delta_en =   0.878974E-02 tol =   0.100000E-04
 Iteration #         11
  pAp =    9.2642971065345781E-005  rzold =    3.3104694684130323E-005  alpha =   0.35733628038310544     
 delta_qm =   0.454508E-04 delta_en =   0.356967E-02 tol =   0.100000E-04
 Iteration #         12
  pAp =    1.7116025325142726E-005  rzold =    5.8364928334533453E-006  alpha =   0.34099580495944820     
 delta_qm =   0.292705E-04 delta_en =   0.148049E-02 tol =   0.100000E-04
 Iteration #         13
  pAp =    4.3761922760368426E-006  rzold =    1.8253437466813819E-006  alpha =   0.41710775750795975     
 delta_qm =   0.187556E-04 delta_en =   0.607863E-03 tol =   0.100000E-04
 Iteration #         14
  pAp =    2.8300168589776390E-006  rzold =    1.0246399430086794E-006  alpha =   0.36206142721666923     
 delta_qm =   0.116704E-04 delta_en =   0.235352E-03 tol =   0.100000E-04
 Iteration #         15
  pAp =    9.6366391821040908E-007  rzold =    3.7981348057293185E-007  alpha =   0.39413479470962437     
 delta_qm =   0.711661E-05 delta_en =   0.875164E-04 tol =   0.100000E-04
 Iteration #         16
  pAp =    2.3643123167790580E-007  rzold =    1.1309884470240375E-007  alpha =   0.47835831120856398     
 delta_qm =   0.389159E-05 delta_en =   0.261696E-04 tol =   0.100000E-04
 Iteration #         17
  pAp =    7.7983482527870674E-008  rzold =    3.8568705165303484E-008  alpha =   0.49457531152855783     
 delta_qm =   0.176211E-05 delta_en =   0.536552E-05 tol =   0.100000E-04
 Charges are converged, EXIT

%%%% DENSITY %%%%%%%%%%%%%%%%%%%%%%%%%%%%%%%%%%%%%%%%%%%%%%%%%%%%%%%%%%%%%%%%%%%
 density label              = velectrostatic                                                                  
 integral of density        =    -0.2761807244E-11

%%%% CHARGES %%%%%%%%%%%%%%%%%%%%%%%%%%%%%%%%%%%%%%%%%%%%%%%%%%%%%%%%%%%%%%%%%%%
 total number of charges    =         34
 total charge               =     -1.0000000

%%%% DENSITY %%%%%%%%%%%%%%%%%%%%%%%%%%%%%%%%%%%%%%%%%%%%%%%%%%%%%%%%%%%%%%%%%%%
 density label              = dvtot                                                                           
 integral of density        =    -0.3178743277E-12

%%%% ELECTRONS %%%%%%%%%%%%%%%%%%%%%%%%%%%%%%%%%%%%%%%%%%%%%%%%%%%%%%%%%%%%%%%%%
 number of electrons        =         24
 total electronic charge    =     24.0000000

%%%% ELECTRONS %%%%%%%%%%%%%%%%%%%%%%%%%%%%%%%%%%%%%%%%%%%%%%%%%%%%%%%%%%%%%%%%%
 number of electrons        =         24
 total electronic charge    =     24.0000000

%%%% DENSITY %%%%%%%%%%%%%%%%%%%%%%%%%%%%%%%%%%%%%%%%%%%%%%%%%%%%%%%%%%%%%%%%%%%
 density label              = vreference                                                                      
 integral of density        =     0.5002245531E-11

%%%% COMPUTE ELECTROSTATIC POTENTIAL %%%%%%%%%%%%%%%%%%%%%%%%%%%%%%%%%%%%%%%%%%%
 Warning: bad guess with residual norm =   0.176826E+04, reset to no guess
 Iteration #          1
  pAp =    98.815801548232599       rzold =    93.271870056379129       alpha =   0.94389630600580166     
 delta_qm =   0.304545E-01 delta_en =   0.160267E+04 tol =   0.100000E-04
 Iteration #          2
  pAp =    555.27639314272517       rzold =    50.827132257624996       alpha =    9.1534833616743846E-002
 delta_qm =   0.388227E-02 delta_en =   0.260445E+02 tol =   0.100000E-04
 Iteration #          3
  pAp =    2.0139233587542704       rzold =   0.32077665336188727       alpha =   0.15927947405124018     
 delta_qm =   0.192343E-02 delta_en =   0.639285E+01 tol =   0.100000E-04
 Iteration #          4
  pAp =   0.28352313478920282       rzold =    4.2581389378932730E-002  alpha =   0.15018664847435342     
 delta_qm =   0.145025E-02 delta_en =   0.363436E+01 tol =   0.100000E-04
 Iteration #          5
  pAp =    1.9544539612664856E-002  rzold =    6.2088574022323723E-003  alpha =   0.31767734238206535     
 delta_qm =   0.902965E-03 delta_en =   0.140892E+01 tol =   0.100000E-04
 Iteration #          6
  pAp =    8.4704200586945347E-003  rzold =    2.7991422076649240E-003  alpha =   0.33046084943470078     
 delta_qm =   0.467310E-03 delta_en =   0.377358E+00 tol =   0.100000E-04
 Iteration #          7
  pAp =    4.7511859464538135E-003  rzold =    1.0286410192457546E-003  alpha =   0.21650194937403172     
 delta_qm =   0.338864E-03 delta_en =   0.198425E+00 tol =   0.100000E-04
 Iteration #          8
  pAp =    1.4126628397772728E-003  rzold =    4.3902913767196358E-004  alpha =   0.31078126026248631     
 delta_qm =   0.240550E-03 delta_en =   0.999897E-01 tol =   0.100000E-04
 Iteration #          9
  pAp =    3.6027261444142918E-004  rzold =    2.0393131108754369E-004  alpha =   0.56604721789282031     
 delta_qm =   0.138337E-03 delta_en =   0.330689E-01 tol =   0.100000E-04
 Iteration #         10
  pAp =    3.7766531843440944E-004  rzold =    1.3589461255317521E-004  alpha =   0.35982814921030815     
 delta_qm =   0.651384E-04 delta_en =   0.733193E-02 tol =   0.100000E-04
 Iteration #         11
  pAp =    6.6815833558488350E-005  rzold =    2.4046631796634622E-005  alpha =   0.35989421243371905     
 delta_qm =   0.445956E-04 delta_en =   0.343659E-02 tol =   0.100000E-04
 Iteration #         12
  pAp =    1.3003626999144516E-005  rzold =    4.8655675450939359E-006  alpha =   0.37417003313106661     
 delta_qm =   0.280997E-04 delta_en =   0.136441E-02 tol =   0.100000E-04
 Iteration #         13
  pAp =    2.6511285839387191E-006  rzold =    1.4830766518391172E-006  alpha =   0.55941332337632044     
 delta_qm =   0.154748E-04 delta_en =   0.413805E-03 tol =   0.100000E-04
 Iteration #         14
  pAp =    1.3345683573806081E-006  rzold =    6.1898318026962530E-007  alpha =   0.46380777488574632     
 delta_qm =   0.893328E-05 delta_en =   0.137900E-03 tol =   0.100000E-04
 Iteration #         15
  pAp =    8.5649193803834386E-007  rzold =    2.4654797596443776E-007  alpha =   0.28785790620413310     
 delta_qm =   0.642563E-05 delta_en =   0.713470E-04 tol =   0.100000E-04
 Iteration #         16
  pAp =    3.6678601854102152E-007  rzold =    1.1983825875369773E-007  alpha =   0.32672526403918789     
 delta_qm =   0.369093E-05 delta_en =   0.235404E-04 tol =   0.100000E-04
 Iteration #         17
  pAp =    1.1292960213210915E-007  rzold =    4.1470651188683841E-008  alpha =   0.36722569110063780     
 delta_qm =   0.189067E-05 delta_en =   0.617699E-05 tol =   0.100000E-04
 Charges are converged, EXIT

%%%% DENSITY %%%%%%%%%%%%%%%%%%%%%%%%%%%%%%%%%%%%%%%%%%%%%%%%%%%%%%%%%%%%%%%%%%%
 density label              = velectrostatic                                                                  
 integral of density        =    -0.2341238314E-11

%%%% CHARGES %%%%%%%%%%%%%%%%%%%%%%%%%%%%%%%%%%%%%%%%%%%%%%%%%%%%%%%%%%%%%%%%%%%
 total number of charges    =         34
 total charge               =     -1.0000000

%%%% DENSITY %%%%%%%%%%%%%%%%%%%%%%%%%%%%%%%%%%%%%%%%%%%%%%%%%%%%%%%%%%%%%%%%%%%
 density label              = dvtot                                                                           
 integral of density        =    -0.1029453272E-11

%%%% ELECTRONS %%%%%%%%%%%%%%%%%%%%%%%%%%%%%%%%%%%%%%%%%%%%%%%%%%%%%%%%%%%%%%%%%
 number of electrons        =         24
 total electronic charge    =     24.0000000

%%%% ELECTRONS %%%%%%%%%%%%%%%%%%%%%%%%%%%%%%%%%%%%%%%%%%%%%%%%%%%%%%%%%%%%%%%%%
 number of electrons        =         24
 total electronic charge    =     24.0000000

%%%% DENSITY %%%%%%%%%%%%%%%%%%%%%%%%%%%%%%%%%%%%%%%%%%%%%%%%%%%%%%%%%%%%%%%%%%%
 density label              = vreference                                                                      
 integral of density        =     0.3145270053E-11

%%%% COMPUTE ELECTROSTATIC POTENTIAL %%%%%%%%%%%%%%%%%%%%%%%%%%%%%%%%%%%%%%%%%%%
 Warning: bad guess with residual norm =   0.141648E+04, reset to no guess
 Iteration #          1
  pAp =    98.322193123793156       rzold =    93.837642105518370       alpha =   0.95438922916794089     
 delta_qm =   0.275180E-01 delta_en =   0.130851E+04 tol =   0.100000E-04
 Iteration #          2
  pAp =    465.39990525255934       rzold =    42.080886632120752       alpha =    9.0418769228766058E-002
 delta_qm =   0.363503E-02 delta_en =   0.228328E+02 tol =   0.100000E-04
 Iteration #          3
  pAp =    1.5355100812354865       rzold =   0.26039042764844816       alpha =   0.16957910653307823     
 delta_qm =   0.180928E-02 delta_en =   0.565662E+01 tol =   0.100000E-04
 Iteration #          4
  pAp =   0.25298760693672934       rzold =    3.7511200310774977E-002  alpha =   0.14827287694039615     
 delta_qm =   0.136158E-02 delta_en =   0.320356E+01 tol =   0.100000E-04
 Iteration #          5
  pAp =    1.8636114162648883E-002  rzold =    5.6391399313917489E-003  alpha =   0.30259204693507941     
 delta_qm =   0.872426E-03 delta_en =   0.131523E+01 tol =   0.100000E-04
 Iteration #          6
  pAp =    6.3489331899185880E-003  rzold =    2.3546857711393646E-003  alpha =   0.37087896512729862     
 delta_qm =   0.436857E-03 delta_en =   0.329778E+00 tol =   0.100000E-04
 Iteration #          7
  pAp =    1.7040734334010724E-003  rzold =    6.3969314049704335E-004  alpha =   0.37539059523996732     
 delta_qm =   0.278883E-03 delta_en =   0.134397E+00 tol =   0.100000E-04
 Iteration #          8
  pAp =    5.8765543206462526E-004  rzold =    2.4717418395534885E-004  alpha =   0.42061073627269180     
 delta_qm =   0.194365E-03 delta_en =   0.652800E-01 tol =   0.100000E-04
 Iteration #          9
  pAp =    9.5917367786424121E-004  rzold =    2.6211167469151510E-004  alpha =   0.27326821069063328     
 delta_qm =   0.127420E-03 delta_en =   0.280557E-01 tol =   0.100000E-04
 Iteration #         10
  pAp =    4.5910951299590441E-004  rzold =    1.3705053872325462E-004  alpha =   0.29851382914924962     
 delta_qm =   0.634576E-04 delta_en =   0.695842E-02 tol =   0.100000E-04
 Iteration #         11
  pAp =    7.8994641835746494E-005  rzold =    2.5502085833497988E-005  alpha =   0.32283310919396857     
 delta_qm =   0.452540E-04 delta_en =   0.353881E-02 tol =   0.100000E-04
 Iteration #         12
  pAp =    1.7422332447408032E-005  rzold =    5.6815031432875904E-006  alpha =   0.32610462235398585     
 delta_qm =   0.299506E-04 delta_en =   0.155008E-02 tol =   0.100000E-04
 Iteration #         13
  pAp =    4.3937754507110730E-006  rzold =    1.8215449503376748E-006  alpha =   0.41457397419863196     
 delta_qm =   0.185155E-04 delta_en =   0.592402E-03 tol =   0.100000E-04
 Iteration #         14
  pAp =    2.6702387983474917E-006  rzold =    1.0475140164406396E-006  alpha =   0.39229226130970229     
 delta_qm =   0.113326E-04 delta_en =   0.221922E-03 tol =   0.100000E-04
 Iteration #         15
  pAp =    8.4446406201900477E-007  rzold =    3.5469758201823570E-007  alpha =   0.42002685249884936     
 delta_qm =   0.656649E-05 delta_en =   0.745093E-04 tol =   0.100000E-04
 Iteration #         16
  pAp =    2.5510942532202588E-007  rzold =    1.0527337783063678E-007  alpha =   0.41265969572762623     
 delta_qm =   0.386765E-05 delta_en =   0.258487E-04 tol =   0.100000E-04
 Iteration #         17
  pAp =    1.8465764085844502E-007  rzold =    5.0391263361803485E-008  alpha =   0.27289021525208618     
 delta_qm =   0.239819E-05 delta_en =   0.993830E-05 tol =   0.100000E-04
 Charges are converged, EXIT

%%%% DENSITY %%%%%%%%%%%%%%%%%%%%%%%%%%%%%%%%%%%%%%%%%%%%%%%%%%%%%%%%%%%%%%%%%%%
 density label              = velectrostatic                                                                  
 integral of density        =    -0.2775582233E-11

%%%% CHARGES %%%%%%%%%%%%%%%%%%%%%%%%%%%%%%%%%%%%%%%%%%%%%%%%%%%%%%%%%%%%%%%%%%%
 total number of charges    =         34
 total charge               =     -1.0000000

%%%% DENSITY %%%%%%%%%%%%%%%%%%%%%%%%%%%%%%%%%%%%%%%%%%%%%%%%%%%%%%%%%%%%%%%%%%%
 density label              = dvtot                                                                           
 integral of density        =    -0.2867449077E-12

%%%% ELECTRONS %%%%%%%%%%%%%%%%%%%%%%%%%%%%%%%%%%%%%%%%%%%%%%%%%%%%%%%%%%%%%%%%%
 number of electrons        =         24
 total electronic charge    =     24.0000000

%%%% ELECTRONS %%%%%%%%%%%%%%%%%%%%%%%%%%%%%%%%%%%%%%%%%%%%%%%%%%%%%%%%%%%%%%%%%
 number of electrons        =         24
 total electronic charge    =     24.0000000

%%%% DENSITY %%%%%%%%%%%%%%%%%%%%%%%%%%%%%%%%%%%%%%%%%%%%%%%%%%%%%%%%%%%%%%%%%%%
 density label              = vreference                                                                      
 integral of density        =    -0.6106489799E-11

%%%% COMPUTE ELECTROSTATIC POTENTIAL %%%%%%%%%%%%%%%%%%%%%%%%%%%%%%%%%%%%%%%%%%%
 Warning: bad guess with residual norm =   0.121941E+04, reset to no guess
 Iteration #          1
  pAp =    97.527627808376693       rzold =    93.654977279760672       alpha =   0.96029175921078436     
 delta_qm =   0.256673E-01 delta_en =   0.113842E+04 tol =   0.100000E-04
 Iteration #          2
  pAp =    404.55160763757476       rzold =    36.498581478049815       alpha =    9.0219840408464674E-002
 delta_qm =   0.369061E-02 delta_en =   0.235364E+02 tol =   0.100000E-04
 Iteration #          3
  pAp =    1.6472637890738628       rzold =   0.27746627623606190       alpha =   0.16844070638623163     
 delta_qm =   0.176809E-02 delta_en =   0.540200E+01 tol =   0.100000E-04
 Iteration #          4
  pAp =   0.27039072609654213       rzold =    3.9735224146899367E-002  alpha =   0.14695483354969813     
 delta_qm =   0.131704E-02 delta_en =   0.299738E+01 tol =   0.100000E-04
 Iteration #          5
  pAp =    1.8955969117206192E-002  rzold =    5.5585983558393412E-003  alpha =   0.29323736082656110     
 delta_qm =   0.862105E-03 delta_en =   0.128429E+01 tol =   0.100000E-04
 Iteration #          6
  pAp =    5.9022374064320940E-003  rzold =    2.2013732215081017E-003  alpha =   0.37297266611287211     
 delta_qm =   0.446913E-03 delta_en =   0.345135E+00 tol =   0.100000E-04
 Iteration #          7
  pAp =    2.1664408956050003E-003  rzold =    7.0729198764653994E-004  alpha =   0.32647647534784074     
 delta_qm =   0.295552E-03 delta_en =   0.150943E+00 tol =   0.100000E-04
 Iteration #          8
  pAp =    1.5577525334102868E-003  rzold =    3.7545872814522782E-004  alpha =   0.24102591399627535     
 delta_qm =   0.223494E-03 delta_en =   0.863127E-01 tol =   0.100000E-04
 Iteration #          9
  pAp =    4.8496750647691688E-004  rzold =    2.2034414147375077E-004  alpha =   0.45434825742132179     
 delta_qm =   0.132089E-03 delta_en =   0.301495E-01 tol =   0.100000E-04
 Iteration #         10
  pAp =    3.2292564781143498E-004  rzold =    1.2075261427467361E-004  alpha =   0.37393317964383033     
 delta_qm =   0.621696E-04 delta_en =   0.667883E-02 tol =   0.100000E-04
 Iteration #         11
  pAp =    7.6217927710837274E-005  rzold =    2.4815640992338230E-005  alpha =   0.32558797828361508     
 delta_qm =   0.444198E-04 delta_en =   0.340955E-02 tol =   0.100000E-04
 Iteration #         12
  pAp =    1.7328647561663757E-005  rzold =    5.6062845166108998E-006  alpha =   0.32352695134810794     
 delta_qm =   0.293185E-04 delta_en =   0.148535E-02 tol =   0.100000E-04
 Iteration #         13
  pAp =    4.0813452537997396E-006  rzold =    1.7202196839619040E-006  alpha =   0.42148350041211935     
 delta_qm =   0.181486E-04 delta_en =   0.569156E-03 tol =   0.100000E-04
 Iteration #         14
  pAp =    2.6095619484477353E-006  rzold =    1.0074092027167290E-006  alpha =   0.38604532968300431     
 delta_qm =   0.111886E-04 delta_en =   0.216319E-03 tol =   0.100000E-04
 Iteration #         15
  pAp =    8.4903365841160577E-007  rzold =    3.5559920782691540E-007  alpha =   0.41882816341130652     
 delta_qm =   0.638847E-05 delta_en =   0.705241E-04 tol =   0.100000E-04
 Iteration #         16
  pAp =    2.1564304330862002E-007  rzold =    9.7617053919592688E-008  alpha =   0.45267889203310363     
 delta_qm =   0.357273E-05 delta_en =   0.220569E-04 tol =   0.100000E-04
 Iteration #         17
  pAp =    7.3360117828447354E-008  rzold =    3.2451514190732181E-008  alpha =   0.44235907944722841     
 delta_qm =   0.183225E-05 delta_en =   0.580116E-05 tol =   0.100000E-04
 Charges are converged, EXIT

%%%% DENSITY %%%%%%%%%%%%%%%%%%%%%%%%%%%%%%%%%%%%%%%%%%%%%%%%%%%%%%%%%%%%%%%%%%%
 density label              = velectrostatic                                                                  
 integral of density        =     0.1355294477E-11

%%%% CHARGES %%%%%%%%%%%%%%%%%%%%%%%%%%%%%%%%%%%%%%%%%%%%%%%%%%%%%%%%%%%%%%%%%%%
 total number of charges    =         34
 total charge               =     -1.0000000

%%%% DENSITY %%%%%%%%%%%%%%%%%%%%%%%%%%%%%%%%%%%%%%%%%%%%%%%%%%%%%%%%%%%%%%%%%%%
 density label              = dvtot                                                                           
 integral of density        =     0.3382808437E-12

%%%% ELECTRONS %%%%%%%%%%%%%%%%%%%%%%%%%%%%%%%%%%%%%%%%%%%%%%%%%%%%%%%%%%%%%%%%%
 number of electrons        =         24
 total electronic charge    =     24.0000000

%%%% ELECTRONS %%%%%%%%%%%%%%%%%%%%%%%%%%%%%%%%%%%%%%%%%%%%%%%%%%%%%%%%%%%%%%%%%
 number of electrons        =         24
 total electronic charge    =     24.0000000

%%%% DENSITY %%%%%%%%%%%%%%%%%%%%%%%%%%%%%%%%%%%%%%%%%%%%%%%%%%%%%%%%%%%%%%%%%%%
 density label              = vreference                                                                      
 integral of density        =    -0.1400155712E-11

%%%% COMPUTE ELECTROSTATIC POTENTIAL %%%%%%%%%%%%%%%%%%%%%%%%%%%%%%%%%%%%%%%%%%%
 Warning: bad guess with residual norm =   0.120707E+04, reset to no guess
 Iteration #          1
  pAp =    97.488715276943822       rzold =    93.651333199210256       alpha =   0.96063767927567401     
 delta_qm =   0.255452E-01 delta_en =   0.112762E+04 tol =   0.100000E-04
 Iteration #          2
  pAp =    400.48460425062859       rzold =    36.139948562014894       alpha =    9.0240544027000935E-002
 delta_qm =   0.372561E-02 delta_en =   0.239849E+02 tol =   0.100000E-04
 Iteration #          3
  pAp =    1.6864813837501509       rzold =   0.28446275272306193       alpha =   0.16867233487660280     
 delta_qm =   0.177112E-02 delta_en =   0.542052E+01 tol =   0.100000E-04
 Iteration #          4
  pAp =   0.27549290112922747       rzold =    4.0371803613145719E-002  alpha =   0.14654389803753318     
 delta_qm =   0.131945E-02 delta_en =   0.300837E+01 tol =   0.100000E-04
 Iteration #          5
  pAp =    1.9408491496427857E-002  rzold =    5.6441452232050158E-003  alpha =   0.29080803236273278     
 delta_qm =   0.865925E-03 delta_en =   0.129570E+01 tol =   0.100000E-04
 Iteration #          6
  pAp =    5.8202002733117294E-003  rzold =    2.1990414549588962E-003  alpha =   0.37782917282803880     
 delta_qm =   0.446816E-03 delta_en =   0.344985E+00 tol =   0.100000E-04
 Iteration #          7
  pAp =    2.0148185833855285E-003  rzold =    6.9313174430323812E-004  alpha =   0.34401695022018258     
 delta_qm =   0.289948E-03 delta_en =   0.145272E+00 tol =   0.100000E-04
 Iteration #          8
  pAp =    1.3149655381917912E-003  rzold =    3.3652674460934675E-004  alpha =   0.25592058106108589     
 delta_qm =   0.220612E-03 delta_en =   0.841010E-01 tol =   0.100000E-04
 Iteration #          9
  pAp =    5.8013288667985304E-004  rzold =    2.3600550496263663E-004  alpha =   0.40681283613020980     
 delta_qm =   0.133181E-03 delta_en =   0.306498E-01 tol =   0.100000E-04
 Iteration #         10
  pAp =    3.3697518046257126E-004  rzold =    1.2402314491939518E-004  alpha =   0.36804830773930181     
 delta_qm =   0.624859E-04 delta_en =   0.674696E-02 tol =   0.100000E-04
 Iteration #         11
  pAp =    7.7224360435788263E-005  rzold =    2.5275650173071734E-005  alpha =   0.32730151509753624     
 delta_qm =   0.444376E-04 delta_en =   0.341228E-02 tol =   0.100000E-04
 Iteration #         12
  pAp =    1.7088800319293997E-005  rzold =    5.5836091031406599E-006  alpha =   0.32674084773736417     
 delta_qm =   0.292525E-04 delta_en =   0.147867E-02 tol =   0.100000E-04
 Iteration #         13
  pAp =    4.1181933950864089E-006  rzold =    1.7246683478836739E-006  alpha =   0.41879246126261310     
 delta_qm =   0.182277E-04 delta_en =   0.574125E-03 tol =   0.100000E-04
 Iteration #         14
  pAp =    2.6416814061630726E-006  rzold =    1.0143303192335426E-006  alpha =   0.38397148000780806     
 delta_qm =   0.111955E-04 delta_en =   0.216586E-03 tol =   0.100000E-04
 Iteration #         15
  pAp =    8.5367601707865432E-007  rzold =    3.5781952261545676E-007  alpha =   0.41915142918029136     
 delta_qm =   0.641857E-05 delta_en =   0.711902E-04 tol =   0.100000E-04
 Iteration #         16
  pAp =    2.1518345937384538E-007  rzold =    9.7825263634224329E-008  alpha =   0.45461330493934132     
 delta_qm =   0.357621E-05 delta_en =   0.220999E-04 tol =   0.100000E-04
 Iteration #         17
  pAp =    7.1035336385871274E-008  rzold =    3.2263399788618009E-008  alpha =   0.45418803415471837     
 delta_qm =   0.180121E-05 delta_en =   0.560626E-05 tol =   0.100000E-04
 Charges are converged, EXIT

%%%% DENSITY %%%%%%%%%%%%%%%%%%%%%%%%%%%%%%%%%%%%%%%%%%%%%%%%%%%%%%%%%%%%%%%%%%%
 density label              = velectrostatic                                                                  
 integral of density        =    -0.7655366053E-11

%%%% CHARGES %%%%%%%%%%%%%%%%%%%%%%%%%%%%%%%%%%%%%%%%%%%%%%%%%%%%%%%%%%%%%%%%%%%
 total number of charges    =         34
 total charge               =     -1.0000000

%%%% DENSITY %%%%%%%%%%%%%%%%%%%%%%%%%%%%%%%%%%%%%%%%%%%%%%%%%%%%%%%%%%%%%%%%%%%
 density label              = dvtot                                                                           
 integral of density        =    -0.7364808352E-12

%%%% ELECTRONS %%%%%%%%%%%%%%%%%%%%%%%%%%%%%%%%%%%%%%%%%%%%%%%%%%%%%%%%%%%%%%%%%
 number of electrons        =         24
 total electronic charge    =     24.0000000

%%%% ELECTRONS %%%%%%%%%%%%%%%%%%%%%%%%%%%%%%%%%%%%%%%%%%%%%%%%%%%%%%%%%%%%%%%%%
 number of electrons        =         24
 total electronic charge    =     24.0000000

%%%% DENSITY %%%%%%%%%%%%%%%%%%%%%%%%%%%%%%%%%%%%%%%%%%%%%%%%%%%%%%%%%%%%%%%%%%%
 density label              = vreference                                                                      
 integral of density        =     0.6067599098E-11

%%%% COMPUTE ELECTROSTATIC POTENTIAL %%%%%%%%%%%%%%%%%%%%%%%%%%%%%%%%%%%%%%%%%%%
 Warning: bad guess with residual norm =   0.119968E+04, reset to no guess
 Iteration #          1
  pAp =    97.455359265946839       rzold =    93.639108590306904       alpha =   0.96084103835453794     
 delta_qm =   0.254717E-01 delta_en =   0.112114E+04 tol =   0.100000E-04
 Iteration #          2
  pAp =    398.04828869554819       rzold =    35.922583510293023       alpha =    9.0246798015425775E-002
 delta_qm =   0.375415E-02 delta_en =   0.243538E+02 tol =   0.100000E-04
 Iteration #          3
  pAp =    1.7084492593624567       rzold =   0.28937696675285307       alpha =   0.16937990119814275     
 delta_qm =   0.177360E-02 delta_en =   0.543570E+01 tol =   0.100000E-04
 Iteration #          4
  pAp =   0.27965293697081767       rzold =    4.0864948872479087E-002  alpha =   0.14612737243214943     
 delta_qm =   0.132064E-02 delta_en =   0.301378E+01 tol =   0.100000E-04
 Iteration #          5
  pAp =    1.9725082627523201E-002  rzold =    5.7009544517299142E-003  alpha =   0.28902056125104097     
 delta_qm =   0.868643E-03 delta_en =   0.130384E+01 tol =   0.100000E-04
 Iteration #          6
  pAp =    5.8168362936751291E-003  rzold =    2.2038733117233909E-003  alpha =   0.37887834562573947     
 delta_qm =   0.448898E-03 delta_en =   0.348208E+00 tol =   0.100000E-04
 Iteration #          7
  pAp =    2.0054544198697621E-003  rzold =    6.9660201343193389E-004  alpha =   0.34735370025371731     
 delta_qm =   0.289628E-03 delta_en =   0.144952E+00 tol =   0.100000E-04
 Iteration #          8
  pAp =    1.2740354628089250E-003  rzold =    3.3090787160854876E-004  alpha =   0.25973207282549327     
 delta_qm =   0.220430E-03 delta_en =   0.839621E-01 tol =   0.100000E-04
 Iteration #          9
  pAp =    6.0310871795219865E-004  rzold =    2.3962893507291756E-004  alpha =   0.39732295014165281     
 delta_qm =   0.133798E-03 delta_en =   0.309345E-01 tol =   0.100000E-04
 Iteration #         10
  pAp =    3.3981618996140051E-004  rzold =    1.2512275147182953E-004  alpha =   0.36820715189009134     
 delta_qm =   0.626971E-04 delta_en =   0.679265E-02 tol =   0.100000E-04
 Iteration #         11
  pAp =    7.7920925842750907E-005  rzold =    2.5547151024430146E-005  alpha =   0.32785995222882525     
 delta_qm =   0.444994E-04 delta_en =   0.342179E-02 tol =   0.100000E-04
 Iteration #         12
  pAp =    1.7066636343397239E-005  rzold =    5.5921848250449240E-006  alpha =   0.32766766177732704     
 delta_qm =   0.292401E-04 delta_en =   0.147741E-02 tol =   0.100000E-04
 Iteration #         13
  pAp =    4.1130293255340702E-006  rzold =    1.7250877638306846E-006  alpha =   0.41942024413032475     
 delta_qm =   0.182619E-04 delta_en =   0.576281E-03 tol =   0.100000E-04
 Iteration #         14
  pAp =    2.6638445461621647E-006  rzold =    1.0173046583889638E-006  alpha =   0.38189340284687701     
 delta_qm =   0.112217E-04 delta_en =   0.217599E-03 tol =   0.100000E-04
 Iteration #         15
  pAp =    8.6562158821153015E-007  rzold =    3.6146702805318365E-007  alpha =   0.41758088404427907     
 delta_qm =   0.643952E-05 delta_en =   0.716558E-04 tol =   0.100000E-04
 Iteration #         16
  pAp =    2.1778133802589337E-007  rzold =    9.8767170793709214E-008  alpha =   0.45351530892865660     
 delta_qm =   0.359583E-05 delta_en =   0.223430E-04 tol =   0.100000E-04
 Iteration #         17
  pAp =    7.2028374785201033E-008  rzold =    3.2572252413704109E-008  alpha =   0.45221417963183602     
 delta_qm =   0.181550E-05 delta_en =   0.569558E-05 tol =   0.100000E-04
 Charges are converged, EXIT

%%%% DENSITY %%%%%%%%%%%%%%%%%%%%%%%%%%%%%%%%%%%%%%%%%%%%%%%%%%%%%%%%%%%%%%%%%%%
 density label              = velectrostatic                                                                  
 integral of density        =    -0.2443189683E-11

%%%% CHARGES %%%%%%%%%%%%%%%%%%%%%%%%%%%%%%%%%%%%%%%%%%%%%%%%%%%%%%%%%%%%%%%%%%%
 total number of charges    =         34
 total charge               =     -1.0000000

%%%% DENSITY %%%%%%%%%%%%%%%%%%%%%%%%%%%%%%%%%%%%%%%%%%%%%%%%%%%%%%%%%%%%%%%%%%%
 density label              = dvtot                                                                           
 integral of density        =     0.1653942415E-11

%%%% ELECTRONS %%%%%%%%%%%%%%%%%%%%%%%%%%%%%%%%%%%%%%%%%%%%%%%%%%%%%%%%%%%%%%%%%
 number of electrons        =         24
 total electronic charge    =     24.0000000

%%%% ELECTRONS %%%%%%%%%%%%%%%%%%%%%%%%%%%%%%%%%%%%%%%%%%%%%%%%%%%%%%%%%%%%%%%%%
 number of electrons        =         24
 total electronic charge    =     24.0000000

%%%% DENSITY %%%%%%%%%%%%%%%%%%%%%%%%%%%%%%%%%%%%%%%%%%%%%%%%%%%%%%%%%%%%%%%%%%%
 density label              = vreference                                                                      
 integral of density        =     0.5792395370E-11

%%%% COMPUTE ELECTROSTATIC POTENTIAL %%%%%%%%%%%%%%%%%%%%%%%%%%%%%%%%%%%%%%%%%%%
 Warning: bad guess with residual norm =   0.119520E+04, reset to no guess
 Iteration #          1
  pAp =    97.466206203412142       rzold =    93.663644564182633       alpha =   0.96098584537810416     
 delta_qm =   0.254273E-01 delta_en =   0.111724E+04 tol =   0.100000E-04
 Iteration #          2
  pAp =    396.63330768243338       rzold =    35.793825311349494       alpha =    9.0244123773911639E-002
 delta_qm =   0.375961E-02 delta_en =   0.244248E+02 tol =   0.100000E-04
 Iteration #          3
  pAp =    1.7122886334940037       rzold =   0.29021377387670827       alpha =   0.16948881642957223     
 delta_qm =   0.177403E-02 delta_en =   0.543830E+01 tol =   0.100000E-04
 Iteration #          4
  pAp =   0.28097534638838345       rzold =    4.1034152011862904E-002  alpha =   0.14604182373759822     
 delta_qm =   0.132024E-02 delta_en =   0.301198E+01 tol =   0.100000E-04
 Iteration #          5
  pAp =    1.9746088146533346E-002  rzold =    5.7036140974113967E-003  alpha =   0.28884779886960710     
 delta_qm =   0.868897E-03 delta_en =   0.130461E+01 tol =   0.100000E-04
 Iteration #          6
  pAp =    5.8228697076150920E-003  rzold =    2.2039082526701956E-003  alpha =   0.37849176837804666     
 delta_qm =   0.449868E-03 delta_en =   0.349714E+00 tol =   0.100000E-04
 Iteration #          7
  pAp =    2.0368243822163818E-003  rzold =    7.0156637458393140E-004  alpha =   0.34444126882481546     
 delta_qm =   0.291016E-03 delta_en =   0.146345E+00 tol =   0.100000E-04
 Iteration #          8
  pAp =    1.3320082723225625E-003  rzold =    3.3960850653273181E-004  alpha =   0.25495975782535635     
 delta_qm =   0.221532E-03 delta_en =   0.848040E-01 tol =   0.100000E-04
 Iteration #          9
  pAp =    5.8127856106742566E-004  rzold =    2.3658421573564365E-004  alpha =   0.40700660850314924     
 delta_qm =   0.133968E-03 delta_en =   0.310131E-01 tol =   0.100000E-04
 Iteration #         10
  pAp =    3.3739876272134304E-004  rzold =    1.2489784171606337E-004  alpha =   0.37017871882125497     
 delta_qm =   0.627230E-04 delta_en =   0.679825E-02 tol =   0.100000E-04
 Iteration #         11
  pAp =    7.8025499307363155E-005  rzold =    2.5586031241615816E-005  alpha =   0.32791884023485257     
 delta_qm =   0.445161E-04 delta_en =   0.342435E-02 tol =   0.100000E-04
 Iteration #         12
  pAp =    1.7078382935193458E-005  rzold =    5.5963748102994772E-006  alpha =   0.32768762894799697     
 delta_qm =   0.292403E-04 delta_en =   0.147744E-02 tol =   0.100000E-04
 Iteration #         13
  pAp =    4.1074039847888874E-006  rzold =    1.7245297981142784E-006  alpha =   0.41985882189840545     
 delta_qm =   0.182653E-04 delta_en =   0.576495E-03 tol =   0.100000E-04
 Iteration #         14
  pAp =    2.6670366174938691E-006  rzold =    1.0173431181681357E-006  alpha =   0.38145075005535589     
 delta_qm =   0.112285E-04 delta_en =   0.217867E-03 tol =   0.100000E-04
 Iteration #         15
  pAp =    8.7035524181847450E-007  rzold =    3.6276028389555493E-007  alpha =   0.41679565591817735     
 delta_qm =   0.644235E-05 delta_en =   0.717187E-04 tol =   0.100000E-04
 Iteration #         16
  pAp =    2.1969445775122576E-007  rzold =    9.9178983290892325E-008  alpha =   0.45144053384905641     
 delta_qm =   0.361033E-05 delta_en =   0.225236E-04 tol =   0.100000E-04
 Iteration #         17
  pAp =    7.6594825834469006E-008  rzold =    3.3242390527344865E-008  alpha =   0.43400308265189907     
 delta_qm =   0.186973E-05 delta_en =   0.604093E-05 tol =   0.100000E-04
 Charges are converged, EXIT

%%%% DENSITY %%%%%%%%%%%%%%%%%%%%%%%%%%%%%%%%%%%%%%%%%%%%%%%%%%%%%%%%%%%%%%%%%%%
 density label              = velectrostatic                                                                  
 integral of density        =     0.7371157183E-11

%%%% CHARGES %%%%%%%%%%%%%%%%%%%%%%%%%%%%%%%%%%%%%%%%%%%%%%%%%%%%%%%%%%%%%%%%%%%
 total number of charges    =         34
 total charge               =     -1.0000000

%%%% DENSITY %%%%%%%%%%%%%%%%%%%%%%%%%%%%%%%%%%%%%%%%%%%%%%%%%%%%%%%%%%%%%%%%%%%
 density label              = dvtot                                                                           
 integral of density        =     0.4881073940E-11

%%%% ELECTRONS %%%%%%%%%%%%%%%%%%%%%%%%%%%%%%%%%%%%%%%%%%%%%%%%%%%%%%%%%%%%%%%%%
 number of electrons        =         24
 total electronic charge    =     24.0000000

%%%% ELECTRONS %%%%%%%%%%%%%%%%%%%%%%%%%%%%%%%%%%%%%%%%%%%%%%%%%%%%%%%%%%%%%%%%%
 number of electrons        =         24
 total electronic charge    =     24.0000000

%%%% DENSITY %%%%%%%%%%%%%%%%%%%%%%%%%%%%%%%%%%%%%%%%%%%%%%%%%%%%%%%%%%%%%%%%%%%
 density label              = dvtot                                                                           
 integral of density        =     0.4881073940E-11

%%%% DENSITY %%%%%%%%%%%%%%%%%%%%%%%%%%%%%%%%%%%%%%%%%%%%%%%%%%%%%%%%%%%%%%%%%%%
 density label              = vreference                                                                      
 integral of density        =     0.5792395370E-11

%%%% DENSITY %%%%%%%%%%%%%%%%%%%%%%%%%%%%%%%%%%%%%%%%%%%%%%%%%%%%%%%%%%%%%%%%%%%
 density label              = velectrostatic                                                                  
 integral of density        =     0.7371157183E-11

%%%% CHARGES %%%%%%%%%%%%%%%%%%%%%%%%%%%%%%%%%%%%%%%%%%%%%%%%%%%%%%%%%%%%%%%%%%%
 total number of charges    =         34
 total charge               =     -1.0000000
