
     Program PWSCF v.7.0 starts on 22Apr2022 at 20:19: 8 

     This program is part of the open-source Quantum ESPRESSO suite
     for quantum simulation of materials; please cite
         "P. Giannozzi et al., J. Phys.:Condens. Matter 21 395502 (2009);
         "P. Giannozzi et al., J. Phys.:Condens. Matter 29 465901 (2017);
         "P. Giannozzi et al., J. Chem. Phys. 152 154105 (2020);
          URL http://www.quantum-espresso.org", 
     in publications or presentations arising from this work. More details at
     http://www.quantum-espresso.org/quote

     Parallel version (MPI), running on     1 processors

     MPI processes distributed on     1 nodes
     22878 MiB available memory on the printing compute node when the environment starts
 
     Reading input from charged.in

     Current dimensions of program PWSCF are:
     Max number of different atomic species (ntypx) = 10
     Max number of k-points (npk) =  40000
     Max angular momentum in pseudopotentials (lmaxx) =  4
 
     Reading input from environ.in:
     * using system solvent mode
     * setting boundary derivatives method to SCCS default
     
     file C.pbe-rrkjus.UPF: wavefunction(s)  2S 2P renormalized
     file H.pbe-rrkjus.UPF: wavefunction(s)  1S renormalized
     file N.pbe-rrkjus.UPF: wavefunction(s)  2S renormalized
     file O.pbe-rrkjus.UPF: wavefunction(s)  2S renormalized

     gamma-point specific algorithms are used

     Subspace diagonalization in iterative solution of the eigenvalue problem:
     a serial algorithm will be used

 
     G-vector sticks info
     --------------------
     sticks:   dense  smooth     PW     G-vecs:    dense   smooth      PW
     Sum        9549    3809    949               701475   177509   22119
 
     Using Slab Decomposition
 


     bravais-lattice index     =            1
     lattice parameter (alat)  =      20.0000  a.u.
     unit-cell volume          =    8000.0000 (a.u.)^3
     number of atoms/cell      =           10
     number of atomic types    =            4
     number of electrons       =        24.00
     number of Kohn-Sham states=           12
     kinetic-energy cutoff     =      30.0000  Ry
     charge density cutoff     =     300.0000  Ry
     scf convergence threshold =      5.0E-06
     mixing beta               =       0.7000
     number of iterations used =            8  plain     mixing
     Exchange-correlation= SLA  PW   PBE  PBE
                           (   1   4   3   4   0   0   0)

     ================================================================================
 
                                  Environ Setup Summary

     ================================================================================
 
     Please cite

          O. Andreussi, I. Dabo and N. Marzari, J. Chem. Phys. 136, 064102 (2012)

     in publications or presentations arising from this work.

     ================================================================================
 
     Parameters
     ==========

     compensation onset threshold      =               0.1000E+03
     static permittivity               =                   100.00

     Solvent Boundary
     ================

     solvent mode                      =                   system
     derivatives method                =                    chain
     numerical core for derivatives    =                      fft
     switching function adopted        =                     SCCS
     density limit for vacuum region   =               0.5000E-02
     density limit for bulk solvent    =               0.1000E-03

     Electrostatic Setup
     ===================

     electrostatic problem to solve    =              generalized
     numerical solver adopted          =                       cg
     type of auxiliary density adopted =                     none
     numerical core for poisson        =                      fft

     ================================================================================
 

     celldm(1)=  20.000000  celldm(2)=   0.000000  celldm(3)=   0.000000
     celldm(4)=   0.000000  celldm(5)=   0.000000  celldm(6)=   0.000000

     crystal axes: (cart. coord. in units of alat)
               a(1) = (   1.000000   0.000000   0.000000 )  
               a(2) = (   0.000000   1.000000   0.000000 )  
               a(3) = (   0.000000   0.000000   1.000000 )  

     reciprocal axes: (cart. coord. in units 2 pi/alat)
               b(1) = (  1.000000  0.000000  0.000000 )  
               b(2) = (  0.000000  1.000000  0.000000 )  
               b(3) = (  0.000000  0.000000  1.000000 )  


     PseudoPot. # 1 for C  read from file:
     MD5 check sum: c9ac5a99bc85b198593446162950cd17
     Pseudo is Ultrasoft, Zval =  4.0
     Generated by new atomic code, or converted to UPF format
     Using radial grid of  627 points,  4 beta functions with: 
                l(1) =   0
                l(2) =   0
                l(3) =   1
                l(4) =   1
     Q(r) pseudized with 0 coefficients 


     PseudoPot. # 2 for H  read from file:
     MD5 check sum: 2d52a7f45632fd764c17cc6affed14c8
     Pseudo is Ultrasoft, Zval =  1.0
     Generated by new atomic code, or converted to UPF format
     Using radial grid of 1061 points,  2 beta functions with: 
                l(1) =   0
                l(2) =   0
     Q(r) pseudized with 0 coefficients 


     PseudoPot. # 3 for N  read from file:
     MD5 check sum: 28c76d763763edb36c62a6ca2be9aebd
     Pseudo is Ultrasoft, Zval =  5.0
     Generated by new atomic code, or converted to UPF format
     Using radial grid of 1257 points,  4 beta functions with: 
                l(1) =   0
                l(2) =   0
                l(3) =   1
                l(4) =   1
     Q(r) pseudized with 0 coefficients 


     PseudoPot. # 4 for O  read from file:
     MD5 check sum: fadcf19ee70a498d3030e2e79cf929a4
     Pseudo is Ultrasoft, Zval =  6.0
     Generated by new atomic code, or converted to UPF format
     Using radial grid of 1269 points,  4 beta functions with: 
                l(1) =   0
                l(2) =   0
                l(3) =   1
                l(4) =   1
     Q(r) pseudized with 0 coefficients 


     atomic species   valence    mass     pseudopotential
        C              4.00    12.00000     C ( 1.00)
        H              1.00     1.00000     H ( 1.00)
        N              5.00    14.00000     N ( 1.00)
        O              6.00    16.00000     O ( 1.00)

     No symmetry found



   Cartesian axes

     site n.     atom                  positions (alat units)
         1           C   tau(   1) = (   0.0000000   0.0000000   0.0000000  )
         2           C   tau(   2) = (   0.0000000   0.0000000   0.1455089  )
         3           N   tau(   3) = (   0.1170969   0.0000000  -0.0545024  )
         4           H   tau(   4) = (   0.0476617  -0.0825466   0.1792090  )
         5           H   tau(   5) = (  -0.0953183  -0.0000030   0.1792090  )
         6           H   tau(   6) = (   0.0476566   0.0825496   0.1792090  )
         7           O   tau(   7) = (  -0.0984002  -0.0000019  -0.0641310  )
         8           H   tau(   8) = (   0.1263131  -0.0000015  -0.1475548  )
         9           H   tau(   9) = (   0.1944645   0.0000134  -0.0025716  )
        10           H   tau(  10) = (  -0.0770366  -0.0000045  -0.1522861  )

     number of k points=     1
                       cart. coord. in units 2pi/alat
        k(    1) = (   0.0000000   0.0000000   0.0000000), wk =   2.0000000

     Dense  grid:   350738 G-vectors     FFT dimensions: ( 120, 120, 120)

     Smooth grid:    88755 G-vectors     FFT dimensions: (  72,  72,  72)

     Estimated max dynamical RAM per process >     624.11 MB

     Initial potential from superposition of free atoms

     starting charge      24.4227, renormalised to      24.0000

     negative rho (up, down):  4.438E-04 0.000E+00
     Starting wfcs are   22 randomized atomic wfcs

     total cpu time spent up to now is        5.1 secs

     Self-consistent Calculation

     iteration #  1     ecut=    30.00 Ry     beta= 0.70
     Davidson diagonalization with overlap
     ethr =  1.00E-02,  avg # of iterations =  2.0

     negative rho (up, down):  1.234E-04 0.000E+00

     add environment contribution to local potential
     Polarization accuracy = 5.8E-06, # of iterations =  13

     total cpu time spent up to now is        9.1 secs

     total energy              =     -80.29562589 Ry
     estimated scf accuracy    <       3.64924908 Ry
     electrostatic embedding   =       0.00000000 Ry
     correction to one-el term =       0.00000000 Ry

     iteration #  2     ecut=    30.00 Ry     beta= 0.70
     Davidson diagonalization with overlap
     ethr =  1.00E-02,  avg # of iterations =  5.0

     negative rho (up, down):  6.379E-04 0.000E+00

     add environment contribution to local potential
     Polarization accuracy = 9.1E-06, # of iterations =  13

     total cpu time spent up to now is       12.2 secs

     total energy              =     -81.12101107 Ry
     estimated scf accuracy    <       1.33667701 Ry
     electrostatic embedding   =      -0.28379070 Ry
     correction to one-el term =      -5.08947931 Ry

     iteration #  3     ecut=    30.00 Ry     beta= 0.70
     Davidson diagonalization with overlap
     ethr =  5.57E-03,  avg # of iterations =  4.0

     negative rho (up, down):  2.867E-04 0.000E+00

     add environment contribution to local potential
     Polarization accuracy = 7.8E-06, # of iterations =  13

     total cpu time spent up to now is       15.5 secs

     total energy              =     -81.40049825 Ry
     estimated scf accuracy    <       0.16368955 Ry
     electrostatic embedding   =      -0.25040171 Ry
     correction to one-el term =      -4.65927139 Ry

     iteration #  4     ecut=    30.00 Ry     beta= 0.70
     Davidson diagonalization with overlap
     ethr =  6.82E-04,  avg # of iterations =  4.0

     negative rho (up, down):  7.332E-05 0.000E+00

     add environment contribution to local potential
     Polarization accuracy = 7.9E-06, # of iterations =  13

     total cpu time spent up to now is       19.4 secs

     total energy              =     -81.44547529 Ry
     estimated scf accuracy    <       0.01541565 Ry
     electrostatic embedding   =      -0.20476639 Ry
     correction to one-el term =      -4.27236426 Ry

     iteration #  5     ecut=    30.00 Ry     beta= 0.70
     Davidson diagonalization with overlap
     ethr =  6.42E-05,  avg # of iterations =  4.0

     negative rho (up, down):  7.952E-05 0.000E+00

     add environment contribution to local potential
     Polarization accuracy = 8.0E-06, # of iterations =  13

     total cpu time spent up to now is       22.7 secs

     total energy              =     -81.44908779 Ry
     estimated scf accuracy    <       0.00134034 Ry
     electrostatic embedding   =      -0.18427456 Ry
     correction to one-el term =      -3.95222868 Ry

     iteration #  6     ecut=    30.00 Ry     beta= 0.70
     Davidson diagonalization with overlap
     ethr =  5.58E-06,  avg # of iterations =  3.0

     negative rho (up, down):  1.127E-04 0.000E+00

     add environment contribution to local potential
     Polarization accuracy = 8.1E-06, # of iterations =  13

     total cpu time spent up to now is       25.6 secs

     total energy              =     -81.44947951 Ry
     estimated scf accuracy    <       0.00018116 Ry
     electrostatic embedding   =      -0.18221935 Ry
     correction to one-el term =      -3.91283948 Ry

     iteration #  7     ecut=    30.00 Ry     beta= 0.70
     Davidson diagonalization with overlap
     ethr =  7.55E-07,  avg # of iterations =  2.0

     negative rho (up, down):  2.564E-04 0.000E+00

     add environment contribution to local potential
     Polarization accuracy = 8.1E-06, # of iterations =  13

     total cpu time spent up to now is       28.8 secs

     total energy              =     -81.44952055 Ry
     estimated scf accuracy    <       0.00001031 Ry
     electrostatic embedding   =      -0.18159685 Ry
     correction to one-el term =      -3.89819438 Ry

     iteration #  8     ecut=    30.00 Ry     beta= 0.70
     Davidson diagonalization with overlap
     ethr =  4.30E-08,  avg # of iterations =  5.0

     negative rho (up, down):  2.776E-04 0.000E+00

     add environment contribution to local potential
     Polarization accuracy = 8.1E-06, # of iterations =  13

     total cpu time spent up to now is       32.8 secs

     total energy              =     -81.44953050 Ry
     estimated scf accuracy    <       0.00000695 Ry
     electrostatic embedding   =      -0.18106946 Ry
     correction to one-el term =      -3.88896520 Ry

     iteration #  9     ecut=    30.00 Ry     beta= 0.70
     Davidson diagonalization with overlap
     ethr =  2.90E-08,  avg # of iterations =  3.0

     negative rho (up, down):  2.715E-04 0.000E+00

     the potential shift due to the Gaussian-smeared nuclei is    -0.0668 ev

     total cpu time spent up to now is       34.5 secs

     End of self-consistent calculation

          k = 0.0000 0.0000 0.0000 ( 11060 PWs)   bands (ev):

   -29.2954 -23.1373 -18.4984 -16.1043 -14.6515 -13.3309 -11.8845 -10.9867
    -9.3516  -9.2823  -8.9993  -7.4782

     highest occupied level (ev):    -7.4782

!    total energy              =     -81.44952833 Ry
     estimated scf accuracy    <       0.00000036 Ry

     The total energy is the sum of the following terms:
     one-electron contribution =    -241.87046226 Ry
     hartree contribution      =     123.07356229 Ry
     xc contribution           =     -22.89102918 Ry
     ewald contribution        =      64.30784069 Ry
     electrostatic embedding   =      -0.18106566 Ry
     correction to one-el term =      -3.88837421 Ry

     convergence has been achieved in   9 iterations

     Forces acting on atoms (cartesian axes, Ry/au):

     atom    1 type  1   force =     0.23511263    0.00000131    0.11223525
     atom    2 type  1   force =    -0.04202883    0.00000126   -0.09273640
     atom    3 type  3   force =    -0.15711850   -0.00000086    0.03327777
     atom    4 type  2   force =     0.02772213   -0.05559319    0.05233388
     atom    5 type  2   force =    -0.07700856   -0.00000184    0.06705743
     atom    6 type  2   force =     0.02771943    0.05559669    0.05233798
     atom    7 type  4   force =    -0.11483667   -0.00000928   -0.03161386
     atom    8 type  2   force =     0.04458470    0.00000168   -0.11738585
     atom    9 type  2   force =     0.08937614    0.00000499    0.02755871
     atom   10 type  2   force =    -0.03352248   -0.00000077   -0.10306492

     Total force =     0.422026     Total SCF correction =     0.000687

 
     init_run     :      4.69s CPU      4.99s WALL (       1 calls)
     electrons    :     26.49s CPU     29.40s WALL (       1 calls)
     forces       :      1.49s CPU      1.65s WALL (       1 calls)

     Called by init_run:
     wfcinit      :      0.15s CPU      0.17s WALL (       1 calls)
     potinit      :      0.74s CPU      0.80s WALL (       1 calls)
     hinit0       :      3.18s CPU      3.22s WALL (       1 calls)

     Called by electrons:
     c_bands      :      1.82s CPU      1.93s WALL (       9 calls)
     sum_band     :      3.83s CPU      4.45s WALL (       9 calls)
     v_of_rho     :      4.18s CPU      4.73s WALL (      10 calls)
     newd         :      2.54s CPU      3.46s WALL (      10 calls)
     mix_rho      :      0.48s CPU      0.48s WALL (       9 calls)

     Called by c_bands:
     init_us_2    :      0.06s CPU      0.08s WALL (      19 calls)
     init_us_2:cp :      0.06s CPU      0.08s WALL (      19 calls)
     regterg      :      1.70s CPU      1.80s WALL (       9 calls)

     Called by *egterg:
     rdiaghg      :      0.01s CPU      0.01s WALL (      41 calls)
     h_psi        :      1.67s CPU      1.79s WALL (      42 calls)
     s_psi        :      0.04s CPU      0.04s WALL (      42 calls)
     g_psi        :      0.01s CPU      0.01s WALL (      32 calls)

     Called by h_psi:
     h_psi:calbec :      0.04s CPU      0.06s WALL (      42 calls)
     vloc_psi     :      1.58s CPU      1.68s WALL (      42 calls)
     add_vuspsi   :      0.04s CPU      0.04s WALL (      42 calls)

     General routines
     calbec       :      0.05s CPU      0.07s WALL (      55 calls)
     fft          :      1.99s CPU      2.06s WALL (     110 calls)
     ffts         :      0.06s CPU      0.06s WALL (      19 calls)
     fftw         :      1.32s CPU      1.40s WALL (     404 calls)
     interpolate  :      0.26s CPU      0.26s WALL (      10 calls)
 
     Parallel routines
 
     Environ routines
 
     PWSCF        :     32.80s CPU     36.19s WALL

 
   This run was terminated on:  20:19:44  22Apr2022            

=------------------------------------------------------------------------------=
   JOB DONE.
=------------------------------------------------------------------------------=

%%%% CELL %%%%%%%%%%%%%%%%%%%%%%%%%%%%%%%%%%%%%%%%%%%%%%%%%%%%%%%%%%%%%%%%%%%%%%

 cell label                 = system         

 cell volume                =    8000.000000

%%%% IONS %%%%%%%%%%%%%%%%%%%%%%%%%%%%%%%%%%%%%%%%%%%%%%%%%%%%%%%%%%%%%%%%%%%%%%

 total charge               =    -25.0000000
 center of charge           =      0.1036944    -0.0000075     0.0650154
 dipole                     =      0.0000000     0.0000000     0.0000000
 quadrupole (pc)            =    -79.2736207    -5.4513517  -105.9050187
 quadrupole (gauss)         =    -82.3986207    -8.5763517  -109.0300187

   i | type | coordinates
 -----------------------------------------------------------------------
   1 |    1 |                      0.0000000     0.0000000     0.0000000
   2 |    1 |                      0.0000000     0.0000000     2.9101782
   3 |    3 |                      2.3419379     0.0000000    -1.0900479
   4 |    2 |                      0.9532347    -1.6509323     3.5841800
   5 |    2 |                     -1.9063663    -0.0000596     3.5841809
   6 |    2 |                      0.9531315     1.6509919     3.5841800
   7 |    4 |                     -1.9680045    -0.0000375    -1.2826193
   8 |    2 |                      2.5262613    -0.0000303    -2.9510950
   9 |    2 |                      3.8892907     0.0002681    -0.0514326
  10 |    2 |                     -1.5407317    -0.0000890    -3.0457220

%%%% SYSTEM %%%%%%%%%%%%%%%%%%%%%%%%%%%%%%%%%%%%%%%%%%%%%%%%%%%%%%%%%%%%%%%%%%%%

 system is built from all present ionic types

 system defined dimension   =              0
 system defined axis        =              3

 system center              =      0.1036944    -0.0000075     0.0650154
 system width               =      4.0527608

%%%% IONS %%%%%%%%%%%%%%%%%%%%%%%%%%%%%%%%%%%%%%%%%%%%%%%%%%%%%%%%%%%%%%%%%%%%%%

 total charge               =    -25.0000000
 center of charge           =      0.1036944    -0.0000075     0.0650154
 dipole                     =      0.0000000     0.0000000     0.0000000
 quadrupole (pc)            =    -79.2736207    -5.4513517  -105.9050187
 quadrupole (gauss)         =    -82.3986207    -8.5763517  -109.0300187

   i | type | coordinates
 -----------------------------------------------------------------------
   1 |    1 |                      0.0000000     0.0000000     0.0000000
   2 |    1 |                      0.0000000     0.0000000     2.9101782
   3 |    3 |                      2.3419379     0.0000000    -1.0900479
   4 |    2 |                      0.9532347    -1.6509323     3.5841800
   5 |    2 |                     -1.9063663    -0.0000596     3.5841809
   6 |    2 |                      0.9531315     1.6509919     3.5841800
   7 |    4 |                     -1.9680045    -0.0000375    -1.2826193
   8 |    2 |                      2.5262613    -0.0000303    -2.9510950
   9 |    2 |                      3.8892907     0.0002681    -0.0514326
  10 |    2 |                     -1.5407317    -0.0000890    -3.0457220

%%%% SYSTEM %%%%%%%%%%%%%%%%%%%%%%%%%%%%%%%%%%%%%%%%%%%%%%%%%%%%%%%%%%%%%%%%%%%%

 system is built from all present ionic types

 system defined dimension   =              0
 system defined axis        =              3

 system center              =      0.1036944    -0.0000075     0.0650154
 system width               =      4.0527608

%%%% BOUNDARY %%%%%%%%%%%%%%%%%%%%%%%%%%%%%%%%%%%%%%%%%%%%%%%%%%%%%%%%%%%%%%%%%%

 boundary label             = solvent             
 boundary mode              = system              

 boundary is built as an analytic function centered on system position:
 center of the boundary     =      0.1036944    -0.0000075     0.0650154
 distance from the center   =      6.0000000
 spread of the interface    =      0.5000000
 dimensionality             =              0
 axis                       =              3

 volume of the QM region    =    914.2034622

 surface of the QM region   =    453.9601384

%%%% CHARGES %%%%%%%%%%%%%%%%%%%%%%%%%%%%%%%%%%%%%%%%%%%%%%%%%%%%%%%%%%%%%%%%%%%

 total number of charges    =             10

 total charge               =    -25.0000000

%%%% CHARGES %%%%%%%%%%%%%%%%%%%%%%%%%%%%%%%%%%%%%%%%%%%%%%%%%%%%%%%%%%%%%%%%%%%

 total number of charges    =             10

 total charge               =    -25.0000000

%%%% CELL %%%%%%%%%%%%%%%%%%%%%%%%%%%%%%%%%%%%%%%%%%%%%%%%%%%%%%%%%%%%%%%%%%%%%%

 cell label                 = system         

 cell volume                =    8000.000000

%%%% ELECTRONS %%%%%%%%%%%%%%%%%%%%%%%%%%%%%%%%%%%%%%%%%%%%%%%%%%%%%%%%%%%%%%%%%

 number of electrons        =             24

 total electronic charge    =     24.0000000

%%%% ELECTRONS %%%%%%%%%%%%%%%%%%%%%%%%%%%%%%%%%%%%%%%%%%%%%%%%%%%%%%%%%%%%%%%%%

 number of electrons        =             24

 total electronic charge    =     24.0000000

%%%% CHARGES %%%%%%%%%%%%%%%%%%%%%%%%%%%%%%%%%%%%%%%%%%%%%%%%%%%%%%%%%%%%%%%%%%%

 total number of charges    =             34

 total charge               =     -1.0000000

%%%% CHARGES %%%%%%%%%%%%%%%%%%%%%%%%%%%%%%%%%%%%%%%%%%%%%%%%%%%%%%%%%%%%%%%%%%%

 total number of charges    =             34

 total charge               =     -1.0000000

%%%% DENSITY %%%%%%%%%%%%%%%%%%%%%%%%%%%%%%%%%%%%%%%%%%%%%%%%%%%%%%%%%%%%%%%%%%%

 density label              = dvtot                                             

 integral of density        =    0.000000000    

%%%% DENSITY %%%%%%%%%%%%%%%%%%%%%%%%%%%%%%%%%%%%%%%%%%%%%%%%%%%%%%%%%%%%%%%%%%%

 density label              = vreference                                        

 integral of density        =    0.000000000    

%%%% DENSITY %%%%%%%%%%%%%%%%%%%%%%%%%%%%%%%%%%%%%%%%%%%%%%%%%%%%%%%%%%%%%%%%%%%

 density label              = velectrostatic                                    

 integral of density        =    0.000000000    

%%%% CHARGES %%%%%%%%%%%%%%%%%%%%%%%%%%%%%%%%%%%%%%%%%%%%%%%%%%%%%%%%%%%%%%%%%%%

 total number of charges    =             34

 total charge               =     -1.0000000

%%%% ELECTRONS %%%%%%%%%%%%%%%%%%%%%%%%%%%%%%%%%%%%%%%%%%%%%%%%%%%%%%%%%%%%%%%%%

 number of electrons        =             24

 total electronic charge    =     24.0000000

%%%% ELECTRONS %%%%%%%%%%%%%%%%%%%%%%%%%%%%%%%%%%%%%%%%%%%%%%%%%%%%%%%%%%%%%%%%%

 number of electrons        =             24

 total electronic charge    =     24.0000000

%%%% CHARGES %%%%%%%%%%%%%%%%%%%%%%%%%%%%%%%%%%%%%%%%%%%%%%%%%%%%%%%%%%%%%%%%%%%

 total number of charges    =             34

 total charge               =     -1.0000000

%%%% CHARGES %%%%%%%%%%%%%%%%%%%%%%%%%%%%%%%%%%%%%%%%%%%%%%%%%%%%%%%%%%%%%%%%%%%

 total number of charges    =             34

 total charge               =     -1.0000000

%%%% DENSITY %%%%%%%%%%%%%%%%%%%%%%%%%%%%%%%%%%%%%%%%%%%%%%%%%%%%%%%%%%%%%%%%%%%

 density label              = vreference                                        

 integral of density        =  -0.6883053798E-12

%%%% COMPUTE ELECTROSTATIC POTENTIAL %%%%%%%%%%%%%%%%%%%%%%%%%%%%%%%%%%%%%%%%%%%

   i |      alpha     |       pAp      |      rzold     |    delta_qm    |    delta_en    |       tol
 ---------------------------------------------------------------------------------------------------------
   1 |   0.954206E+00 |   0.937924E+02 |   0.894972E+02 |   0.219502E-01 |   0.832566E+03 |   0.100000E-04
   2 |   0.119486E+00 |   0.224994E+03 |   0.268835E+02 |   0.601791E-02 |   0.625799E+02 |   0.100000E-04
   3 |   0.198108E+00 |   0.462047E+01 |   0.915352E+00 |   0.255284E-02 |   0.112614E+02 |   0.100000E-04
   4 |   0.295145E+00 |   0.309708E+00 |   0.914089E-01 |   0.134805E-02 |   0.314017E+01 |   0.100000E-04
   5 |   0.208974E+00 |   0.631782E-01 |   0.132026E-01 |   0.973169E-03 |   0.163652E+01 |   0.100000E-04
   6 |   0.304172E+00 |   0.158974E-01 |   0.483552E-02 |   0.577956E-03 |   0.577210E+00 |   0.100000E-04
   7 |   0.446886E+00 |   0.259654E-02 |   0.116036E-02 |   0.306252E-03 |   0.162070E+00 |   0.100000E-04
   8 |   0.563122E+00 |   0.474769E-03 |   0.267353E-03 |   0.175967E-03 |   0.535064E-01 |   0.100000E-04
   9 |   0.643721E+00 |   0.169175E-03 |   0.108901E-03 |   0.719073E-04 |   0.893490E-02 |   0.100000E-04
  10 |   0.364446E+00 |   0.104054E-03 |   0.379220E-04 |   0.330539E-04 |   0.188794E-02 |   0.100000E-04
  11 |   0.283969E+00 |   0.399615E-04 |   0.113478E-04 |   0.150759E-04 |   0.392746E-03 |   0.100000E-04
  12 |   0.490557E+00 |   0.170837E-05 |   0.838051E-06 |   0.591972E-05 |   0.605544E-04 |   0.100000E-04
  13 |   0.570389E+00 |   0.189840E-06 |   0.108283E-06 |   0.183794E-05 |   0.583722E-05 |   0.100000E-04

 Charges are converged, EXIT

%%%% DENSITY %%%%%%%%%%%%%%%%%%%%%%%%%%%%%%%%%%%%%%%%%%%%%%%%%%%%%%%%%%%%%%%%%%%

 density label              = velectrostatic                                    

 integral of density        =   0.5886978148E-12

%%%% CHARGES %%%%%%%%%%%%%%%%%%%%%%%%%%%%%%%%%%%%%%%%%%%%%%%%%%%%%%%%%%%%%%%%%%%

 total number of charges    =             34

 total charge               =     -1.0000000

%%%% DENSITY %%%%%%%%%%%%%%%%%%%%%%%%%%%%%%%%%%%%%%%%%%%%%%%%%%%%%%%%%%%%%%%%%%%

 density label              = dvtot                                             

 integral of density        =   0.4259658470E-12

%%%% ELECTRONS %%%%%%%%%%%%%%%%%%%%%%%%%%%%%%%%%%%%%%%%%%%%%%%%%%%%%%%%%%%%%%%%%

 number of electrons        =             24

 total electronic charge    =     24.0000000

%%%% ELECTRONS %%%%%%%%%%%%%%%%%%%%%%%%%%%%%%%%%%%%%%%%%%%%%%%%%%%%%%%%%%%%%%%%%

 number of electrons        =             24

 total electronic charge    =     24.0000000

%%%% CHARGES %%%%%%%%%%%%%%%%%%%%%%%%%%%%%%%%%%%%%%%%%%%%%%%%%%%%%%%%%%%%%%%%%%%

 total number of charges    =             34

 total charge               =     -1.0000000

%%%% CHARGES %%%%%%%%%%%%%%%%%%%%%%%%%%%%%%%%%%%%%%%%%%%%%%%%%%%%%%%%%%%%%%%%%%%

 total number of charges    =             34

 total charge               =     -1.0000000

%%%% DENSITY %%%%%%%%%%%%%%%%%%%%%%%%%%%%%%%%%%%%%%%%%%%%%%%%%%%%%%%%%%%%%%%%%%%

 density label              = vreference                                        

 integral of density        =  -0.2789538148E-12

%%%% COMPUTE ELECTROSTATIC POTENTIAL %%%%%%%%%%%%%%%%%%%%%%%%%%%%%%%%%%%%%%%%%%%

 Warning: Bad guess with residual norm =   0.843683E+03, reset to no guess

   i |      alpha     |       pAp      |      rzold     |    delta_qm    |    delta_en    |       tol
 ---------------------------------------------------------------------------------------------------------
   1 |   0.958721E+00 |   0.969755E+02 |   0.929724E+02 |   0.213874E-01 |   0.790424E+03 |   0.100000E-04
   2 |   0.120626E+00 |   0.207258E+03 |   0.250007E+02 |   0.578786E-02 |   0.578868E+02 |   0.100000E-04
   3 |   0.189268E+00 |   0.468902E+01 |   0.887482E+00 |   0.240943E-02 |   0.100317E+02 |   0.100000E-04
   4 |   0.266718E+00 |   0.308007E+00 |   0.821510E-01 |   0.147497E-02 |   0.375931E+01 |   0.100000E-04
   5 |   0.189409E+00 |   0.107892E+00 |   0.204358E-01 |   0.997752E-03 |   0.172024E+01 |   0.100000E-04
   6 |   0.363470E+00 |   0.122375E-01 |   0.444795E-02 |   0.579543E-03 |   0.580383E+00 |   0.100000E-04
   7 |   0.464788E+00 |   0.241067E-02 |   0.112045E-02 |   0.306692E-03 |   0.162536E+00 |   0.100000E-04
   8 |   0.566225E+00 |   0.467815E-03 |   0.264889E-03 |   0.176727E-03 |   0.539695E-01 |   0.100000E-04
   9 |   0.553087E+00 |   0.212813E-03 |   0.117704E-03 |   0.828007E-04 |   0.118471E-01 |   0.100000E-04
  10 |   0.305290E+00 |   0.200304E-03 |   0.611507E-04 |   0.379828E-04 |   0.249297E-02 |   0.100000E-04
  11 |   0.389669E+00 |   0.291176E-04 |   0.113462E-04 |   0.146903E-04 |   0.372912E-03 |   0.100000E-04
  12 |   0.523675E+00 |   0.141001E-05 |   0.738386E-06 |   0.577229E-05 |   0.575758E-04 |   0.100000E-04
  13 |   0.581529E+00 |   0.181188E-06 |   0.105366E-06 |   0.228916E-05 |   0.905513E-05 |   0.100000E-04

 Charges are converged, EXIT

%%%% DENSITY %%%%%%%%%%%%%%%%%%%%%%%%%%%%%%%%%%%%%%%%%%%%%%%%%%%%%%%%%%%%%%%%%%%

 density label              = velectrostatic                                    

 integral of density        =  -0.1178974613E-12

%%%% CHARGES %%%%%%%%%%%%%%%%%%%%%%%%%%%%%%%%%%%%%%%%%%%%%%%%%%%%%%%%%%%%%%%%%%%

 total number of charges    =             34

 total charge               =     -1.0000000

%%%% DENSITY %%%%%%%%%%%%%%%%%%%%%%%%%%%%%%%%%%%%%%%%%%%%%%%%%%%%%%%%%%%%%%%%%%%

 density label              = dvtot                                             

 integral of density        =  -0.2053706999E-13

%%%% ELECTRONS %%%%%%%%%%%%%%%%%%%%%%%%%%%%%%%%%%%%%%%%%%%%%%%%%%%%%%%%%%%%%%%%%

 number of electrons        =             24

 total electronic charge    =     24.0000000

%%%% ELECTRONS %%%%%%%%%%%%%%%%%%%%%%%%%%%%%%%%%%%%%%%%%%%%%%%%%%%%%%%%%%%%%%%%%

 number of electrons        =             24

 total electronic charge    =     24.0000000

%%%% CHARGES %%%%%%%%%%%%%%%%%%%%%%%%%%%%%%%%%%%%%%%%%%%%%%%%%%%%%%%%%%%%%%%%%%%

 total number of charges    =             34

 total charge               =     -1.0000000

%%%% CHARGES %%%%%%%%%%%%%%%%%%%%%%%%%%%%%%%%%%%%%%%%%%%%%%%%%%%%%%%%%%%%%%%%%%%

 total number of charges    =             34

 total charge               =     -1.0000000

%%%% DENSITY %%%%%%%%%%%%%%%%%%%%%%%%%%%%%%%%%%%%%%%%%%%%%%%%%%%%%%%%%%%%%%%%%%%

 density label              = vreference                                        

 integral of density        =  -0.2822433645E-12

%%%% COMPUTE ELECTROSTATIC POTENTIAL %%%%%%%%%%%%%%%%%%%%%%%%%%%%%%%%%%%%%%%%%%%

 Warning: Bad guess with residual norm =   0.682893E+03, reset to no guess

   i |      alpha     |       pAp      |      rzold     |    delta_qm    |    delta_en    |       tol
 ---------------------------------------------------------------------------------------------------------
   1 |   0.966104E+00 |   0.970167E+02 |   0.937282E+02 |   0.193603E-01 |   0.647694E+03 |   0.100000E-04
   2 |   0.120146E+00 |   0.171795E+03 |   0.206405E+02 |   0.542873E-02 |   0.509261E+02 |   0.100000E-04
   3 |   0.189808E+00 |   0.407358E+01 |   0.773196E+00 |   0.229568E-02 |   0.910682E+01 |   0.100000E-04
   4 |   0.278396E+00 |   0.253664E+00 |   0.706188E-01 |   0.137280E-02 |   0.325658E+01 |   0.100000E-04
   5 |   0.192716E+00 |   0.816342E-01 |   0.157322E-01 |   0.960072E-03 |   0.159276E+01 |   0.100000E-04
   6 |   0.348184E+00 |   0.119145E-01 |   0.414844E-02 |   0.565048E-03 |   0.551715E+00 |   0.100000E-04
   7 |   0.467190E+00 |   0.222875E-02 |   0.104125E-02 |   0.300701E-03 |   0.156248E+00 |   0.100000E-04
   8 |   0.579020E+00 |   0.444691E-03 |   0.257485E-03 |   0.169036E-03 |   0.493745E-01 |   0.100000E-04
   9 |   0.593692E+00 |   0.184512E-03 |   0.109543E-03 |   0.709913E-04 |   0.870870E-02 |   0.100000E-04
  10 |   0.305379E+00 |   0.145900E-03 |   0.445549E-04 |   0.343372E-04 |   0.203739E-02 |   0.100000E-04
  11 |   0.347446E+00 |   0.299086E-04 |   0.103916E-04 |   0.140676E-04 |   0.341968E-03 |   0.100000E-04
  12 |   0.518705E+00 |   0.130961E-05 |   0.679301E-06 |   0.552718E-05 |   0.527899E-04 |   0.100000E-04
  13 |   0.579611E+00 |   0.161995E-06 |   0.938941E-07 |   0.212121E-05 |   0.777521E-05 |   0.100000E-04

 Charges are converged, EXIT

%%%% DENSITY %%%%%%%%%%%%%%%%%%%%%%%%%%%%%%%%%%%%%%%%%%%%%%%%%%%%%%%%%%%%%%%%%%%

 density label              = velectrostatic                                    

 integral of density        =  -0.4131016517E-12

%%%% CHARGES %%%%%%%%%%%%%%%%%%%%%%%%%%%%%%%%%%%%%%%%%%%%%%%%%%%%%%%%%%%%%%%%%%%

 total number of charges    =             34

 total charge               =     -1.0000000

%%%% DENSITY %%%%%%%%%%%%%%%%%%%%%%%%%%%%%%%%%%%%%%%%%%%%%%%%%%%%%%%%%%%%%%%%%%%

 density label              = dvtot                                             

 integral of density        =  -0.2827162373E-12

%%%% ELECTRONS %%%%%%%%%%%%%%%%%%%%%%%%%%%%%%%%%%%%%%%%%%%%%%%%%%%%%%%%%%%%%%%%%

 number of electrons        =             24

 total electronic charge    =     24.0000000

%%%% ELECTRONS %%%%%%%%%%%%%%%%%%%%%%%%%%%%%%%%%%%%%%%%%%%%%%%%%%%%%%%%%%%%%%%%%

 number of electrons        =             24

 total electronic charge    =     24.0000000

%%%% CHARGES %%%%%%%%%%%%%%%%%%%%%%%%%%%%%%%%%%%%%%%%%%%%%%%%%%%%%%%%%%%%%%%%%%%

 total number of charges    =             34

 total charge               =     -1.0000000

%%%% CHARGES %%%%%%%%%%%%%%%%%%%%%%%%%%%%%%%%%%%%%%%%%%%%%%%%%%%%%%%%%%%%%%%%%%%

 total number of charges    =             34

 total charge               =     -1.0000000

%%%% DENSITY %%%%%%%%%%%%%%%%%%%%%%%%%%%%%%%%%%%%%%%%%%%%%%%%%%%%%%%%%%%%%%%%%%%

 density label              = vreference                                        

 integral of density        =   0.9480482243E-12

%%%% COMPUTE ELECTROSTATIC POTENTIAL %%%%%%%%%%%%%%%%%%%%%%%%%%%%%%%%%%%%%%%%%%%

 Warning: Bad guess with residual norm =   0.599921E+03, reset to no guess

   i |      alpha     |       pAp      |      rzold     |    delta_qm    |    delta_en    |       tol
 ---------------------------------------------------------------------------------------------------------
   1 |   0.970001E+00 |   0.965371E+02 |   0.936411E+02 |   0.182035E-01 |   0.572604E+03 |   0.100000E-04
   2 |   0.120510E+00 |   0.149876E+03 |   0.180616E+02 |   0.522282E-02 |   0.471361E+02 |   0.100000E-04
   3 |   0.189944E+00 |   0.375470E+01 |   0.713183E+00 |   0.221636E-02 |   0.848838E+01 |   0.100000E-04
   4 |   0.273972E+00 |   0.248426E+00 |   0.680617E-01 |   0.133757E-02 |   0.309155E+01 |   0.100000E-04
   5 |   0.191126E+00 |   0.805427E-01 |   0.153938E-01 |   0.927706E-03 |   0.148718E+01 |   0.100000E-04
   6 |   0.353901E+00 |   0.109396E-01 |   0.387153E-02 |   0.547580E-03 |   0.518130E+00 |   0.100000E-04
   7 |   0.468589E+00 |   0.207854E-02 |   0.973981E-03 |   0.292851E-03 |   0.148196E+00 |   0.100000E-04
   8 |   0.573657E+00 |   0.427272E-03 |   0.245108E-03 |   0.165109E-03 |   0.471068E-01 |   0.100000E-04
   9 |   0.591283E+00 |   0.174625E-03 |   0.103253E-03 |   0.700517E-04 |   0.847970E-02 |   0.100000E-04
  10 |   0.306140E+00 |   0.140435E-03 |   0.429928E-04 |   0.337587E-04 |   0.196932E-02 |   0.100000E-04
  11 |   0.350272E+00 |   0.286223E-04 |   0.100256E-04 |   0.136978E-04 |   0.324225E-03 |   0.100000E-04
  12 |   0.517524E+00 |   0.126797E-05 |   0.656205E-06 |   0.542858E-05 |   0.509232E-04 |   0.100000E-04
  13 |   0.584247E+00 |   0.153764E-06 |   0.898359E-07 |   0.214023E-05 |   0.791529E-05 |   0.100000E-04

 Charges are converged, EXIT

%%%% DENSITY %%%%%%%%%%%%%%%%%%%%%%%%%%%%%%%%%%%%%%%%%%%%%%%%%%%%%%%%%%%%%%%%%%%

 density label              = velectrostatic                                    

 integral of density        =  -0.1144763297E-12

%%%% CHARGES %%%%%%%%%%%%%%%%%%%%%%%%%%%%%%%%%%%%%%%%%%%%%%%%%%%%%%%%%%%%%%%%%%%

 total number of charges    =             34

 total charge               =     -1.0000000

%%%% DENSITY %%%%%%%%%%%%%%%%%%%%%%%%%%%%%%%%%%%%%%%%%%%%%%%%%%%%%%%%%%%%%%%%%%%

 density label              = dvtot                                             

 integral of density        =   0.1887995932E-12

%%%% ELECTRONS %%%%%%%%%%%%%%%%%%%%%%%%%%%%%%%%%%%%%%%%%%%%%%%%%%%%%%%%%%%%%%%%%

 number of electrons        =             24

 total electronic charge    =     24.0000000

%%%% ELECTRONS %%%%%%%%%%%%%%%%%%%%%%%%%%%%%%%%%%%%%%%%%%%%%%%%%%%%%%%%%%%%%%%%%

 number of electrons        =             24

 total electronic charge    =     24.0000000

%%%% CHARGES %%%%%%%%%%%%%%%%%%%%%%%%%%%%%%%%%%%%%%%%%%%%%%%%%%%%%%%%%%%%%%%%%%%

 total number of charges    =             34

 total charge               =     -1.0000000

%%%% CHARGES %%%%%%%%%%%%%%%%%%%%%%%%%%%%%%%%%%%%%%%%%%%%%%%%%%%%%%%%%%%%%%%%%%%

 total number of charges    =             34

 total charge               =     -1.0000000

%%%% DENSITY %%%%%%%%%%%%%%%%%%%%%%%%%%%%%%%%%%%%%%%%%%%%%%%%%%%%%%%%%%%%%%%%%%%

 density label              = vreference                                        

 integral of density        =   0.1086867222E-12

%%%% COMPUTE ELECTROSTATIC POTENTIAL %%%%%%%%%%%%%%%%%%%%%%%%%%%%%%%%%%%%%%%%%%%

 Warning: Bad guess with residual norm =   0.588657E+03, reset to no guess

   i |      alpha     |       pAp      |      rzold     |    delta_qm    |    delta_en    |       tol
 ---------------------------------------------------------------------------------------------------------
   1 |   0.970511E+00 |   0.965070E+02 |   0.936611E+02 |   0.180394E-01 |   0.562325E+03 |   0.100000E-04
   2 |   0.120596E+00 |   0.146820E+03 |   0.177059E+02 |   0.521345E-02 |   0.469671E+02 |   0.100000E-04
   3 |   0.190126E+00 |   0.373661E+01 |   0.710424E+00 |   0.221282E-02 |   0.846127E+01 |   0.100000E-04
   4 |   0.275124E+00 |   0.247391E+00 |   0.680631E-01 |   0.132741E-02 |   0.304475E+01 |   0.100000E-04
   5 |   0.191471E+00 |   0.786812E-01 |   0.150652E-01 |   0.922384E-03 |   0.147017E+01 |   0.100000E-04
   6 |   0.350848E+00 |   0.110269E-01 |   0.386875E-02 |   0.545812E-03 |   0.514790E+00 |   0.100000E-04
   7 |   0.468159E+00 |   0.207043E-02 |   0.969290E-03 |   0.291918E-03 |   0.147254E+00 |   0.100000E-04
   8 |   0.573345E+00 |   0.424586E-03 |   0.243434E-03 |   0.164660E-03 |   0.468509E-01 |   0.100000E-04
   9 |   0.597976E+00 |   0.170231E-03 |   0.101794E-03 |   0.692201E-04 |   0.827958E-02 |   0.100000E-04
  10 |   0.309499E+00 |   0.133536E-03 |   0.413292E-04 |   0.334472E-04 |   0.193314E-02 |   0.100000E-04
  11 |   0.343627E+00 |   0.291695E-04 |   0.100235E-04 |   0.136895E-04 |   0.323830E-03 |   0.100000E-04
  12 |   0.516198E+00 |   0.127657E-05 |   0.658966E-06 |   0.544013E-05 |   0.511402E-04 |   0.100000E-04
  13 |   0.585045E+00 |   0.153771E-06 |   0.899631E-07 |   0.214925E-05 |   0.798208E-05 |   0.100000E-04

 Charges are converged, EXIT

%%%% DENSITY %%%%%%%%%%%%%%%%%%%%%%%%%%%%%%%%%%%%%%%%%%%%%%%%%%%%%%%%%%%%%%%%%%%

 density label              = velectrostatic                                    

 integral of density        =  -0.9112710586E-12

%%%% CHARGES %%%%%%%%%%%%%%%%%%%%%%%%%%%%%%%%%%%%%%%%%%%%%%%%%%%%%%%%%%%%%%%%%%%

 total number of charges    =             34

 total charge               =     -1.0000000

%%%% DENSITY %%%%%%%%%%%%%%%%%%%%%%%%%%%%%%%%%%%%%%%%%%%%%%%%%%%%%%%%%%%%%%%%%%%

 density label              = dvtot                                             

 integral of density        =  -0.8076913624E-12

%%%% ELECTRONS %%%%%%%%%%%%%%%%%%%%%%%%%%%%%%%%%%%%%%%%%%%%%%%%%%%%%%%%%%%%%%%%%

 number of electrons        =             24

 total electronic charge    =     24.0000000

%%%% ELECTRONS %%%%%%%%%%%%%%%%%%%%%%%%%%%%%%%%%%%%%%%%%%%%%%%%%%%%%%%%%%%%%%%%%

 number of electrons        =             24

 total electronic charge    =     24.0000000

%%%% CHARGES %%%%%%%%%%%%%%%%%%%%%%%%%%%%%%%%%%%%%%%%%%%%%%%%%%%%%%%%%%%%%%%%%%%

 total number of charges    =             34

 total charge               =     -1.0000000

%%%% CHARGES %%%%%%%%%%%%%%%%%%%%%%%%%%%%%%%%%%%%%%%%%%%%%%%%%%%%%%%%%%%%%%%%%%%

 total number of charges    =             34

 total charge               =     -1.0000000

%%%% DENSITY %%%%%%%%%%%%%%%%%%%%%%%%%%%%%%%%%%%%%%%%%%%%%%%%%%%%%%%%%%%%%%%%%%%

 density label              = vreference                                        

 integral of density        =  -0.1252660527E-12

%%%% COMPUTE ELECTROSTATIC POTENTIAL %%%%%%%%%%%%%%%%%%%%%%%%%%%%%%%%%%%%%%%%%%%

 Warning: Bad guess with residual norm =   0.586033E+03, reset to no guess

   i |      alpha     |       pAp      |      rzold     |    delta_qm    |    delta_en    |       tol
 ---------------------------------------------------------------------------------------------------------
   1 |   0.970620E+00 |   0.964827E+02 |   0.936480E+02 |   0.180008E-01 |   0.559924E+03 |   0.100000E-04
   2 |   0.120615E+00 |   0.146136E+03 |   0.176261E+02 |   0.521162E-02 |   0.469341E+02 |   0.100000E-04
   3 |   0.190210E+00 |   0.372968E+01 |   0.709421E+00 |   0.221416E-02 |   0.847153E+01 |   0.100000E-04
   4 |   0.275211E+00 |   0.247711E+00 |   0.681728E-01 |   0.132715E-02 |   0.304358E+01 |   0.100000E-04
   5 |   0.191467E+00 |   0.785397E-01 |   0.150377E-01 |   0.922591E-03 |   0.147083E+01 |   0.100000E-04
   6 |   0.350799E+00 |   0.110339E-01 |   0.387069E-02 |   0.546039E-03 |   0.515219E+00 |   0.100000E-04
   7 |   0.468095E+00 |   0.207205E-02 |   0.969915E-03 |   0.292078E-03 |   0.147415E+00 |   0.100000E-04
   8 |   0.573224E+00 |   0.425355E-03 |   0.243823E-03 |   0.164730E-03 |   0.468909E-01 |   0.100000E-04
   9 |   0.599134E+00 |   0.169974E-03 |   0.101837E-03 |   0.690810E-04 |   0.824634E-02 |   0.100000E-04
  10 |   0.310319E+00 |   0.132241E-03 |   0.410367E-04 |   0.333949E-04 |   0.192710E-02 |   0.100000E-04
  11 |   0.341988E+00 |   0.293475E-04 |   0.100365E-04 |   0.137048E-04 |   0.324555E-03 |   0.100000E-04
  12 |   0.515961E+00 |   0.128058E-05 |   0.660731E-06 |   0.545434E-05 |   0.514078E-04 |   0.100000E-04
  13 |   0.585612E+00 |   0.154098E-06 |   0.902415E-07 |   0.215982E-05 |   0.806079E-05 |   0.100000E-04

 Charges are converged, EXIT

%%%% DENSITY %%%%%%%%%%%%%%%%%%%%%%%%%%%%%%%%%%%%%%%%%%%%%%%%%%%%%%%%%%%%%%%%%%%

 density label              = velectrostatic                                    

 integral of density        =  -0.4639580901E-12

%%%% CHARGES %%%%%%%%%%%%%%%%%%%%%%%%%%%%%%%%%%%%%%%%%%%%%%%%%%%%%%%%%%%%%%%%%%%

 total number of charges    =             34

 total charge               =     -1.0000000

%%%% DENSITY %%%%%%%%%%%%%%%%%%%%%%%%%%%%%%%%%%%%%%%%%%%%%%%%%%%%%%%%%%%%%%%%%%%

 density label              = dvtot                                             

 integral of density        =   0.4618527782E-13

%%%% ELECTRONS %%%%%%%%%%%%%%%%%%%%%%%%%%%%%%%%%%%%%%%%%%%%%%%%%%%%%%%%%%%%%%%%%

 number of electrons        =             24

 total electronic charge    =     24.0000000

%%%% ELECTRONS %%%%%%%%%%%%%%%%%%%%%%%%%%%%%%%%%%%%%%%%%%%%%%%%%%%%%%%%%%%%%%%%%

 number of electrons        =             24

 total electronic charge    =     24.0000000

%%%% CHARGES %%%%%%%%%%%%%%%%%%%%%%%%%%%%%%%%%%%%%%%%%%%%%%%%%%%%%%%%%%%%%%%%%%%

 total number of charges    =             34

 total charge               =     -1.0000000

%%%% CHARGES %%%%%%%%%%%%%%%%%%%%%%%%%%%%%%%%%%%%%%%%%%%%%%%%%%%%%%%%%%%%%%%%%%%

 total number of charges    =             34

 total charge               =     -1.0000000

%%%% DENSITY %%%%%%%%%%%%%%%%%%%%%%%%%%%%%%%%%%%%%%%%%%%%%%%%%%%%%%%%%%%%%%%%%%%

 density label              = vreference                                        

 integral of density        =   0.1620432183E-12

%%%% COMPUTE ELECTROSTATIC POTENTIAL %%%%%%%%%%%%%%%%%%%%%%%%%%%%%%%%%%%%%%%%%%%

 Warning: Bad guess with residual norm =   0.584111E+03, reset to no guess

   i |      alpha     |       pAp      |      rzold     |    delta_qm    |    delta_en    |       tol
 ---------------------------------------------------------------------------------------------------------
   1 |   0.970708E+00 |   0.964858E+02 |   0.936596E+02 |   0.179726E-01 |   0.558171E+03 |   0.100000E-04
   2 |   0.120614E+00 |   0.145683E+03 |   0.175715E+02 |   0.520739E-02 |   0.468580E+02 |   0.100000E-04
   3 |   0.190273E+00 |   0.372016E+01 |   0.707848E+00 |   0.221375E-02 |   0.846837E+01 |   0.100000E-04
   4 |   0.275146E+00 |   0.247691E+00 |   0.681510E-01 |   0.132713E-02 |   0.304347E+01 |   0.100000E-04
   5 |   0.191477E+00 |   0.784594E-01 |   0.150232E-01 |   0.922628E-03 |   0.147095E+01 |   0.100000E-04
   6 |   0.350890E+00 |   0.110256E-01 |   0.386878E-02 |   0.546155E-03 |   0.515436E+00 |   0.100000E-04
   7 |   0.468139E+00 |   0.207178E-02 |   0.969881E-03 |   0.292159E-03 |   0.147496E+00 |   0.100000E-04
   8 |   0.573239E+00 |   0.425748E-03 |   0.244055E-03 |   0.164735E-03 |   0.468936E-01 |   0.100000E-04
   9 |   0.599318E+00 |   0.170029E-03 |   0.101901E-03 |   0.690202E-04 |   0.823182E-02 |   0.100000E-04
  10 |   0.310534E+00 |   0.131838E-03 |   0.409402E-04 |   0.333695E-04 |   0.192417E-02 |   0.100000E-04
  11 |   0.341481E+00 |   0.293872E-04 |   0.100352E-04 |   0.137072E-04 |   0.324669E-03 |   0.100000E-04
  12 |   0.515919E+00 |   0.128118E-05 |   0.660983E-06 |   0.545945E-05 |   0.515040E-04 |   0.100000E-04
  13 |   0.585927E+00 |   0.154131E-06 |   0.903098E-07 |   0.216539E-05 |   0.810248E-05 |   0.100000E-04

 Charges are converged, EXIT

%%%% DENSITY %%%%%%%%%%%%%%%%%%%%%%%%%%%%%%%%%%%%%%%%%%%%%%%%%%%%%%%%%%%%%%%%%%%

 density label              = velectrostatic                                    

 integral of density        =  -0.5835661172E-13

%%%% CHARGES %%%%%%%%%%%%%%%%%%%%%%%%%%%%%%%%%%%%%%%%%%%%%%%%%%%%%%%%%%%%%%%%%%%

 total number of charges    =             34

 total charge               =     -1.0000000

%%%% DENSITY %%%%%%%%%%%%%%%%%%%%%%%%%%%%%%%%%%%%%%%%%%%%%%%%%%%%%%%%%%%%%%%%%%%

 density label              = dvtot                                             

 integral of density        =  -0.1416562341E-13

%%%% ELECTRONS %%%%%%%%%%%%%%%%%%%%%%%%%%%%%%%%%%%%%%%%%%%%%%%%%%%%%%%%%%%%%%%%%

 number of electrons        =             24

 total electronic charge    =     24.0000000

%%%% ELECTRONS %%%%%%%%%%%%%%%%%%%%%%%%%%%%%%%%%%%%%%%%%%%%%%%%%%%%%%%%%%%%%%%%%

 number of electrons        =             24

 total electronic charge    =     24.0000000

%%%% CHARGES %%%%%%%%%%%%%%%%%%%%%%%%%%%%%%%%%%%%%%%%%%%%%%%%%%%%%%%%%%%%%%%%%%%

 total number of charges    =             34

 total charge               =     -1.0000000

%%%% CHARGES %%%%%%%%%%%%%%%%%%%%%%%%%%%%%%%%%%%%%%%%%%%%%%%%%%%%%%%%%%%%%%%%%%%

 total number of charges    =             34

 total charge               =     -1.0000000

%%%% DENSITY %%%%%%%%%%%%%%%%%%%%%%%%%%%%%%%%%%%%%%%%%%%%%%%%%%%%%%%%%%%%%%%%%%%

 density label              = vreference                                        

 integral of density        =   0.1633590382E-12

%%%% COMPUTE ELECTROSTATIC POTENTIAL %%%%%%%%%%%%%%%%%%%%%%%%%%%%%%%%%%%%%%%%%%%

 Warning: Bad guess with residual norm =   0.584069E+03, reset to no guess

   i |      alpha     |       pAp      |      rzold     |    delta_qm    |    delta_en    |       tol
 ---------------------------------------------------------------------------------------------------------
   1 |   0.970711E+00 |   0.964841E+02 |   0.936582E+02 |   0.179720E-01 |   0.558133E+03 |   0.100000E-04
   2 |   0.120617E+00 |   0.145659E+03 |   0.175689E+02 |   0.520696E-02 |   0.468503E+02 |   0.100000E-04
   3 |   0.190266E+00 |   0.372007E+01 |   0.707802E+00 |   0.221338E-02 |   0.846553E+01 |   0.100000E-04
   4 |   0.275082E+00 |   0.247733E+00 |   0.681469E-01 |   0.132718E-02 |   0.304372E+01 |   0.100000E-04
   5 |   0.191466E+00 |   0.785075E-01 |   0.150315E-01 |   0.922477E-03 |   0.147047E+01 |   0.100000E-04
   6 |   0.350938E+00 |   0.110218E-01 |   0.386796E-02 |   0.546063E-03 |   0.515264E+00 |   0.100000E-04
   7 |   0.468136E+00 |   0.207125E-02 |   0.969629E-03 |   0.292108E-03 |   0.147445E+00 |   0.100000E-04
   8 |   0.573231E+00 |   0.425567E-03 |   0.243948E-03 |   0.164717E-03 |   0.468838E-01 |   0.100000E-04
   9 |   0.599271E+00 |   0.169974E-03 |   0.101861E-03 |   0.690319E-04 |   0.823463E-02 |   0.100000E-04
  10 |   0.310480E+00 |   0.131921E-03 |   0.409589E-04 |   0.333749E-04 |   0.192479E-02 |   0.100000E-04
  11 |   0.341625E+00 |   0.293719E-04 |   0.100342E-04 |   0.137068E-04 |   0.324651E-03 |   0.100000E-04
  12 |   0.515968E+00 |   0.128095E-05 |   0.660929E-06 |   0.546011E-05 |   0.515165E-04 |   0.100000E-04
  13 |   0.586018E+00 |   0.154143E-06 |   0.903305E-07 |   0.216732E-05 |   0.811692E-05 |   0.100000E-04

 Charges are converged, EXIT

%%%% DENSITY %%%%%%%%%%%%%%%%%%%%%%%%%%%%%%%%%%%%%%%%%%%%%%%%%%%%%%%%%%%%%%%%%%%

 density label              = velectrostatic                                    

 integral of density        =  -0.6454096516E-13

%%%% CHARGES %%%%%%%%%%%%%%%%%%%%%%%%%%%%%%%%%%%%%%%%%%%%%%%%%%%%%%%%%%%%%%%%%%%

 total number of charges    =             34

 total charge               =     -1.0000000

%%%% DENSITY %%%%%%%%%%%%%%%%%%%%%%%%%%%%%%%%%%%%%%%%%%%%%%%%%%%%%%%%%%%%%%%%%%%

 density label              = dvtot                                             

 integral of density        =   0.4370763011E-12

%%%% ELECTRONS %%%%%%%%%%%%%%%%%%%%%%%%%%%%%%%%%%%%%%%%%%%%%%%%%%%%%%%%%%%%%%%%%

 number of electrons        =             24

 total electronic charge    =     24.0000000

%%%% ELECTRONS %%%%%%%%%%%%%%%%%%%%%%%%%%%%%%%%%%%%%%%%%%%%%%%%%%%%%%%%%%%%%%%%%

 number of electrons        =             24

 total electronic charge    =     24.0000000

%%%% CHARGES %%%%%%%%%%%%%%%%%%%%%%%%%%%%%%%%%%%%%%%%%%%%%%%%%%%%%%%%%%%%%%%%%%%

 total number of charges    =             34

 total charge               =     -1.0000000

%%%% CHARGES %%%%%%%%%%%%%%%%%%%%%%%%%%%%%%%%%%%%%%%%%%%%%%%%%%%%%%%%%%%%%%%%%%%

 total number of charges    =             34

 total charge               =     -1.0000000

%%%% DENSITY %%%%%%%%%%%%%%%%%%%%%%%%%%%%%%%%%%%%%%%%%%%%%%%%%%%%%%%%%%%%%%%%%%%

 density label              = dvtot                                             

 integral of density        =   0.4370763011E-12

%%%% DENSITY %%%%%%%%%%%%%%%%%%%%%%%%%%%%%%%%%%%%%%%%%%%%%%%%%%%%%%%%%%%%%%%%%%%

 density label              = vreference                                        

 integral of density        =   0.1633590382E-12

%%%% DENSITY %%%%%%%%%%%%%%%%%%%%%%%%%%%%%%%%%%%%%%%%%%%%%%%%%%%%%%%%%%%%%%%%%%%

 density label              = velectrostatic                                    

 integral of density        =  -0.6454096516E-13

%%%% CHARGES %%%%%%%%%%%%%%%%%%%%%%%%%%%%%%%%%%%%%%%%%%%%%%%%%%%%%%%%%%%%%%%%%%%

 total number of charges    =             34

 total charge               =     -1.0000000
