
     Program PWSCF v.6.3MaX starts on 21Apr2019 at 23:18:23 

     This program is part of the open-source Quantum ESPRESSO suite
     for quantum simulation of materials; please cite
         "P. Giannozzi et al., J. Phys.:Condens. Matter 21 395502 (2009);
         "P. Giannozzi et al., J. Phys.:Condens. Matter 29 465901 (2017);
          URL http://www.quantum-espresso.org", 
     in publications or presentations arising from this work. More details at
     http://www.quantum-espresso.org/quote

     Parallel version (MPI), running on     1 processors

     MPI processes distributed on     1 nodes
     Reading input from neutral.in

     Current dimensions of program PWSCF are:
     Max number of different atomic species (ntypx) = 10
     Max number of k-points (npk) =  40000
     Max angular momentum in pseudopotentials (lmaxx) =  3
               file H.pbe-rrkjus.UPF: wavefunction(s)  1S renormalized
               file O.pbe-rrkjus.UPF: wavefunction(s)  2S renormalized

     gamma-point specific algorithms are used

     Subspace diagonalization in iterative solution of the eigenvalue problem:
     a serial algorithm will be used

 
     G-vector sticks info
     --------------------
     sticks:   dense  smooth     PW     G-vecs:    dense   smooth      PW
     Sum        9549    3809    949               701475   177509   22119
 


     bravais-lattice index     =            1
     lattice parameter (alat)  =      20.0000  a.u.
     unit-cell volume          =    8000.0000 (a.u.)^3
     number of atoms/cell      =            3
     number of atomic types    =            2
     number of electrons       =         8.00
     number of Kohn-Sham states=            4
     kinetic-energy cutoff     =      30.0000  Ry
     charge density cutoff     =     300.0000  Ry
     convergence threshold     =      5.0E-03
     mixing beta               =       0.7000
     number of iterations used =            8  plain     mixing
     Exchange-correlation      = SLA PW PBE PBE ( 1  4  3  4 0 0)
 

     Environ Module
     ==============

     Plese cite
         O. Andreussi, I. Dabo and N. Marzari, J. Chem. Phys. 136, 064102 (2012)         
     in publications or presentations arising from this work.

     compensation onset threshold      =               0.1000E+03 
     static permittivity               =                   100.00 
     epsilon calculation mode          =                   system 

     Electrostatic Setup
     -------------------
     electrostatic problem to solve    = generalized              
     numerical solver adopted          = iterative                
     type of auxiliary density adopted = full                     
     type of core tool for poisson     = fft                      
     type of core tool for s(r) deriv  = analytic                 



     celldm(1)=  20.000000  celldm(2)=   0.000000  celldm(3)=   0.000000
     celldm(4)=   0.000000  celldm(5)=   0.000000  celldm(6)=   0.000000

     crystal axes: (cart. coord. in units of alat)
               a(1) = (   1.000000   0.000000   0.000000 )  
               a(2) = (   0.000000   1.000000   0.000000 )  
               a(3) = (   0.000000   0.000000   1.000000 )  

     reciprocal axes: (cart. coord. in units 2 pi/alat)
               b(1) = (  1.000000  0.000000  0.000000 )  
               b(2) = (  0.000000  1.000000  0.000000 )  
               b(3) = (  0.000000  0.000000  1.000000 )  


     PseudoPot. # 1 for H  read from file:
     /home/fnattino/Programs/quantumespresso/q-e-qe-6.3-develop/Environ/tests/../..//pseudo/H.pbe-rrkjus.UPF
     MD5 check sum: 2d52a7f45632fd764c17cc6affed14c8
     Pseudo is Ultrasoft, Zval =  1.0
     Generated by new atomic code, or converted to UPF format
     Using radial grid of 1061 points,  2 beta functions with: 
                l(1) =   0
                l(2) =   0
     Q(r) pseudized with 0 coefficients 


     PseudoPot. # 2 for O  read from file:
     /home/fnattino/Programs/quantumespresso/q-e-qe-6.3-develop/Environ/tests/../..//pseudo/O.pbe-rrkjus.UPF
     MD5 check sum: fadcf19ee70a498d3030e2e79cf929a4
     Pseudo is Ultrasoft, Zval =  6.0
     Generated by new atomic code, or converted to UPF format
     Using radial grid of 1269 points,  4 beta functions with: 
                l(1) =   0
                l(2) =   0
                l(3) =   1
                l(4) =   1
     Q(r) pseudized with 0 coefficients 


     atomic species   valence    mass     pseudopotential
        H              1.00     1.00000     H ( 1.00)
        O              6.00    16.00000     O ( 1.00)

     No symmetry found



   Cartesian axes

     site n.     atom                  positions (alat units)
         1           O   tau(   1) = (   0.5895000   0.6025000   0.5750000  )
         2           H   tau(   2) = (   0.6725000   0.5610000   0.5750000  )
         3           H   tau(   3) = (   0.5280000   0.5330000   0.5750000  )

     number of k points=     1
                       cart. coord. in units 2pi/alat
        k(    1) = (   0.0000000   0.0000000   0.0000000), wk =   2.0000000

     Dense  grid:   350738 G-vectors     FFT dimensions: ( 120, 120, 120)

     Smooth grid:    88755 G-vectors     FFT dimensions: (  72,  72,  72)

     Estimated max dynamical RAM per process >     548.70 MB

     Initial potential from superposition of free atoms
     Check: negative starting charge=   -0.000775

     starting charge    7.80759, renormalised to    8.00000

     negative rho (up, down):  7.936E-04 0.000E+00
     Starting wfcs are    6 randomized atomic wfcs

     total cpu time spent up to now is        3.0 secs

     Self-consistent Calculation

     iteration #  1     ecut=    30.00 Ry     beta= 0.70
     Davidson diagonalization with overlap
     ethr =  1.00E-02,  avg # of iterations =  2.0

     negative rho (up, down):  2.595E-04 0.000E+00

     add environment contribution to local potential
     polarization accuracy = 7.5E-06, # of iterations =  17

     total cpu time spent up to now is        7.3 secs

     total energy              =     -34.06237118 Ry
     Harris-Foulkes estimate   =     -34.58698941 Ry
     estimated scf accuracy    <       0.68459185 Ry
     electrostatic embedding   =       0.00000000 Ry
     correction to one-el term =       0.00000000 Ry

     iteration #  2     ecut=    30.00 Ry     beta= 0.70
     Davidson diagonalization with overlap
     ethr =  8.56E-03,  avg # of iterations =  2.0

     negative rho (up, down):  2.903E-03 0.000E+00

     add environment contribution to local potential
     polarization accuracy = 3.7E-06, # of iterations =  11

     total cpu time spent up to now is       10.7 secs

     total energy              =     -34.64919218 Ry
     Harris-Foulkes estimate   =     -32.48778507 Ry
     estimated scf accuracy    <       0.41991902 Ry
     electrostatic embedding   =      -0.48357714 Ry
     correction to one-el term =      -1.88728842 Ry

     iteration #  3     ecut=    30.00 Ry     beta= 0.70
     Davidson diagonalization with overlap
     ethr =  5.25E-03,  avg # of iterations =  2.0

     negative rho (up, down):  4.962E-04 0.000E+00

     add environment contribution to local potential
     polarization accuracy = 3.4E-06, # of iterations =  12

     total cpu time spent up to now is       14.1 secs

     total energy              =     -34.75181589 Ry
     Harris-Foulkes estimate   =     -32.17552813 Ry
     estimated scf accuracy    <       0.02216729 Ry
     electrostatic embedding   =      -0.53542484 Ry
     correction to one-el term =      -2.05160118 Ry

     iteration #  4     ecut=    30.00 Ry     beta= 0.70
     Davidson diagonalization with overlap
     ethr =  2.77E-04,  avg # of iterations =  1.0

     negative rho (up, down):  1.646E-04 0.000E+00

     the potential shift due to the Gaussian-smeared nuclei is    -0.0214 ev

     total cpu time spent up to now is       15.0 secs

     End of self-consistent calculation

          k = 0.0000 0.0000 0.0000 ( 11060 PWs)   bands (ev):

   -22.3942  -9.4606  -7.4424  -5.9250

     highest occupied level (ev):    -5.9250

!    total energy              =     -34.76323413 Ry
     Harris-Foulkes estimate   =     -32.50644053 Ry
     estimated scf accuracy    <       0.00272624 Ry

     The total energy is the sum of the following terms:

     one-electron contribution =     -61.95636299 Ry
     hartree contribution      =      33.20062553 Ry
     xc contribution           =      -8.30665684 Ry
     ewald contribution        =       4.55735774 Ry
     electrostatic embedding   =      -0.58208377 Ry
     correction to one-el term =      -1.67611379 Ry

     convergence has been achieved in   4 iterations

     Forces acting on atoms (cartesian axes, Ry/au):

     atom    1 type  2   force =    -0.06172201    0.31758844    0.00000131
     atom    2 type  1   force =     0.72742188   -0.02384028   -0.00000234
     atom    3 type  1   force =    -0.66569988   -0.29374816    0.00000102

     Total force =     1.078808     Total SCF correction =     0.100348

     Writing output data file pwscf.save/
 
     init_run     :      2.30s CPU      2.63s WALL (       1 calls)
     electrons    :     10.56s CPU     12.04s WALL (       1 calls)
     forces       :      0.51s CPU      0.66s WALL (       1 calls)

     Called by init_run:
     wfcinit      :      0.04s CPU      0.04s WALL (       1 calls)
     potinit      :      0.74s CPU      0.83s WALL (       1 calls)
     hinit0       :      1.27s CPU      1.34s WALL (       1 calls)

     Called by electrons:
     c_bands      :      0.26s CPU      0.26s WALL (       4 calls)
     sum_band     :      0.70s CPU      0.92s WALL (       4 calls)
     v_of_rho     :      2.22s CPU      2.44s WALL (       5 calls)
     newd         :      0.60s CPU      0.94s WALL (       5 calls)
     mix_rho      :      0.17s CPU      0.17s WALL (       4 calls)

     Called by c_bands:
     init_us_2    :      0.02s CPU      0.02s WALL (       9 calls)
     regterg      :      0.24s CPU      0.24s WALL (       4 calls)

     Called by sum_band:
     sum_band:bec :      0.00s CPU      0.00s WALL (       4 calls)
     addusdens    :      0.51s CPU      0.73s WALL (       4 calls)

     Called by *egterg:
     h_psi        :      0.26s CPU      0.26s WALL (      12 calls)
     s_psi        :      0.00s CPU      0.00s WALL (      12 calls)
     g_psi        :      0.00s CPU      0.00s WALL (       7 calls)
     rdiaghg      :      0.00s CPU      0.00s WALL (      11 calls)

     Called by h_psi:
     h_psi:pot    :      0.25s CPU      0.26s WALL (      12 calls)
     h_psi:calbec :      0.00s CPU      0.00s WALL (      12 calls)
     vloc_psi     :      0.25s CPU      0.25s WALL (      12 calls)
     add_vuspsi   :      0.00s CPU      0.00s WALL (      12 calls)

     General routines
     calbec       :      0.00s CPU      0.00s WALL (      20 calls)
     fft          :      4.31s CPU      4.32s WALL (     245 calls)
     ffts         :      0.03s CPU      0.03s WALL (       9 calls)
     fftw         :      0.24s CPU      0.23s WALL (      58 calls)
     interpolate  :      0.14s CPU      0.15s WALL (       5 calls)
 
     Parallel routines
 
     Environ routines
     calc_eelect  :      0.02s CPU      0.01s WALL (       8 calls)
     calc_velect  :      6.58s CPU      7.32s WALL (       6 calls)
     dielectric   :      0.08s CPU      0.08s WALL (       2 calls)
     calc_felect  :      0.04s CPU      0.05s WALL (       1 calls)
 
     PWSCF        :    13.72s CPU        15.71s WALL

 
   This run was terminated on:  23:18:39  21Apr2019            

=------------------------------------------------------------------------------=
   JOB DONE.
=------------------------------------------------------------------------------=

%%%% IONS %%%%%%%%%%%%%%%%%%%%%%%%%%%%%%%%%%%%%%%%%%%%%%%%%%%%%%%%%%%%%%%%%%%%%%
 number of ions             =          3
 ionic center of charge     =      0.5921875     0.5886250     0.5750000
 total ionic charge         =     -8.0000000
 ionic dipole               =      0.0000000     0.0000000     0.0000000
 ionic quadrupole (pc)      =     -4.2453875    -2.0049500     0.0000000
 ionic quadrupole (gauss)   =     -5.2453875    -3.0049500    -1.0000000
 ion   1 type =  2 coordinates =     11.7900000    12.0500000    11.5000000
 ion   2 type =  1 coordinates =     13.4500000    11.2200000    11.5000000
 ion   3 type =  1 coordinates =     10.5600000    10.6600000    11.5000000

%%%% SYSTEM %%%%%%%%%%%%%%%%%%%%%%%%%%%%%%%%%%%%%%%%%%%%%%%%%%%%%%%%%%%%%%%%%%%%
 system is built from all present ionic types
 system defined dimension   =  0 
 system defined axis        =  3 
 system center              =      0.5921875     0.5886250     0.5750000 
 system width               =      0.0849363 

%%%% BOUNDARY %%%%%%%%%%%%%%%%%%%%%%%%%%%%%%%%%%%%%%%%%%%%%%%%%%%%%%%%%%%%%%%%%%
 boundary label             = solvent              
 boundary mode              = system               
 boundary is built as an analytic function centered on system position
 center of the boundary     =      0.5921875     0.5886250     0.5750000 
 distance from the center   =      3.0000000 
 spread of the interface    =      0.5000000 
 dimensionality             =  0 
 axis                       =  3 
 volume of the QM region    =    117.8097245 
 surface of the QM region   =    114.6681319 

%%%% DIELECTRIC %%%%%%%%%%%%%%%%%%%%%%%%%%%%%%%%%%%%%%%%%%%%%%%%%%%%%%%%%%%%%%%%%
 dielectric build on homogeneous background
 environment bulk permitt.  =    100.0000000 
 dielectric flags
 need gradient              =  F 
 need factor depend. sqrt   =  F 
 total dielectric charge    =      0.0000000

%%%% ELECTRONS %%%%%%%%%%%%%%%%%%%%%%%%%%%%%%%%%%%%%%%%%%%%%%%%%%%%%%%%%%%%%%%%%
 number of electrons        =          8
 total electronic charge    =      8.0000000
 number of spin components  =  1

%%%% DENSITY %%%%%%%%%%%%%%%%%%%%%%%%%%%%%%%%%%%%%%%%%%%%%%%%%%%%%%%%%%%%%%%%%%%
 density label              = vreference                                                                      
 integral of density        =      0.000000000    

%%%% DENSITY %%%%%%%%%%%%%%%%%%%%%%%%%%%%%%%%%%%%%%%%%%%%%%%%%%%%%%%%%%%%%%%%%%%
 density label              = velectrostatic                                                                  
 integral of density        =      0.000000000    

%%%% CHARGES %%%%%%%%%%%%%%%%%%%%%%%%%%%%%%%%%%%%%%%%%%%%%%%%%%%%%%%%%%%%%%%%%%%
 total number of charges    =         11
 total charge               =     -0.0000000

%%%% ELECTRONS %%%%%%%%%%%%%%%%%%%%%%%%%%%%%%%%%%%%%%%%%%%%%%%%%%%%%%%%%%%%%%%%%
 number of electrons        =          8
 total electronic charge    =      8.0000000
 number of spin components  =  1

%%%% DENSITY %%%%%%%%%%%%%%%%%%%%%%%%%%%%%%%%%%%%%%%%%%%%%%%%%%%%%%%%%%%%%%%%%%%
 density label              = vreference                                                                      
 integral of density        =     0.1091472591E-12

%%%% COMPUTE ELECTROSTATIC POTENTIAL %%%%%%%%%%%%%%%%%%%%%%%%%%%%%%%%%%%%%%%%%%%
 Starting from polarization: rhoiter =      0.000000 jellium =      0.000000
 Iteration #          1
 delta_qm =   0.586194E-02 delta_en =   0.593780E+02 tol =   0.100000E-04
 Iteration #          2
 delta_qm =   0.353696E-02 delta_en =   0.216174E+02 tol =   0.100000E-04
 Iteration #          3
 delta_qm =   0.150061E-02 delta_en =   0.389117E+01 tol =   0.100000E-04
 Iteration #          4
 delta_qm =   0.100695E-02 delta_en =   0.175210E+01 tol =   0.100000E-04
 Iteration #          5
 delta_qm =   0.594183E-03 delta_en =   0.610077E+00 tol =   0.100000E-04
 Iteration #          6
 delta_qm =   0.341042E-03 delta_en =   0.200983E+00 tol =   0.100000E-04
 Iteration #          7
 delta_qm =   0.217302E-03 delta_en =   0.815964E-01 tol =   0.100000E-04
 Iteration #          8
 delta_qm =   0.137128E-03 delta_en =   0.324933E-01 tol =   0.100000E-04
 Iteration #          9
 delta_qm =   0.821129E-04 delta_en =   0.116511E-01 tol =   0.100000E-04
 Iteration #         10
 delta_qm =   0.506941E-04 delta_en =   0.444078E-02 tol =   0.100000E-04
 Iteration #         11
 delta_qm =   0.321283E-04 delta_en =   0.178369E-02 tol =   0.100000E-04
 Iteration #         12
 delta_qm =   0.202523E-04 delta_en =   0.708751E-03 tol =   0.100000E-04
 Iteration #         13
 delta_qm =   0.128340E-04 delta_en =   0.284622E-03 tol =   0.100000E-04
 Iteration #         14
 delta_qm =   0.792578E-05 delta_en =   0.108549E-03 tol =   0.100000E-04
 Iteration #         15
 delta_qm =   0.496548E-05 delta_en =   0.426055E-04 tol =   0.100000E-04
 Iteration #         16
 delta_qm =   0.331114E-05 delta_en =   0.189452E-04 tol =   0.100000E-04
 Iteration #         17
 delta_qm =   0.208245E-05 delta_en =   0.749361E-05 tol =   0.100000E-04
 Charges are converged, EXIT

%%%% DENSITY %%%%%%%%%%%%%%%%%%%%%%%%%%%%%%%%%%%%%%%%%%%%%%%%%%%%%%%%%%%%%%%%%%%
 density label              = velectrostatic                                                                  
 integral of density        =     0.2000046219E-13

%%%% CHARGES %%%%%%%%%%%%%%%%%%%%%%%%%%%%%%%%%%%%%%%%%%%%%%%%%%%%%%%%%%%%%%%%%%%
 total number of charges    =         11
 total charge               =      0.0000000

%%%% ELECTRONS %%%%%%%%%%%%%%%%%%%%%%%%%%%%%%%%%%%%%%%%%%%%%%%%%%%%%%%%%%%%%%%%%
 number of electrons        =          8
 total electronic charge    =      8.0000000
 number of spin components  =  1

%%%% DENSITY %%%%%%%%%%%%%%%%%%%%%%%%%%%%%%%%%%%%%%%%%%%%%%%%%%%%%%%%%%%%%%%%%%%
 density label              = vreference                                                                      
 integral of density        =    -0.3057307494E-12

%%%% COMPUTE ELECTROSTATIC POTENTIAL %%%%%%%%%%%%%%%%%%%%%%%%%%%%%%%%%%%%%%%%%%%
 Starting from polarization: rhoiter =      0.772576 jellium =      0.000000
 Iteration #          1
 delta_qm =   0.113353E-02 delta_en =   0.222031E+01 tol =   0.100000E-04
 Iteration #          2
 delta_qm =   0.799806E-03 delta_en =   0.110538E+01 tol =   0.100000E-04
 Iteration #          3
 delta_qm =   0.236551E-03 delta_en =   0.966930E-01 tol =   0.100000E-04
 Iteration #          4
 delta_qm =   0.146908E-03 delta_en =   0.372938E-01 tol =   0.100000E-04
 Iteration #          5
 delta_qm =   0.656616E-04 delta_en =   0.745017E-02 tol =   0.100000E-04
 Iteration #          6
 delta_qm =   0.292432E-04 delta_en =   0.147772E-02 tol =   0.100000E-04
 Iteration #          7
 delta_qm =   0.165429E-04 delta_en =   0.472899E-03 tol =   0.100000E-04
 Iteration #          8
 delta_qm =   0.842017E-05 delta_en =   0.122514E-03 tol =   0.100000E-04
 Iteration #          9
 delta_qm =   0.447804E-05 delta_en =   0.346514E-04 tol =   0.100000E-04
 Iteration #         10
 delta_qm =   0.267872E-05 delta_en =   0.123993E-04 tol =   0.100000E-04
 Iteration #         11
 delta_qm =   0.145578E-05 delta_en =   0.366217E-05 tol =   0.100000E-04
 Charges are converged, EXIT

%%%% DENSITY %%%%%%%%%%%%%%%%%%%%%%%%%%%%%%%%%%%%%%%%%%%%%%%%%%%%%%%%%%%%%%%%%%%
 density label              = velectrostatic                                                                  
 integral of density        =    -0.1250028887E-14

%%%% CHARGES %%%%%%%%%%%%%%%%%%%%%%%%%%%%%%%%%%%%%%%%%%%%%%%%%%%%%%%%%%%%%%%%%%%
 total number of charges    =         11
 total charge               =      0.0000000

%%%% ELECTRONS %%%%%%%%%%%%%%%%%%%%%%%%%%%%%%%%%%%%%%%%%%%%%%%%%%%%%%%%%%%%%%%%%
 number of electrons        =          8
 total electronic charge    =      8.0000000
 number of spin components  =  1

%%%% DENSITY %%%%%%%%%%%%%%%%%%%%%%%%%%%%%%%%%%%%%%%%%%%%%%%%%%%%%%%%%%%%%%%%%%%
 density label              = vreference                                                                      
 integral of density        =     0.8138345964E-13

%%%% COMPUTE ELECTROSTATIC POTENTIAL %%%%%%%%%%%%%%%%%%%%%%%%%%%%%%%%%%%%%%%%%%%
 Starting from polarization: rhoiter =      0.984990 jellium =      0.000000
 Iteration #          1
 delta_qm =   0.354890E-03 delta_en =   0.217637E+00 tol =   0.100000E-04
 Iteration #          2
 delta_qm =   0.213207E-03 delta_en =   0.785503E-01 tol =   0.100000E-04
 Iteration #          3
 delta_qm =   0.938552E-04 delta_en =   0.152216E-01 tol =   0.100000E-04
 Iteration #          4
 delta_qm =   0.652170E-04 delta_en =   0.734963E-02 tol =   0.100000E-04
 Iteration #          5
 delta_qm =   0.368338E-04 delta_en =   0.234442E-02 tol =   0.100000E-04
 Iteration #          6
 delta_qm =   0.226330E-04 delta_en =   0.885174E-03 tol =   0.100000E-04
 Iteration #          7
 delta_qm =   0.156941E-04 delta_en =   0.425617E-03 tol =   0.100000E-04
 Iteration #          8
 delta_qm =   0.915404E-05 delta_en =   0.144800E-03 tol =   0.100000E-04
 Iteration #          9
 delta_qm =   0.551702E-05 delta_en =   0.525960E-04 tol =   0.100000E-04
 Iteration #         10
 delta_qm =   0.397225E-05 delta_en =   0.272657E-04 tol =   0.100000E-04
 Iteration #         11
 delta_qm =   0.242507E-05 delta_en =   0.101623E-04 tol =   0.100000E-04
 Iteration #         12
 delta_qm =   0.139893E-05 delta_en =   0.338173E-05 tol =   0.100000E-04
 Charges are converged, EXIT

%%%% DENSITY %%%%%%%%%%%%%%%%%%%%%%%%%%%%%%%%%%%%%%%%%%%%%%%%%%%%%%%%%%%%%%%%%%%
 density label              = velectrostatic                                                                  
 integral of density        =     0.6980424469E-13

%%%% CHARGES %%%%%%%%%%%%%%%%%%%%%%%%%%%%%%%%%%%%%%%%%%%%%%%%%%%%%%%%%%%%%%%%%%%
 total number of charges    =         11
 total charge               =      0.0000000

%%%% ELECTRONS %%%%%%%%%%%%%%%%%%%%%%%%%%%%%%%%%%%%%%%%%%%%%%%%%%%%%%%%%%%%%%%%%
 number of electrons        =          8
 total electronic charge    =      8.0000000
 number of spin components  =  1

%%%% DENSITY %%%%%%%%%%%%%%%%%%%%%%%%%%%%%%%%%%%%%%%%%%%%%%%%%%%%%%%%%%%%%%%%%%%
 density label              = vreference                                                                      
 integral of density        =     0.8138345964E-13

%%%% DENSITY %%%%%%%%%%%%%%%%%%%%%%%%%%%%%%%%%%%%%%%%%%%%%%%%%%%%%%%%%%%%%%%%%%%
 density label              = velectrostatic                                                                  
 integral of density        =     0.6980424469E-13

%%%% CHARGES %%%%%%%%%%%%%%%%%%%%%%%%%%%%%%%%%%%%%%%%%%%%%%%%%%%%%%%%%%%%%%%%%%%
 total number of charges    =         11
 total charge               =      0.0000000
