
     Program PWSCF v.6.7MaX starts on  9Mar2021 at 11:55:14 

     This program is part of the open-source Quantum ESPRESSO suite
     for quantum simulation of materials; please cite
         "P. Giannozzi et al., J. Phys.:Condens. Matter 21 395502 (2009);
         "P. Giannozzi et al., J. Phys.:Condens. Matter 29 465901 (2017);
          URL http://www.quantum-espresso.org", 
     in publications or presentations arising from this work. More details at
     http://www.quantum-espresso.org/quote

     Parallel version (MPI), running on     1 processors

     MPI processes distributed on     1 nodes
     Waiting for input...
     Reading input from standard input

     Current dimensions of program PWSCF are:
     Max number of different atomic species (ntypx) = 10
     Max number of k-points (npk) =  40000
     Max angular momentum in pseudopotentials (lmaxx) =  3
     file C.pbe-rrkjus.UPF: wavefunction(s)  2S 2P renormalized
     file O.pbe-rrkjus.UPF: wavefunction(s)  2S renormalized

     gamma-point specific algorithms are used

     Subspace diagonalization in iterative solution of the eigenvalue problem:
     a serial algorithm will be used


     G-vector sticks info
     --------------------
     sticks:   dense  smooth     PW     G-vecs:    dense   smooth      PW
     Sum        2357    1099    269               185577    58999    7345



     bravais-lattice index     =            8
     lattice parameter (alat)  =      10.6881  a.u.
     unit-cell volume          =    2114.7642 (a.u.)^3
     number of atoms/cell      =           10
     number of atomic types    =            3
     number of electrons       =        89.00
     number of Kohn-Sham states=           80
     kinetic-energy cutoff     =      35.0000  Ry
     charge density cutoff     =     300.0000  Ry
     scf convergence threshold =      5.0E-05
     mixing beta               =       0.7000
     number of iterations used =            8  plain     mixing
     Exchange-correlation= PBE
                           (   1   4   3   4   0   0   0)


     Environ Module
     ==============

     Plese cite
         O. Andreussi, I. Dabo and N. Marzari, J. Chem. Phys. 136, 064102 (2012)         
     in publications or presentations arising from this work.

     compensation onset threshold      =               0.1000E+03 

     Electrostatic Setup
     -------------------
     electrostatic problem to solve    = poisson                  
     numerical solver adopted          = direct                   
     type of auxiliary density adopted = none                     
     type of core tool for poisson     = fft                      



     celldm(1)=  10.688100  celldm(2)=   0.866025  celldm(3)=   2.000000
     celldm(4)=   0.000000  celldm(5)=   0.000000  celldm(6)=   0.000000

     crystal axes: (cart. coord. in units of alat)
               a(1) = (   1.000000   0.000000   0.000000 )  
               a(2) = (   0.000000   0.866025   0.000000 )  
               a(3) = (   0.000000   0.000000   2.000000 )  

     reciprocal axes: (cart. coord. in units 2 pi/alat)
               b(1) = (  1.000000  0.000000  0.000000 )  
               b(2) = (  0.000000  1.154701  0.000000 )  
               b(3) = (  0.000000  0.000000  0.500000 )  


     PseudoPot. # 1 for C  read from file:
     ../../../pseudo/C.pbe-rrkjus.UPF
     MD5 check sum: c9ac5a99bc85b198593446162950cd17
     Pseudo is Ultrasoft, Zval =  4.0
     Generated by new atomic code, or converted to UPF format
     Using radial grid of  627 points,  4 beta functions with: 
                l(1) =   0
                l(2) =   0
                l(3) =   1
                l(4) =   1
     Q(r) pseudized with 0 coefficients 


     PseudoPot. # 2 for O  read from file:
     ../../../pseudo/O.pbe-rrkjus.UPF
     MD5 check sum: fadcf19ee70a498d3030e2e79cf929a4
     Pseudo is Ultrasoft, Zval =  6.0
     Generated by new atomic code, or converted to UPF format
     Using radial grid of 1269 points,  4 beta functions with: 
                l(1) =   0
                l(2) =   0
                l(3) =   1
                l(4) =   1
     Q(r) pseudized with 0 coefficients 


     PseudoPot. # 3 for Pt read from file:
     ../../../pseudo/Pt.pbe-n-rrkjus_psl.0.1.UPF
     MD5 check sum: 957548fe13c2a9232dd96292d902c87c
     Pseudo is Ultrasoft + core correction, Zval = 10.0
     Generated using "atomic" code by A. Dal Corso  v.5.0.2 svn rev. 9415
     Using radial grid of 1277 points,  6 beta functions with: 
                l(1) =   0
                l(2) =   0
                l(3) =   1
                l(4) =   1
                l(5) =   2
                l(6) =   2
     Q(r) pseudized with 0 coefficients 


     atomic species   valence    mass     pseudopotential
        C              4.00     1.00000     C ( 1.00)
        O              6.00     1.00000     O ( 1.00)
        Pt            10.00     1.00000     Pt( 1.00)

     No symmetry found



   Cartesian axes

     site n.     atom                  positions (alat units)
         1           C   tau(   1) = (   0.4991611   0.4347567   1.2070461  )
         2           O   tau(   2) = (   0.4991542   0.4322212   1.4109013  )
         3           Pt  tau(   3) = (   0.7542339   0.0091745   0.8413229  )
         4           Pt  tau(   4) = (   0.2441023   0.0091745   0.8413226  )
         5           Pt  tau(   5) = (   0.0000034   0.4416918   0.8391348  )
         6           Pt  tau(   6) = (   0.4991682   0.4417635   0.8776299  )
         7           Pt  tau(   7) = (   0.0000038   0.7300598   0.4308181  )
         8           Pt  tau(   8) = (   0.4991683   0.7202168   0.4447460  )
         9           Pt  tau(   9) = (   0.2524172   0.2949237   0.4386572  )
        10           Pt  tau(  10) = (   0.7459196   0.2949237   0.4386575  )

     number of k points=     1  Marzari-Vanderbilt smearing, width (Ry)=  0.0300
                       cart. coord. in units 2pi/alat
        k(    1) = (   0.0000000   0.0000000   0.0000000), wk =   2.0000000

     Dense  grid:    92789 G-vectors     FFT dimensions: (  60,  54, 120)

     Smooth grid:    29500 G-vectors     FFT dimensions: (  45,  36,  81)

     Estimated max dynamical RAM per process >     383.41 MB

     Initial potential from superposition of free atoms

     starting charge   89.99859, renormalised to   89.00000

     negative rho (up, down):  1.361E-05 0.000E+00
     Starting wfcs are   80 randomized atomic wfcs

     total cpu time spent up to now is        3.2 secs

     Self-consistent Calculation

     iteration #  1     ecut=    35.00 Ry     beta= 0.70
     Davidson diagonalization with overlap
     ethr =  1.00E-02,  avg # of iterations =  6.0

     negative rho (up, down):  6.831E-05 0.000E+00

     add environment contribution to local potential

     total cpu time spent up to now is        4.8 secs

     total energy              =    -623.83365762 Ry
     estimated scf accuracy    <       1.02526470 Ry
     electrostatic embedding   =       0.06684985 Ry
     correction to one-el term =      -0.00000000 Ry

     iteration #  2     ecut=    35.00 Ry     beta= 0.70
     Davidson diagonalization with overlap
     ethr =  1.15E-03,  avg # of iterations = 11.0

     negative rho (up, down):  3.847E-03 0.000E+00

     add environment contribution to local potential

     total cpu time spent up to now is        6.5 secs

     total energy              =    -621.72619321 Ry
     estimated scf accuracy    <      51.81325006 Ry
     electrostatic embedding   =       1.06593566 Ry
     correction to one-el term =     116.69588772 Ry

     iteration #  3     ecut=    35.00 Ry     beta= 0.70
     Davidson diagonalization with overlap
     ethr =  1.15E-03,  avg # of iterations =  6.0

     negative rho (up, down):  1.506E-03 0.000E+00

     add environment contribution to local potential

     total cpu time spent up to now is        8.2 secs

     total energy              =    -622.56165066 Ry
     estimated scf accuracy    <      25.66443733 Ry
     electrostatic embedding   =       0.97080872 Ry
     correction to one-el term =     111.90346355 Ry

     iteration #  4     ecut=    35.00 Ry     beta= 0.70
     Davidson diagonalization with overlap
     ethr =  1.15E-03,  avg # of iterations =  2.0

     negative rho (up, down):  7.832E-04 0.000E+00

     add environment contribution to local potential

     total cpu time spent up to now is        9.7 secs

     total energy              =    -623.31612901 Ry
     estimated scf accuracy    <       0.96746266 Ry
     electrostatic embedding   =       0.92608538 Ry
     correction to one-el term =     109.11624523 Ry

     iteration #  5     ecut=    35.00 Ry     beta= 0.70
     Davidson diagonalization with overlap
     ethr =  1.09E-03,  avg # of iterations =  2.0

     negative rho (up, down):  1.256E-03 0.000E+00

     add environment contribution to local potential

     total cpu time spent up to now is       11.2 secs

     total energy              =    -623.33581121 Ry
     estimated scf accuracy    <       0.90336046 Ry
     electrostatic embedding   =       0.93345933 Ry
     correction to one-el term =     110.18214996 Ry

     iteration #  6     ecut=    35.00 Ry     beta= 0.70
     Davidson diagonalization with overlap
     ethr =  1.02E-03,  avg # of iterations =  1.0

     negative rho (up, down):  7.131E-04 0.000E+00

     add environment contribution to local potential

     total cpu time spent up to now is       12.6 secs

     total energy              =    -623.40631798 Ry
     estimated scf accuracy    <       0.42213077 Ry
     electrostatic embedding   =       0.94276500 Ry
     correction to one-el term =     111.03606190 Ry

     iteration #  7     ecut=    35.00 Ry     beta= 0.70
     Davidson diagonalization with overlap
     ethr =  4.74E-04,  avg # of iterations =  2.0

     negative rho (up, down):  5.888E-04 0.000E+00

     add environment contribution to local potential

     total cpu time spent up to now is       14.1 secs

     total energy              =    -623.43088192 Ry
     estimated scf accuracy    <       0.33429213 Ry
     electrostatic embedding   =       0.92356236 Ry
     correction to one-el term =     109.34180592 Ry

     iteration #  8     ecut=    35.00 Ry     beta= 0.70
     Davidson diagonalization with overlap
     ethr =  3.76E-04,  avg # of iterations =  1.0

     negative rho (up, down):  4.867E-04 0.000E+00

     add environment contribution to local potential

     total cpu time spent up to now is       15.6 secs

     total energy              =    -623.43614672 Ry
     estimated scf accuracy    <       0.05129898 Ry
     electrostatic embedding   =       0.93307042 Ry
     correction to one-el term =     110.18798893 Ry

     iteration #  9     ecut=    35.00 Ry     beta= 0.70
     Davidson diagonalization with overlap
     ethr =  5.76E-05,  avg # of iterations = 10.0

     negative rho (up, down):  4.867E-04 0.000E+00

     add environment contribution to local potential

     total cpu time spent up to now is       17.1 secs

     total energy              =    -623.43500646 Ry
     estimated scf accuracy    <       0.05104569 Ry
     electrostatic embedding   =       0.93340584 Ry
     correction to one-el term =     110.22125435 Ry

     iteration # 10     ecut=    35.00 Ry     beta= 0.70
     Davidson diagonalization with overlap
     ethr =  5.74E-05,  avg # of iterations =  1.0

     negative rho (up, down):  4.959E-04 0.000E+00

     add environment contribution to local potential

     total cpu time spent up to now is       18.5 secs

     total energy              =    -623.43534268 Ry
     estimated scf accuracy    <       0.03647825 Ry
     electrostatic embedding   =       0.93435933 Ry
     correction to one-el term =     110.31643687 Ry

     iteration # 11     ecut=    35.00 Ry     beta= 0.70
     Davidson diagonalization with overlap
     ethr =  4.10E-05,  avg # of iterations =  1.0

     negative rho (up, down):  4.655E-04 0.000E+00

     add environment contribution to local potential

     total cpu time spent up to now is       19.9 secs

     total energy              =    -623.43666031 Ry
     estimated scf accuracy    <       0.01462333 Ry
     electrostatic embedding   =       0.93577836 Ry
     correction to one-el term =     110.44443007 Ry

     iteration # 12     ecut=    35.00 Ry     beta= 0.70
     Davidson diagonalization with overlap
     ethr =  1.64E-05,  avg # of iterations =  2.0

     negative rho (up, down):  4.395E-04 0.000E+00

     add environment contribution to local potential

     total cpu time spent up to now is       21.4 secs

     total energy              =    -623.43681771 Ry
     estimated scf accuracy    <       0.00258005 Ry
     electrostatic embedding   =       0.93721782 Ry
     correction to one-el term =     110.57182764 Ry

     iteration # 13     ecut=    35.00 Ry     beta= 0.70
     Davidson diagonalization with overlap
     ethr =  2.90E-06,  avg # of iterations =  9.0

     negative rho (up, down):  6.307E-04 0.000E+00

     add environment contribution to local potential

     total cpu time spent up to now is       23.0 secs

     total energy              =    -623.43745567 Ry
     estimated scf accuracy    <       0.15705874 Ry
     electrostatic embedding   =       0.93476987 Ry
     correction to one-el term =     110.33504538 Ry

     iteration # 14     ecut=    35.00 Ry     beta= 0.70
     Davidson diagonalization with overlap
     ethr =  2.90E-06,  avg # of iterations = 12.0

     negative rho (up, down):  4.703E-04 0.000E+00

     add environment contribution to local potential

     total cpu time spent up to now is       24.6 secs

     total energy              =    -623.43759934 Ry
     estimated scf accuracy    <       0.00097960 Ry
     electrostatic embedding   =       0.93653546 Ry
     correction to one-el term =     110.50811726 Ry

     iteration # 15     ecut=    35.00 Ry     beta= 0.70
     Davidson diagonalization with overlap
     ethr =  1.10E-06,  avg # of iterations =  2.0

     negative rho (up, down):  4.387E-04 0.000E+00

     add environment contribution to local potential

     total cpu time spent up to now is       26.1 secs

     total energy              =    -623.43758171 Ry
     estimated scf accuracy    <       0.00028516 Ry
     electrostatic embedding   =       0.93582839 Ry
     correction to one-el term =     110.44745242 Ry

     iteration # 16     ecut=    35.00 Ry     beta= 0.70
     Davidson diagonalization with overlap
     ethr =  3.20E-07,  avg # of iterations =  1.0

     negative rho (up, down):  4.400E-04 0.000E+00

     add environment contribution to local potential

     total cpu time spent up to now is       27.5 secs

     total energy              =    -623.43754703 Ry
     estimated scf accuracy    <       0.00112581 Ry
     electrostatic embedding   =       0.93567093 Ry
     correction to one-el term =     110.43368215 Ry

     iteration # 17     ecut=    35.00 Ry     beta= 0.70
     Davidson diagonalization with overlap
     ethr =  3.20E-07,  avg # of iterations =  1.0

     negative rho (up, down):  4.362E-04 0.000E+00

     add environment contribution to local potential

     total cpu time spent up to now is       28.9 secs

     total energy              =    -623.43760894 Ry
     estimated scf accuracy    <       0.00017159 Ry
     electrostatic embedding   =       0.93565219 Ry
     correction to one-el term =     110.43161605 Ry

     iteration # 18     ecut=    35.00 Ry     beta= 0.70
     Davidson diagonalization with overlap
     ethr =  1.93E-07,  avg # of iterations =  1.0

     negative rho (up, down):  4.360E-04 0.000E+00

     the potential shift due to the Gaussian-smeared nuclei is    -0.3032 ev

     total cpu time spent up to now is       30.1 secs

     End of self-consistent calculation

          k = 0.0000 0.0000 0.0000 (  3673 PWs)   bands (ev):

   -35.1207 -22.1103 -20.7437 -19.3916 -18.6761 -18.5820 -18.2929 -18.2629
   -18.1122 -17.4794 -17.4747 -17.2410 -17.1563 -17.1315 -17.0226 -16.9071
   -16.1878 -16.1239 -16.0731 -15.9019 -15.8652 -15.8370 -15.7940 -15.7660
   -15.7544 -15.5694 -15.5509 -15.4400 -15.3035 -15.0929 -15.0025 -14.2179
   -14.1049 -13.8933 -13.6162 -13.5970 -13.5319 -13.3609 -13.2088 -13.0787
   -12.8923 -12.8872 -12.6817 -12.6518 -12.6051 -12.4378 -12.2875 -11.1932
   -10.8538 -10.8354 -10.2052  -9.5980  -9.2453  -8.0656  -7.9509  -7.7886
    -6.7192  -6.2751  -5.2957  -5.0028  -4.5935  -4.2677  -3.8530  -3.6027
    -3.5704  -2.6868  -1.7672  -1.0435  -0.9548  -0.8325  -0.5106  -0.2174
     0.1317   0.5429   0.8792   1.1477   1.1762   1.4235   1.6483   1.7155

     the Fermi energy is   -12.5166 ev

!    total energy              =    -623.43761530 Ry
     estimated scf accuracy    <       0.00001598 Ry
     smearing contrib. (-TS)   =      -0.00171974 Ry
     internal energy E=F+TS    =    -623.43589555 Ry

     The total energy is F=E-TS. E is the sum of the following terms:
     one-electron contribution =    -994.20229416 Ry
     hartree contribution      =     507.98044177 Ry
     xc contribution           =    -262.70361777 Ry
     ewald contribution        =      14.08538298 Ry
     electrostatic embedding   =       0.93606662 Ry
     correction to one-el term =     110.46812502 Ry

     WARNING: you are using the parabolic pbc correction;
              the potential shift above must be added to 
              band and Fermi energies.

     convergence has been achieved in  18 iterations

     negative rho (up, down):  4.360E-04 0.000E+00
 forces lc
       1    0.0000    0.0000    0.0000
       2    0.0000    0.0000    0.0000
       3    0.0000    0.0000    0.0000
       4    0.0000    0.0000    0.0000
       5    0.0000    0.0000    0.0000
       6    0.0000    0.0000    0.0000
       7    0.0000    0.0000    0.0000
       8    0.0000    0.0000    0.0000
       9    0.0000    0.0000    0.0000
      10    0.0000    0.0000    0.0000

     Forces acting on atoms (cartesian axes, Ry/au):

     atom    1 type  1   force =     0.00001118   -0.00414822   -0.05145930
     atom    2 type  2   force =    -0.00004478    0.00158317   -0.41525145
     atom    3 type  3   force =    -0.00008394    0.01228907   -0.06637359
     atom    4 type  3   force =     0.00104740    0.01245833   -0.06574773
     atom    5 type  3   force =    -0.00190613    0.01138764   -0.09758075
     atom    6 type  3   force =     0.00088427    0.00829710   -0.09999847
     atom    7 type  3   force =    -0.00162590   -0.01187437    0.19695652
     atom    8 type  3   force =     0.00064036   -0.01788800    0.20684752
     atom    9 type  3   force =     0.01610139   -0.00619117    0.19609402
     atom   10 type  3   force =    -0.01502385   -0.00591353    0.19651325

     Total force =     0.602936     Total SCF correction =     0.011369

     Writing output data file ./tmp/pwscf.save/

     init_run     :      2.94s CPU      3.08s WALL (       1 calls)
     electrons    :     34.13s CPU     26.93s WALL (       1 calls)
     forces       :      1.28s CPU      1.36s WALL (       1 calls)

     Called by init_run:
     wfcinit      :      0.14s CPU      0.12s WALL (       1 calls)
     potinit      :      0.51s CPU      0.53s WALL (       1 calls)
     hinit0       :      1.85s CPU      1.89s WALL (       1 calls)

     Called by electrons:
     c_bands      :      7.70s CPU      5.20s WALL (      18 calls)
     sum_band     :     14.78s CPU      8.21s WALL (      18 calls)
     v_of_rho     :      2.39s CPU      2.69s WALL (      19 calls)
     newd         :      4.67s CPU      5.87s WALL (      19 calls)
     mix_rho      :      0.28s CPU      0.34s WALL (      18 calls)

     Called by c_bands:
     init_us_2    :      0.08s CPU      0.08s WALL (      37 calls)
     regterg      :      7.31s CPU      4.81s WALL (      18 calls)

     Called by *egterg:
     rdiaghg      :      0.43s CPU      0.43s WALL (      89 calls)
     h_psi        :      4.49s CPU      3.73s WALL (      90 calls)
     s_psi        :      0.63s CPU      0.06s WALL (      90 calls)
     g_psi        :      0.03s CPU      0.03s WALL (      71 calls)

     Called by h_psi:
     h_psi:calbec :      0.24s CPU      0.19s WALL (      90 calls)
     vloc_psi     :      3.35s CPU      3.36s WALL (      90 calls)
     add_vuspsi   :      0.87s CPU      0.16s WALL (      90 calls)

     General routines
     calbec       :      0.33s CPU      0.28s WALL (     112 calls)
     fft          :      2.23s CPU      2.37s WALL (     291 calls)
     ffts         :      0.06s CPU      0.06s WALL (      37 calls)
     fftw         :      3.48s CPU      3.48s WALL (    4248 calls)
     interpolate  :      0.14s CPU      0.15s WALL (      19 calls)

     Parallel routines
     fft_scatt_xy :      0.11s CPU      0.11s WALL (      72 calls)
     fft_scatt_yz :      0.16s CPU      0.16s WALL (      72 calls)

     Environ routines
     calc_eelect  :      0.04s CPU      0.04s WALL (      36 calls)
     calc_velect  :      2.67s CPU      2.95s WALL (      34 calls)
     calc_felect  :      0.26s CPU      0.27s WALL (       1 calls)

     PWSCF        :     38.47s CPU     31.54s WALL


   This run was terminated on:  11:55:46   9Mar2021            

=------------------------------------------------------------------------------=
   JOB DONE.
=------------------------------------------------------------------------------=
