
     Program PWSCF v.6.1 (svn rev. 13369) starts on 13Nov2017 at 17:59:20 

     This program is part of the open-source Quantum ESPRESSO suite
     for quantum simulation of materials; please cite
         "P. Giannozzi et al., J. Phys.:Condens. Matter 21 395502 (2009);
          URL http://www.quantum-espresso.org", 
     in publications or presentations arising from this work. More details at
     http://www.quantum-espresso.org/quote

     Serial version
     Reading input from radical.in

     Current dimensions of program PWSCF are:
     Max number of different atomic species (ntypx) = 10
     Max number of k-points (npk) =  40000
     Max angular momentum in pseudopotentials (lmaxx) =  3
               file C.pbe-rrkjus.UPF: wavefunction(s)  2S 2P renormalized
               file H.pbe-rrkjus.UPF: wavefunction(s)  1S renormalized

     gamma-point specific algorithms are used

     G-vector sticks info
     --------------------
     sticks:   dense  smooth     PW     G-vecs:    dense   smooth      PW
     Sum        9549    3809    949               701475   177509   22119



     bravais-lattice index     =            1
     lattice parameter (alat)  =      20.0000  a.u.
     unit-cell volume          =    8000.0000 (a.u.)^3
     number of atoms/cell      =            2
     number of atomic types    =            2
     number of electrons       =         5.00
     number of Kohn-Sham states=            6
     kinetic-energy cutoff     =      30.0000  Ry
     charge density cutoff     =     300.0000  Ry
     convergence threshold     =      5.0E-03
     mixing beta               =       0.7000
     number of iterations used =            8  plain     mixing
     Exchange-correlation      =  SLA  PW   PBE  PBE ( 1  4  3  4 0 0)


     Environ Module
     ==============

     Plese cite
         O. Andreussi, I. Dabo and N. Marzari, J. Chem. Phys. 136, 064102 (2012)         
     in publications or presentations arising from this work.

     compensation onset threshold      =               0.1000E+03 

     Electrostatic Setup
     -------------------
     electrostatic problem to solve    = poisson                  
     numerical solver adopted          = direct                   
     type of auxiliary density adopted = none                     
     type of core tool for poisson     = fft                      
     type of core tool for s(r) deriv  = analytic                 



     celldm(1)=  20.000000  celldm(2)=   0.000000  celldm(3)=   0.000000
     celldm(4)=   0.000000  celldm(5)=   0.000000  celldm(6)=   0.000000

     crystal axes: (cart. coord. in units of alat)
               a(1) = (   1.000000   0.000000   0.000000 )  
               a(2) = (   0.000000   1.000000   0.000000 )  
               a(3) = (   0.000000   0.000000   1.000000 )  

     reciprocal axes: (cart. coord. in units 2 pi/alat)
               b(1) = (  1.000000  0.000000  0.000000 )  
               b(2) = (  0.000000  1.000000  0.000000 )  
               b(3) = (  0.000000  0.000000  1.000000 )  


     PseudoPot. # 1 for C  read from file:
     /Users/oliviero/PWSCF/espresso-6.1-Environ-1.0/Environ/tests/../..//pseudo/C.pbe-rrkjus.UPF
     MD5 check sum: 00fb224312de0c5b6853bd333518df6f
     Pseudo is Ultrasoft, Zval =  4.0
     Generated by new atomic code, or converted to UPF format
     Using radial grid of  627 points,  4 beta functions with: 
                l(1) =   0
                l(2) =   0
                l(3) =   1
                l(4) =   1
     Q(r) pseudized with 0 coefficients 


     PseudoPot. # 2 for H  read from file:
     /Users/oliviero/PWSCF/espresso-6.1-Environ-1.0/Environ/tests/../..//pseudo/H.pbe-rrkjus.UPF
     MD5 check sum: 7cc9d459525c9a0585f487a71c3c9563
     Pseudo is Ultrasoft, Zval =  1.0
     Generated by new atomic code, or converted to UPF format
     Using radial grid of 1061 points,  2 beta functions with: 
                l(1) =   0
                l(2) =   0
     Q(r) pseudized with 0 coefficients 


     atomic species   valence    mass     pseudopotential
        C              4.00    12.00000     C ( 1.00)
        H              1.00     1.00000     H ( 1.00)

     Starting magnetic structure 
     atomic species   magnetization
        C            1.000
        H            0.000

     No symmetry found



   Cartesian axes

     site n.     atom                  positions (alat units)
         1           C   tau(   1) = (   0.0000000   0.0000000   0.0151248  )
         2           H   tau(   2) = (   0.0000000   0.0000000  -0.0907490  )

     number of k points=     1  gaussian smearing, width (Ry)=  0.0100
                       cart. coord. in units 2pi/alat
        k(    1) = (   0.0000000   0.0000000   0.0000000), wk =   1.0000000

     Dense  grid:   350738 G-vectors     FFT dimensions: ( 120, 120, 120)

     Smooth grid:    88755 G-vectors     FFT dimensions: (  72,  72,  72)

     Estimated max dynamical RAM per process >     448.33MB
     Generating pointlists ...
     new r_m :   0.0437 (alat units)  0.8735 (a.u.) for type    1
     new r_m :   0.0437 (alat units)  0.8735 (a.u.) for type    2

     Initial potential from superposition of free atoms
     Check: negative starting charge=(component1):   -0.000359
     Check: negative starting charge=(component2):   -0.000396

     starting charge    4.90374, renormalised to    5.00000

     negative rho (up, down):  3.659E-04 4.040E-04
     Starting wfc are    5 randomized atomic wfcs +    1 random wfc

     total cpu time spent up to now is        7.3 secs

     Self-consistent Calculation

     iteration #  1     ecut=    30.00 Ry     beta=0.70
     Davidson diagonalization with overlap
     ethr =  1.00E-02,  avg # of iterations =  6.5

     negative rho (up, down):  1.124E-04 1.180E-04

     add environment contribution to local potential

     total cpu time spent up to now is       13.6 secs

     total energy              =     -11.97054366 Ry
     Harris-Foulkes estimate   =     -12.11983530 Ry
     estimated scf accuracy    <       0.35440442 Ry
     electrostatic embedding   =       0.00000000 Ry
     correction to one-el term =       0.00000000 Ry

     total magnetization       =     3.00 Bohr mag/cell
     absolute magnetization    =     3.03 Bohr mag/cell

     iteration #  2     ecut=    30.00 Ry     beta=0.70
     Davidson diagonalization with overlap
     ethr =  7.09E-03,  avg # of iterations =  1.5

     negative rho (up, down):  6.822E-05 5.409E-05

     add environment contribution to local potential

     total cpu time spent up to now is       19.6 secs

     total energy              =     -12.05622875 Ry
     Harris-Foulkes estimate   =     -12.09013621 Ry
     estimated scf accuracy    <       0.00933031 Ry
     electrostatic embedding   =      -0.00001125 Ry
     correction to one-el term =       0.04487035 Ry

     total magnetization       =     3.00 Bohr mag/cell
     absolute magnetization    =     3.00 Bohr mag/cell

     iteration #  3     ecut=    30.00 Ry     beta=0.70
     Davidson diagonalization with overlap
     ethr =  1.87E-04,  avg # of iterations =  6.0

     negative rho (up, down):  3.499E-05 3.139E-05

     Magnetic moment per site:
     atom:    1    charge:    0.8296    magn:    0.5932    constr:    0.0000
     atom:    2    charge:    0.4592    magn:    0.0546    constr:    0.0000

     total cpu time spent up to now is       24.5 secs

     End of self-consistent calculation

 ------ SPIN UP ------------


          k = 0.0000 0.0000 0.0000 ( 11060 PWs)   bands (ev):

   -16.2597  -9.3547  -6.1846  -6.1845  -0.8438   0.4207

 ------ SPIN DOWN ----------


          k = 0.0000 0.0000 0.0000 ( 11060 PWs)   bands (ev):

   -13.1345  -4.2072  -1.5817  -1.5811  -0.5534   0.6838

     the Fermi energy is    -5.0555 ev

!    total energy              =     -12.06120548 Ry
     Harris-Foulkes estimate   =     -12.09634593 Ry
     estimated scf accuracy    <       0.00141296 Ry

     The total energy is the sum of the following terms:

     one-electron contribution =     -18.11328939 Ry
     hartree contribution      =       9.73728396 Ry
     xc contribution           =      -3.96439182 Ry
     ewald contribution        =       0.24100845 Ry
     smearing contrib. (-TS)   =      -0.00000000 Ry
     electrostatic embedding   =       0.00000764 Ry
     correction to one-el term =       0.03817567 Ry

     total magnetization       =     3.00 Bohr mag/cell
     absolute magnetization    =     3.00 Bohr mag/cell

     convergence has been achieved in   3 iterations

     Forces acting on atoms (cartesian axes, Ry/au):

     atom    1 type  1   force =    -0.00005811    0.00001503   -0.03724181
     atom    2 type  2   force =     0.00005811   -0.00001503    0.03724181

     Total force =     0.052668     Total SCF correction =     0.004346

     Writing output data file pwscf.save

     init_run     :      6.66s CPU      7.18s WALL (       1 calls)
     electrons    :     16.38s CPU     17.52s WALL (       1 calls)
     forces       :      1.05s CPU      1.19s WALL (       1 calls)

     Called by init_run:
     wfcinit      :      0.10s CPU      0.11s WALL (       1 calls)
     potinit      :      3.37s CPU      3.63s WALL (       1 calls)

     Called by electrons:
     c_bands      :      1.18s CPU      1.18s WALL (       3 calls)
     sum_band     :      3.58s CPU      3.45s WALL (       3 calls)
     v_of_rho     :     10.83s CPU     11.59s WALL (       4 calls)
     newd         :      1.47s CPU      1.86s WALL (       4 calls)
     mix_rho      :      0.56s CPU      0.63s WALL (       3 calls)

     Called by c_bands:
     init_us_2    :      0.04s CPU      0.08s WALL (      16 calls)
     regterg      :      1.15s CPU      1.12s WALL (       6 calls)

     Called by sum_band:
     sum_band:bec :      0.00s CPU      0.00s WALL (       6 calls)
     addusdens    :      2.26s CPU      2.07s WALL (       3 calls)

     Called by *egterg:
     h_psi        :      1.05s CPU      1.06s WALL (      36 calls)
     s_psi        :      0.02s CPU      0.01s WALL (      36 calls)
     g_psi        :      0.01s CPU      0.01s WALL (      28 calls)
     rdiaghg      :      0.00s CPU      0.00s WALL (      34 calls)

     Called by h_psi:
     h_psi:pot    :      1.04s CPU      1.05s WALL (      36 calls)
     h_psi:calbec :      0.01s CPU      0.02s WALL (      36 calls)
     vloc_psi     :      1.01s CPU      1.03s WALL (      36 calls)
     add_vuspsi   :      0.02s CPU      0.01s WALL (      36 calls)

     General routines
     calbec       :      0.02s CPU      0.02s WALL (      50 calls)
     fft          :      6.71s CPU      6.84s WALL (     130 calls)
     ffts         :      0.13s CPU      0.13s WALL (      14 calls)
     fftw         :      0.90s CPU      0.91s WALL (     164 calls)
     interpolate  :      1.00s CPU      1.10s WALL (      14 calls)
     davcio       :      0.00s CPU      0.08s WALL (       2 calls)


     Environ routines
     calc_eelect  :      0.01s CPU      0.01s WALL (       6 calls)
     calc_velect  :      1.10s CPU      1.22s WALL (       4 calls)
     calc_felect  :      0.21s CPU      0.22s WALL (       1 calls)

     PWSCF        :    24.31s CPU        26.34s WALL


   This run was terminated on:  17:59:46  13Nov2017            

=------------------------------------------------------------------------------=
   JOB DONE.
=------------------------------------------------------------------------------=

%%%% IONS %%%%%%%%%%%%%%%%%%%%%%%%%%%%%%%%%%%%%%%%%%%%%%%%%%%%%%%%%%%%%%%%%%%%%%
 number of ions             =          2
 ionic center of charge     =     -0.0000000    -0.0000000    -0.0060500
 total ionic charge         =     -5.0000000
 ionic dipole               =      0.0000000     0.0000000     0.0000000
 ionic quadrupole (pc)      =      0.0000000     0.0000000    -3.5869634
 ionic quadrupole (gauss)   =     -0.6250000    -0.6250000    -4.2119634
 ion   1 type =  1 coordinates =      0.0000000     0.0000000     0.3024960
 ion   2 type =  2 coordinates =      0.0000000     0.0000000    -1.8149799

%%%% SYSTEM %%%%%%%%%%%%%%%%%%%%%%%%%%%%%%%%%%%%%%%%%%%%%%%%%%%%%%%%%%%%%%%%%%%%
 system is built from all present ionic types
 system defined dimension   =  0 
 system defined axis        =  3 
 system center              =     -0.0000000    -0.0000000    -0.0060500 
 system width               =      0.0873059 

%%%% ELECTRONS %%%%%%%%%%%%%%%%%%%%%%%%%%%%%%%%%%%%%%%%%%%%%%%%%%%%%%%%%%%%%%%%%
 number of electrons        =          5
 total electronic charge    =      5.0000000
 number of spin components  =  2

%%%% ELECTRONS %%%%%%%%%%%%%%%%%%%%%%%%%%%%%%%%%%%%%%%%%%%%%%%%%%%%%%%%%%%%%%%%%
 number of electrons        =          5
 total electronic charge    =      5.0000000
 number of spin components  =  2

%%%% ELECTRONS %%%%%%%%%%%%%%%%%%%%%%%%%%%%%%%%%%%%%%%%%%%%%%%%%%%%%%%%%%%%%%%%%
 number of electrons        =          5
 total electronic charge    =      5.0000000
 number of spin components  =  2
