
     Program PWSCF v.6.1 (svn rev. 13369) starts on 13Nov2017 at 17:59:46 

     This program is part of the open-source Quantum ESPRESSO suite
     for quantum simulation of materials; please cite
         "P. Giannozzi et al., J. Phys.:Condens. Matter 21 395502 (2009);
          URL http://www.quantum-espresso.org", 
     in publications or presentations arising from this work. More details at
     http://www.quantum-espresso.org/quote

     Serial version
     Reading input from radical.in

     Current dimensions of program PWSCF are:
     Max number of different atomic species (ntypx) = 10
     Max number of k-points (npk) =  40000
     Max angular momentum in pseudopotentials (lmaxx) =  3
               file C.pbe-rrkjus.UPF: wavefunction(s)  2S 2P renormalized
               file H.pbe-rrkjus.UPF: wavefunction(s)  1S renormalized

     gamma-point specific algorithms are used

     G-vector sticks info
     --------------------
     sticks:   dense  smooth     PW     G-vecs:    dense   smooth      PW
     Sum        9549    3809    949               701475   177509   22119



     bravais-lattice index     =            1
     lattice parameter (alat)  =      20.0000  a.u.
     unit-cell volume          =    8000.0000 (a.u.)^3
     number of atoms/cell      =            2
     number of atomic types    =            2
     number of electrons       =         5.00
     number of Kohn-Sham states=            6
     kinetic-energy cutoff     =      30.0000  Ry
     charge density cutoff     =     300.0000  Ry
     convergence threshold     =      5.0E-03
     mixing beta               =       0.7000
     number of iterations used =            8  plain     mixing
     Exchange-correlation      =  SLA  PW   PBE  PBE ( 1  4  3  4 0 0)


     Environ Module
     ==============

     Plese cite
         O. Andreussi, I. Dabo and N. Marzari, J. Chem. Phys. 136, 064102 (2012)         
     in publications or presentations arising from this work.

     compensation onset threshold      =               0.1000E+03 
     static permittivity               =                   100.00 
     epsilon calculation mode          =               electronic 

     Electrostatic Setup
     -------------------
     electrostatic problem to solve    = generalized              
     numerical solver adopted          = cg                       
     type of auxiliary density adopted = none                     
     type of core tool for poisson     = fft                      
     type of core tool for s(r) deriv  = analytic                 



     celldm(1)=  20.000000  celldm(2)=   0.000000  celldm(3)=   0.000000
     celldm(4)=   0.000000  celldm(5)=   0.000000  celldm(6)=   0.000000

     crystal axes: (cart. coord. in units of alat)
               a(1) = (   1.000000   0.000000   0.000000 )  
               a(2) = (   0.000000   1.000000   0.000000 )  
               a(3) = (   0.000000   0.000000   1.000000 )  

     reciprocal axes: (cart. coord. in units 2 pi/alat)
               b(1) = (  1.000000  0.000000  0.000000 )  
               b(2) = (  0.000000  1.000000  0.000000 )  
               b(3) = (  0.000000  0.000000  1.000000 )  


     PseudoPot. # 1 for C  read from file:
     /Users/oliviero/PWSCF/espresso-6.1-Environ-1.0/Environ/tests/../..//pseudo/C.pbe-rrkjus.UPF
     MD5 check sum: 00fb224312de0c5b6853bd333518df6f
     Pseudo is Ultrasoft, Zval =  4.0
     Generated by new atomic code, or converted to UPF format
     Using radial grid of  627 points,  4 beta functions with: 
                l(1) =   0
                l(2) =   0
                l(3) =   1
                l(4) =   1
     Q(r) pseudized with 0 coefficients 


     PseudoPot. # 2 for H  read from file:
     /Users/oliviero/PWSCF/espresso-6.1-Environ-1.0/Environ/tests/../..//pseudo/H.pbe-rrkjus.UPF
     MD5 check sum: 7cc9d459525c9a0585f487a71c3c9563
     Pseudo is Ultrasoft, Zval =  1.0
     Generated by new atomic code, or converted to UPF format
     Using radial grid of 1061 points,  2 beta functions with: 
                l(1) =   0
                l(2) =   0
     Q(r) pseudized with 0 coefficients 


     atomic species   valence    mass     pseudopotential
        C              4.00    12.00000     C ( 1.00)
        H              1.00     1.00000     H ( 1.00)

     Starting magnetic structure 
     atomic species   magnetization
        C            1.000
        H            0.000

     No symmetry found



   Cartesian axes

     site n.     atom                  positions (alat units)
         1           C   tau(   1) = (   0.0000000   0.0000000   0.0151248  )
         2           H   tau(   2) = (   0.0000000   0.0000000  -0.0907490  )

     number of k points=     1  gaussian smearing, width (Ry)=  0.0100
                       cart. coord. in units 2pi/alat
        k(    1) = (   0.0000000   0.0000000   0.0000000), wk =   1.0000000

     Dense  grid:   350738 G-vectors     FFT dimensions: ( 120, 120, 120)

     Smooth grid:    88755 G-vectors     FFT dimensions: (  72,  72,  72)

     Estimated max dynamical RAM per process >     448.33MB
     Generating pointlists ...
     new r_m :   0.0437 (alat units)  0.8735 (a.u.) for type    1
     new r_m :   0.0437 (alat units)  0.8735 (a.u.) for type    2

     Initial potential from superposition of free atoms
     Check: negative starting charge=(component1):   -0.000359
     Check: negative starting charge=(component2):   -0.000396

     starting charge    4.90374, renormalised to    5.00000

     negative rho (up, down):  3.659E-04 4.040E-04
     Starting wfc are    5 randomized atomic wfcs +    1 random wfc

     total cpu time spent up to now is        7.5 secs

     Self-consistent Calculation

     iteration #  1     ecut=    30.00 Ry     beta=0.70
     Davidson diagonalization with overlap
     ethr =  1.00E-02,  avg # of iterations =  6.5

     negative rho (up, down):  1.124E-04 1.180E-04

     add environment contribution to local potential
     polarization accuracy = 1.5E-05, # of iterations =  10

     total cpu time spent up to now is       19.2 secs

     total energy              =     -11.97054366 Ry
     Harris-Foulkes estimate   =     -12.11983530 Ry
     estimated scf accuracy    <       0.35440442 Ry
     electrostatic embedding   =       0.00000000 Ry
     correction to one-el term =       0.00000000 Ry

     total magnetization       =     3.00 Bohr mag/cell
     absolute magnetization    =     3.03 Bohr mag/cell

     iteration #  2     ecut=    30.00 Ry     beta=0.70
     Davidson diagonalization with overlap
     ethr =  7.09E-03,  avg # of iterations =  1.5

     negative rho (up, down):  6.703E-05 5.481E-05

     add environment contribution to local potential
     polarization accuracy = 4.7E-05, # of iterations =  10

     total cpu time spent up to now is       31.0 secs

     total energy              =     -12.05949983 Ry
     Harris-Foulkes estimate   =     -11.89971038 Ry
     estimated scf accuracy    <       0.00937031 Ry
     electrostatic embedding   =      -0.00414056 Ry
     correction to one-el term =      -0.14447234 Ry

     total magnetization       =     3.00 Bohr mag/cell
     absolute magnetization    =     3.00 Bohr mag/cell

     iteration #  3     ecut=    30.00 Ry     beta=0.70
     Davidson diagonalization with overlap
     ethr =  1.87E-04,  avg # of iterations =  5.5

     negative rho (up, down):  3.417E-05 3.128E-05

     Magnetic moment per site:
     atom:    1    charge:    0.8333    magn:    0.5924    constr:    0.0000
     atom:    2    charge:    0.4509    magn:    0.0564    constr:    0.0000

     total cpu time spent up to now is       36.8 secs

     End of self-consistent calculation

 ------ SPIN UP ------------


          k = 0.0000 0.0000 0.0000 ( 11060 PWs)   bands (ev):

   -15.9424  -9.0019  -5.9650  -5.9649  -0.7611   0.5987

 ------ SPIN DOWN ----------


          k = 0.0000 0.0000 0.0000 ( 11060 PWs)   bands (ev):

   -12.7450  -3.8760  -1.3926  -1.3916  -0.4855   0.8305

     the Fermi energy is    -4.8501 ev

!    total energy              =     -12.06640884 Ry
     Harris-Foulkes estimate   =     -11.98467322 Ry
     estimated scf accuracy    <       0.00180817 Ry

     The total energy is the sum of the following terms:

     one-electron contribution =     -18.02329013 Ry
     hartree contribution      =       9.76142606 Ry
     xc contribution           =      -3.96689785 Ry
     ewald contribution        =       0.24100845 Ry
     smearing contrib. (-TS)   =      -0.00000000 Ry
     electrostatic embedding   =      -0.00463305 Ry
     correction to one-el term =      -0.07402233 Ry

     total magnetization       =     3.00 Bohr mag/cell
     absolute magnetization    =     3.00 Bohr mag/cell

     convergence has been achieved in   3 iterations

     Forces acting on atoms (cartesian axes, Ry/au):

     atom    1 type  1   force =    -0.00019597    0.00025851   -0.03074242
     atom    2 type  2   force =     0.00019597   -0.00025851    0.03074242

     Total force =     0.043479     Total SCF correction =     0.016201
     SCF correction compared to forces is large: reduce conv_thr to get better values

     Writing output data file pwscf.save

     init_run     :      6.78s CPU      7.43s WALL (       1 calls)
     electrons    :     27.13s CPU     29.66s WALL (       1 calls)
     forces       :      1.39s CPU      1.57s WALL (       1 calls)

     Called by init_run:
     wfcinit      :      0.10s CPU      0.12s WALL (       1 calls)
     potinit      :      3.43s CPU      3.74s WALL (       1 calls)

     Called by electrons:
     c_bands      :      1.14s CPU      1.13s WALL (       3 calls)
     sum_band     :      3.65s CPU      3.58s WALL (       3 calls)
     v_of_rho     :     10.91s CPU     11.77s WALL (       4 calls)
     newd         :      1.57s CPU      2.05s WALL (       4 calls)
     mix_rho      :      0.57s CPU      0.66s WALL (       3 calls)

     Called by c_bands:
     init_us_2    :      0.04s CPU      0.06s WALL (      16 calls)
     regterg      :      1.11s CPU      1.09s WALL (       6 calls)

     Called by sum_band:
     sum_band:bec :      0.00s CPU      0.00s WALL (       6 calls)
     addusdens    :      2.30s CPU      2.16s WALL (       3 calls)

     Called by *egterg:
     h_psi        :      1.03s CPU      1.04s WALL (      35 calls)
     s_psi        :      0.02s CPU      0.01s WALL (      35 calls)
     g_psi        :      0.01s CPU      0.01s WALL (      27 calls)
     rdiaghg      :      0.00s CPU      0.00s WALL (      33 calls)

     Called by h_psi:
     h_psi:pot    :      1.02s CPU      1.03s WALL (      35 calls)
     h_psi:calbec :      0.01s CPU      0.02s WALL (      35 calls)
     vloc_psi     :      0.98s CPU      1.01s WALL (      35 calls)
     add_vuspsi   :      0.02s CPU      0.01s WALL (      35 calls)

     General routines
     calbec       :      0.02s CPU      0.02s WALL (      49 calls)
     fft          :     11.43s CPU     11.73s WALL (     217 calls)
     ffts         :      0.13s CPU      0.14s WALL (      14 calls)
     fftw         :      0.88s CPU      0.90s WALL (     160 calls)
     interpolate  :      1.03s CPU      1.15s WALL (      14 calls)
     davcio       :      0.00s CPU      0.00s WALL (       2 calls)


     Environ routines
     calc_eelect  :      0.01s CPU      0.01s WALL (       6 calls)
     calc_velect  :      8.53s CPU      9.49s WALL (       4 calls)
     dielectric   :      0.28s CPU      0.36s WALL (       4 calls)
     calc_felect  :      0.53s CPU      0.58s WALL (       1 calls)

     PWSCF        :    35.53s CPU        39.07s WALL


   This run was terminated on:  18: 0:25  13Nov2017            

=------------------------------------------------------------------------------=
   JOB DONE.
=------------------------------------------------------------------------------=

%%%% IONS %%%%%%%%%%%%%%%%%%%%%%%%%%%%%%%%%%%%%%%%%%%%%%%%%%%%%%%%%%%%%%%%%%%%%%
 number of ions             =          2
 ionic center of charge     =     -0.0000000    -0.0000000    -0.0060500
 total ionic charge         =     -5.0000000
 ionic dipole               =      0.0000000     0.0000000     0.0000000
 ionic quadrupole (pc)      =      0.0000000     0.0000000    -3.5869634
 ionic quadrupole (gauss)   =     -0.6250000    -0.6250000    -4.2119634
 ion   1 type =  1 coordinates =      0.0000000     0.0000000     0.3024960
 ion   2 type =  2 coordinates =      0.0000000     0.0000000    -1.8149799

%%%% SYSTEM %%%%%%%%%%%%%%%%%%%%%%%%%%%%%%%%%%%%%%%%%%%%%%%%%%%%%%%%%%%%%%%%%%%%
 system is built from all present ionic types
 system defined dimension   =  0 
 system defined axis        =  3 
 system center              =     -0.0000000    -0.0000000    -0.0060500 
 system width               =      0.0873059 

%%%% ELECTRONS %%%%%%%%%%%%%%%%%%%%%%%%%%%%%%%%%%%%%%%%%%%%%%%%%%%%%%%%%%%%%%%%%
 number of electrons        =          5
 total electronic charge    =      5.0000000
 number of spin components  =  2

%%%% BOUNDARY %%%%%%%%%%%%%%%%%%%%%%%%%%%%%%%%%%%%%%%%%%%%%%%%%%%%%%%%%%%%%%%%%%
 boundary mode              = electronic           
 boundary is built as a function of a smooth density
 function type              =  2 
 using the modified SCCS function with parameters 
 rhomax                     =      0.0050000 
 rhomin                     =      0.0001000 
 volume of the QM region    =    343.0871166 
 surface of the QM region   =    236.3138262 

%%%% DIELECTRIC %%%%%%%%%%%%%%%%%%%%%%%%%%%%%%%%%%%%%%%%%%%%%%%%%%%%%%%%%%%%%%%%%
 dielectric build on homogeneous background
 environment bulk permitt.  =    100.0000000 
 dielectric flags
 need gradient              =  F 
 need factor depend. sqrt   =  T 
 need gradient of logarithm =  T 

%%%% COMPUTE ELECTROSTATIC POTENTIAL %%%%%%%%%%%%%%%%%%%%%%%%%%%%%%%%%%%%%%%%%%%
 Iteration #          1
  pAp =    21.255914131827016       rzold =    20.769627178940947       alpha =   0.97712227524677764     
 delta_qm =   0.104527E-01 delta_en =   0.188801E+03 tol =   0.100000E-03
 Iteration #          2
  pAp =    133.03393017794284       rzold =    7.6388731317417999       alpha =    5.7420487551741388E-002
 delta_qm =   0.105514E-02 delta_en =   0.192384E+01 tol =   0.100000E-03
 Iteration #          3
  pAp =    9.5892751108841545E-002  rzold =    2.2611603242549138E-002  alpha =   0.23580096494347311     
 delta_qm =   0.350999E-03 delta_en =   0.212891E+00 tol =   0.100000E-03
 Iteration #          4
  pAp =    6.5018454348654629E-004  rzold =    3.8806911128938607E-004  alpha =   0.59685994565236244     
 delta_qm =   0.896320E-04 delta_en =   0.138826E-01 tol =   0.100000E-03
 Iteration #          5
  pAp =    4.7277697089133364E-004  rzold =    9.9445725170432960E-005  alpha =   0.21034384348913276     
 delta_qm =   0.459017E-04 delta_en =   0.364084E-02 tol =   0.100000E-03
 Iteration #          6
  pAp =    5.6485685302081384E-005  rzold =    1.6102042148270018E-005  alpha =   0.28506411955803412     
 delta_qm =   0.245311E-04 delta_en =   0.103987E-02 tol =   0.100000E-03
 Iteration #          7
  pAp =    1.0382431927410501E-006  rzold =    1.2850282775724608E-006  alpha =    1.2376948739532567     
 delta_qm =   0.216116E-04 delta_en =   0.807084E-03 tol =   0.100000E-03
 Iteration #          8
  pAp =    9.9332979240655734E-007  rzold =    8.9569838404761788E-007  alpha =   0.90171299692682516     
 delta_qm =   0.158443E-04 delta_en =   0.433800E-03 tol =   0.100000E-03
 Iteration #          9
  pAp =    1.0749163211608356E-006  rzold =    4.3532314360677377E-007  alpha =   0.40498328570977021     
 delta_qm =   0.100565E-04 delta_en =   0.174757E-03 tol =   0.100000E-03
 Iteration #         10
  pAp =    9.3305012782333746E-007  rzold =    3.6346777850904186E-007  alpha =   0.38954796497049554     
 delta_qm =   0.298984E-05 delta_en =   0.154469E-04 tol =   0.100000E-03
 Charges are converged, EXIT

%%%% ELECTRONS %%%%%%%%%%%%%%%%%%%%%%%%%%%%%%%%%%%%%%%%%%%%%%%%%%%%%%%%%%%%%%%%%
 number of electrons        =          5
 total electronic charge    =      5.0000000
 number of spin components  =  2

%%%% BOUNDARY %%%%%%%%%%%%%%%%%%%%%%%%%%%%%%%%%%%%%%%%%%%%%%%%%%%%%%%%%%%%%%%%%%
 boundary mode              = electronic           
 boundary is built as a function of a smooth density
 function type              =  2 
 using the modified SCCS function with parameters 
 rhomax                     =      0.0050000 
 rhomin                     =      0.0001000 
 volume of the QM region    =    347.9013684 
 surface of the QM region   =    238.6172209 

%%%% DIELECTRIC %%%%%%%%%%%%%%%%%%%%%%%%%%%%%%%%%%%%%%%%%%%%%%%%%%%%%%%%%%%%%%%%%
 dielectric build on homogeneous background
 environment bulk permitt.  =    100.0000000 
 dielectric flags
 need gradient              =  F 
 need factor depend. sqrt   =  T 
 need gradient of logarithm =  T 

%%%% COMPUTE ELECTROSTATIC POTENTIAL %%%%%%%%%%%%%%%%%%%%%%%%%%%%%%%%%%%%%%%%%%%
 Warning: bad guess with residual norm =   0.591373E+01, reset to no guess
 Iteration #          1
  pAp =    21.207660593455437       rzold =    20.890714010613280       alpha =   0.98505508981316103     
 delta_qm =   0.942072E-02 delta_en =   0.153360E+03 tol =   0.100000E-03
 Iteration #          2
  pAp =    88.892453794026522       rzold =    4.9781604064856664       alpha =    5.6002058600166500E-002
 delta_qm =   0.163581E-02 delta_en =   0.462392E+01 tol =   0.100000E-03
 Iteration #          3
  pAp =   0.30359410287594868       rzold =    5.5445147061404354E-002  alpha =   0.18262919647045894     
 delta_qm =   0.500555E-03 delta_en =   0.432960E+00 tol =   0.100000E-03
 Iteration #          4
  pAp =    1.8045785688113689E-002  rzold =    3.4266956271291737E-003  alpha =   0.18988896833603941     
 delta_qm =   0.286590E-03 delta_en =   0.141928E+00 tol =   0.100000E-03
 Iteration #          5
  pAp =    3.6631809247272400E-004  rzold =    2.2799110812971905E-004  alpha =   0.62238560642945928     
 delta_qm =   0.473204E-04 delta_en =   0.386938E-02 tol =   0.100000E-03
 Iteration #          6
  pAp =    3.6829962304921738E-005  rzold =    1.3311071906836935E-005  alpha =   0.36141964514196973     
 delta_qm =   0.284967E-04 delta_en =   0.140324E-02 tol =   0.100000E-03
 Iteration #          7
  pAp =    1.1537712636364221E-006  rzold =    1.1704794842528905E-006  alpha =    1.0144813977805340     
 delta_qm =   0.213962E-04 delta_en =   0.791074E-03 tol =   0.100000E-03
 Iteration #          8
  pAp =    9.6338712695491705E-007  rzold =    7.8402252081245419E-007  alpha =   0.81381876389671082     
 delta_qm =   0.182796E-04 delta_en =   0.577403E-03 tol =   0.100000E-03
 Iteration #          9
  pAp =    2.2218949099190997E-006  rzold =    6.4758567544805637E-007  alpha =   0.29145648273330593     
 delta_qm =   0.148619E-04 delta_en =   0.381675E-03 tol =   0.100000E-03
 Iteration #         10
  pAp =    4.5948524190253334E-007  rzold =    3.0932501761815978E-007  alpha =   0.67319902667031517     
 delta_qm =   0.519620E-05 delta_en =   0.466568E-04 tol =   0.100000E-03
 Charges are converged, EXIT

%%%% ELECTRONS %%%%%%%%%%%%%%%%%%%%%%%%%%%%%%%%%%%%%%%%%%%%%%%%%%%%%%%%%%%%%%%%%
 number of electrons        =          5
 total electronic charge    =      5.0000000
 number of spin components  =  2

%%%% BOUNDARY %%%%%%%%%%%%%%%%%%%%%%%%%%%%%%%%%%%%%%%%%%%%%%%%%%%%%%%%%%%%%%%%%%
 boundary mode              = electronic           
 boundary is built as a function of a smooth density
 function type              =  2 
 using the modified SCCS function with parameters 
 rhomax                     =      0.0050000 
 rhomin                     =      0.0001000 
 volume of the QM region    =    347.9013684 
 surface of the QM region   =    238.6172209 

%%%% DIELECTRIC %%%%%%%%%%%%%%%%%%%%%%%%%%%%%%%%%%%%%%%%%%%%%%%%%%%%%%%%%%%%%%%%%
 dielectric build on homogeneous background
 environment bulk permitt.  =    100.0000000 
 dielectric flags
 need gradient              =  F 
 need factor depend. sqrt   =  T 
 need gradient of logarithm =  T 
