
     Program PWSCF v.6.7MaX starts on 22Jan2021 at 12:44:41 

     This program is part of the open-source Quantum ESPRESSO suite
     for quantum simulation of materials; please cite
         "P. Giannozzi et al., J. Phys.:Condens. Matter 21 395502 (2009);
         "P. Giannozzi et al., J. Phys.:Condens. Matter 29 465901 (2017);
          URL http://www.quantum-espresso.org", 
     in publications or presentations arising from this work. More details at
     http://www.quantum-espresso.org/quote

     Parallel version (MPI), running on     1 processors

     MPI processes distributed on     1 nodes
     Reading input from radical.in

     Current dimensions of program PWSCF are:
     Max number of different atomic species (ntypx) = 10
     Max number of k-points (npk) =  40000
     Max angular momentum in pseudopotentials (lmaxx) =  3
     file C.pbe-rrkjus.UPF: wavefunction(s)  2S 2P renormalized
     file H.pbe-rrkjus.UPF: wavefunction(s)  1S renormalized

     gamma-point specific algorithms are used

     Subspace diagonalization in iterative solution of the eigenvalue problem:
     a serial algorithm will be used


     G-vector sticks info
     --------------------
     sticks:   dense  smooth     PW     G-vecs:    dense   smooth      PW
     Sum        9549    3809    949               701475   177509   22119



     bravais-lattice index     =            1
     lattice parameter (alat)  =      20.0000  a.u.
     unit-cell volume          =    8000.0000 (a.u.)^3
     number of atoms/cell      =            2
     number of atomic types    =            2
     number of electrons       =         5.00
     number of Kohn-Sham states=            6
     kinetic-energy cutoff     =      30.0000  Ry
     charge density cutoff     =     300.0000  Ry
     scf convergence threshold =      5.0E-03
     mixing beta               =       0.7000
     number of iterations used =            8  plain     mixing
     Exchange-correlation= SLA  PW   PBE  PBE
                           (   1   4   3   4   0   0   0)


     Environ Module
     ==============

     Plese cite
         O. Andreussi, I. Dabo and N. Marzari, J. Chem. Phys. 136, 064102 (2012)         
     in publications or presentations arising from this work.

     compensation onset threshold      =               0.1000E+03 

     Electrostatic Setup
     -------------------
     electrostatic problem to solve    = poisson                  
     numerical solver adopted          = direct                   
     type of auxiliary density adopted = none                     
     type of core tool for poisson     = fft                      



     celldm(1)=  20.000000  celldm(2)=   0.000000  celldm(3)=   0.000000
     celldm(4)=   0.000000  celldm(5)=   0.000000  celldm(6)=   0.000000

     crystal axes: (cart. coord. in units of alat)
               a(1) = (   1.000000   0.000000   0.000000 )  
               a(2) = (   0.000000   1.000000   0.000000 )  
               a(3) = (   0.000000   0.000000   1.000000 )  

     reciprocal axes: (cart. coord. in units 2 pi/alat)
               b(1) = (  1.000000  0.000000  0.000000 )  
               b(2) = (  0.000000  1.000000  0.000000 )  
               b(3) = (  0.000000  0.000000  1.000000 )  


     PseudoPot. # 1 for C  read from file:
     /Users/gabrielmedrano/Desktop/q-e/Environ/tests/../..//pseudo/C.pbe-rrkjus.UPF
     MD5 check sum: c9ac5a99bc85b198593446162950cd17
     Pseudo is Ultrasoft, Zval =  4.0
     Generated by new atomic code, or converted to UPF format
     Using radial grid of  627 points,  4 beta functions with: 
                l(1) =   0
                l(2) =   0
                l(3) =   1
                l(4) =   1
     Q(r) pseudized with 0 coefficients 


     PseudoPot. # 2 for H  read from file:
     /Users/gabrielmedrano/Desktop/q-e/Environ/tests/../..//pseudo/H.pbe-rrkjus.UPF
     MD5 check sum: 2d52a7f45632fd764c17cc6affed14c8
     Pseudo is Ultrasoft, Zval =  1.0
     Generated by new atomic code, or converted to UPF format
     Using radial grid of 1061 points,  2 beta functions with: 
                l(1) =   0
                l(2) =   0
     Q(r) pseudized with 0 coefficients 


     atomic species   valence    mass     pseudopotential
        C              4.00    12.00000     C ( 1.00)
        H              1.00     1.00000     H ( 1.00)

     Starting magnetic structure 
     atomic species   magnetization
        C            1.000
        H            0.000

     No symmetry found



   Cartesian axes

     site n.     atom                  positions (alat units)
         1           C   tau(   1) = (   0.0000000   0.0000000   0.0151248  )
         2           H   tau(   2) = (   0.0000000   0.0000000  -0.0907490  )

     number of k points=     1  Gaussian smearing, width (Ry)=  0.0100
                       cart. coord. in units 2pi/alat
        k(    1) = (   0.0000000   0.0000000   0.0000000), wk =   1.0000000

     Dense  grid:   350738 G-vectors     FFT dimensions: ( 120, 120, 120)

     Smooth grid:    88755 G-vectors     FFT dimensions: (  72,  72,  72)

     Estimated max dynamical RAM per process >     692.52 MB
     Generating pointlists ...
     new r_m :   0.0437 (alat units)  0.8735 (a.u.) for type    1
     new r_m :   0.0437 (alat units)  0.8735 (a.u.) for type    2

     Initial potential from superposition of free atoms

     starting charge    4.90374, renormalised to    5.00000

     negative rho (up, down):  3.659E-04 4.040E-04
     Starting wfcs are    5 randomized atomic wfcs +    1 random wfcs

     total cpu time spent up to now is        3.8 secs

     Self-consistent Calculation

     iteration #  1     ecut=    30.00 Ry     beta= 0.70
     Davidson diagonalization with overlap
     ethr =  1.00E-02,  avg # of iterations =  6.0

     negative rho (up, down):  1.124E-04 1.180E-04

     add environment contribution to local potential

     total cpu time spent up to now is        7.1 secs

     total energy              =     -11.97269032 Ry
     estimated scf accuracy    <       0.35147946 Ry
     electrostatic embedding   =       0.00000000 Ry
     correction to one-el term =      -0.00000000 Ry

     total magnetization       =     3.00 Bohr mag/cell
     absolute magnetization    =     3.03 Bohr mag/cell

     iteration #  2     ecut=    30.00 Ry     beta= 0.70
     Davidson diagonalization with overlap
     ethr =  7.03E-03,  avg # of iterations =  1.5

     negative rho (up, down):  6.514E-05 4.946E-05

     add environment contribution to local potential

     total cpu time spent up to now is       10.2 secs

     total energy              =     -12.05639235 Ry
     estimated scf accuracy    <       0.00877044 Ry
     electrostatic embedding   =       0.00001585 Ry
     correction to one-el term =       0.04490570 Ry

     total magnetization       =     3.00 Bohr mag/cell
     absolute magnetization    =     3.00 Bohr mag/cell

     iteration #  3     ecut=    30.00 Ry     beta= 0.70
     Davidson diagonalization with overlap
     ethr =  1.75E-04,  avg # of iterations =  7.0

     negative rho (up, down):  3.417E-05 3.114E-05

     the potential shift due to the Gaussian-smeared nuclei is    -0.0134 ev

     Magnetic moment per site:
     atom:    1    charge:    0.8283    magn:    0.5931    constr:    0.0000
     atom:    2    charge:    0.4590    magn:    0.0542    constr:    0.0000

     total cpu time spent up to now is       12.8 secs

     End of self-consistent calculation

 ------ SPIN UP ------------


          k = 0.0000 0.0000 0.0000 ( 11060 PWs)   bands (ev):

   -16.2227  -9.3277  -6.1528  -6.1527  -0.8406   0.4449

 ------ SPIN DOWN ----------


          k = 0.0000 0.0000 0.0000 ( 11060 PWs)   bands (ev):

   -13.0997  -4.1880  -1.5590  -1.5562  -0.5518   0.7183

     the Fermi energy is    -5.0202 ev

!    total energy              =     -12.06113771 Ry
     estimated scf accuracy    <       0.00156472 Ry
     smearing contrib. (-TS)   =      -0.00000000 Ry
     internal energy E=F+TS    =     -12.06113771 Ry

     The total energy is F=E-TS. E is the sum of the following terms:
     one-electron contribution =     -18.10632425 Ry
     hartree contribution      =       9.72818149 Ry
     xc contribution           =      -3.96202109 Ry
     ewald contribution        =       0.24100847 Ry
     electrostatic embedding   =       0.00000750 Ry
     correction to one-el term =       0.03801017 Ry

     WARNING: you are using the parabolic pbc correction;
              the potential shift above must be added to 
              band and Fermi energies.

     total magnetization       =     3.00 Bohr mag/cell
     absolute magnetization    =     3.00 Bohr mag/cell

     convergence has been achieved in   3 iterations
 forces lc
       1    0.0000    0.0000    0.0000
       2    0.0000    0.0000    0.0000

     Forces acting on atoms (cartesian axes, Ry/au):

     atom    1 type  1   force =    -0.00001965    0.00009424   -0.03429973
     atom    2 type  2   force =     0.00001965   -0.00009424    0.03429973

     Total force =     0.048507     Total SCF correction =     0.003811

     Writing output data file /Users/gabrielmedrano/Desktop/q-e/Environ/tests/../..//tempdir/pwscf.save/

     init_run     :      3.43s CPU      3.75s WALL (       1 calls)
     electrons    :      9.76s CPU      9.08s WALL (       1 calls)
     forces       :      0.78s CPU      0.79s WALL (       1 calls)

     Called by init_run:
     wfcinit      :      0.06s CPU      0.08s WALL (       1 calls)
     potinit      :      1.70s CPU      1.88s WALL (       1 calls)
     hinit0       :      1.09s CPU      1.15s WALL (       1 calls)

     Called by electrons:
     c_bands      :      0.66s CPU      0.63s WALL (       3 calls)
     sum_band     :      2.81s CPU      1.48s WALL (       3 calls)
     v_of_rho     :      4.89s CPU      5.48s WALL (       4 calls)
     newd         :      0.95s CPU      1.09s WALL (       4 calls)
     mix_rho      :      0.32s CPU      0.35s WALL (       3 calls)

     Called by c_bands:
     init_us_2    :      0.02s CPU      0.02s WALL (      16 calls)
     regterg      :      0.64s CPU      0.61s WALL (       6 calls)

     Called by *egterg:
     rdiaghg      :      0.00s CPU      0.00s WALL (      35 calls)
     h_psi        :      0.61s CPU      0.62s WALL (      37 calls)
     s_psi        :      0.01s CPU      0.01s WALL (      37 calls)
     g_psi        :      0.00s CPU      0.00s WALL (      29 calls)

     Called by h_psi:
     h_psi:calbec :      0.01s CPU      0.01s WALL (      37 calls)
     vloc_psi     :      0.57s CPU      0.57s WALL (      37 calls)
     add_vuspsi   :      0.03s CPU      0.03s WALL (      37 calls)

     General routines
     calbec       :      0.01s CPU      0.02s WALL (      51 calls)
     fft          :      2.97s CPU      3.00s WALL (      93 calls)
     ffts         :      0.07s CPU      0.07s WALL (      14 calls)
     fftw         :      0.50s CPU      0.51s WALL (     166 calls)
     interpolate  :      0.34s CPU      0.38s WALL (       8 calls)

     Parallel routines
     fft_scatt_xy :      0.05s CPU      0.05s WALL (      11 calls)
     fft_scatt_yz :      0.06s CPU      0.06s WALL (      11 calls)

     Environ routines
     calc_eelect  :      0.01s CPU      0.01s WALL (       6 calls)
     calc_velect  :      0.64s CPU      0.67s WALL (       4 calls)
     calc_felect  :      0.25s CPU      0.26s WALL (       1 calls)

     PWSCF        :     14.01s CPU     13.71s WALL


   This run was terminated on:  12:44:55  22Jan2021            

=------------------------------------------------------------------------------=
   JOB DONE.
=------------------------------------------------------------------------------=
 Calling electrostatic_initbase now
 electrolyte_distance:    0.0000000000000000     
 sc_distance:    0.0000000000000000     
 velectrostatic started
 vreference created

%%%% IONS %%%%%%%%%%%%%%%%%%%%%%%%%%%%%%%%%%%%%%%%%%%%%%%%%%%%%%%%%%%%%%%%%%%%%%
 number of ions             =          2
 ionic center of charge     =     -0.0000000    -0.0000000    -0.0060500
 total ionic charge         =     -5.0000000
 ionic dipole               =      0.0000000     0.0000000     0.0000000
 ionic quadrupole (pc)      =      0.0000000     0.0000000    -3.5869634
 ionic quadrupole (gauss)   =     -0.6250000    -0.6250000    -4.2119634
 ion   1 type =  1 coordinates =      0.0000000     0.0000000     0.3024960
 ion   2 type =  2 coordinates =      0.0000000     0.0000000    -1.8149799

%%%% SYSTEM %%%%%%%%%%%%%%%%%%%%%%%%%%%%%%%%%%%%%%%%%%%%%%%%%%%%%%%%%%%%%%%%%%%%
 system is built from all present ionic types
 system defined dimension   =  0 
 system defined axis        =  3 
 system center              =     -0.0000000    -0.0000000    -0.0060500 
 system width               =      0.0846990 

%%%% IONS %%%%%%%%%%%%%%%%%%%%%%%%%%%%%%%%%%%%%%%%%%%%%%%%%%%%%%%%%%%%%%%%%%%%%%
 number of ions             =          2
 ionic center of charge     =     -0.0000000    -0.0000000    -0.0060500
 total ionic charge         =     -5.0000000
 ionic dipole               =      0.0000000     0.0000000     0.0000000
 ionic quadrupole (pc)      =      0.0000000     0.0000000    -3.5869634
 ionic quadrupole (gauss)   =     -0.6250000    -0.6250000    -4.2119634
 ion   1 type =  1 coordinates =      0.0000000     0.0000000     0.3024960
 ion   2 type =  2 coordinates =      0.0000000     0.0000000    -1.8149799

%%%% SYSTEM %%%%%%%%%%%%%%%%%%%%%%%%%%%%%%%%%%%%%%%%%%%%%%%%%%%%%%%%%%%%%%%%%%%%
 system is built from all present ionic types
 system defined dimension   =  0 
 system defined axis        =  3 
 system center              =     -0.0000000    -0.0000000    -0.0060500 
 system width               =      0.0846990 

%%%% ELECTRONS %%%%%%%%%%%%%%%%%%%%%%%%%%%%%%%%%%%%%%%%%%%%%%%%%%%%%%%%%%%%%%%%%
 number of electrons        =          5
 total electronic charge    =      5.0000000

%%%% ELECTRONS %%%%%%%%%%%%%%%%%%%%%%%%%%%%%%%%%%%%%%%%%%%%%%%%%%%%%%%%%%%%%%%%%
 number of electrons        =          5
 total electronic charge    =      5.0000000

%%%% DENSITY %%%%%%%%%%%%%%%%%%%%%%%%%%%%%%%%%%%%%%%%%%%%%%%%%%%%%%%%%%%%%%%%%%%
 density label              = dvtot                                                                           
 integral of density        =      0.000000000    

%%%% DENSITY %%%%%%%%%%%%%%%%%%%%%%%%%%%%%%%%%%%%%%%%%%%%%%%%%%%%%%%%%%%%%%%%%%%
 density label              = vreference                                                                      
 integral of density        =      0.000000000    

%%%% DENSITY %%%%%%%%%%%%%%%%%%%%%%%%%%%%%%%%%%%%%%%%%%%%%%%%%%%%%%%%%%%%%%%%%%%
 density label              = velectrostatic                                                                  
 integral of density        =      0.000000000    

%%%% CHARGES %%%%%%%%%%%%%%%%%%%%%%%%%%%%%%%%%%%%%%%%%%%%%%%%%%%%%%%%%%%%%%%%%%%
 total number of charges    =          7
 total charge               =      0.0000000

%%%% ELECTRONS %%%%%%%%%%%%%%%%%%%%%%%%%%%%%%%%%%%%%%%%%%%%%%%%%%%%%%%%%%%%%%%%%
 number of electrons        =          5
 total electronic charge    =      5.0000000

%%%% ELECTRONS %%%%%%%%%%%%%%%%%%%%%%%%%%%%%%%%%%%%%%%%%%%%%%%%%%%%%%%%%%%%%%%%%
 number of electrons        =          5
 total electronic charge    =      5.0000000

%%%% DENSITY %%%%%%%%%%%%%%%%%%%%%%%%%%%%%%%%%%%%%%%%%%%%%%%%%%%%%%%%%%%%%%%%%%%
 density label              = vreference                                                                      
 integral of density        =     0.2928603861E-12

%%%% DENSITY %%%%%%%%%%%%%%%%%%%%%%%%%%%%%%%%%%%%%%%%%%%%%%%%%%%%%%%%%%%%%%%%%%%
 density label              = velectrostatic                                                                  
 integral of density        =     -71.95471252    

%%%% CHARGES %%%%%%%%%%%%%%%%%%%%%%%%%%%%%%%%%%%%%%%%%%%%%%%%%%%%%%%%%%%%%%%%%%%
 total number of charges    =          7
 total charge               =     -0.0000000

%%%% DENSITY %%%%%%%%%%%%%%%%%%%%%%%%%%%%%%%%%%%%%%%%%%%%%%%%%%%%%%%%%%%%%%%%%%%
 density label              = dvtot                                                                           
 integral of density        =     -71.95471252    

%%%% ELECTRONS %%%%%%%%%%%%%%%%%%%%%%%%%%%%%%%%%%%%%%%%%%%%%%%%%%%%%%%%%%%%%%%%%
 number of electrons        =          5
 total electronic charge    =      5.0000000

%%%% ELECTRONS %%%%%%%%%%%%%%%%%%%%%%%%%%%%%%%%%%%%%%%%%%%%%%%%%%%%%%%%%%%%%%%%%
 number of electrons        =          5
 total electronic charge    =      5.0000000

%%%% DENSITY %%%%%%%%%%%%%%%%%%%%%%%%%%%%%%%%%%%%%%%%%%%%%%%%%%%%%%%%%%%%%%%%%%%
 density label              = vreference                                                                      
 integral of density        =    -0.4615402710E-12

%%%% DENSITY %%%%%%%%%%%%%%%%%%%%%%%%%%%%%%%%%%%%%%%%%%%%%%%%%%%%%%%%%%%%%%%%%%%
 density label              = velectrostatic                                                                  
 integral of density        =     -60.80220200    

%%%% CHARGES %%%%%%%%%%%%%%%%%%%%%%%%%%%%%%%%%%%%%%%%%%%%%%%%%%%%%%%%%%%%%%%%%%%
 total number of charges    =          7
 total charge               =      0.0000000

%%%% DENSITY %%%%%%%%%%%%%%%%%%%%%%%%%%%%%%%%%%%%%%%%%%%%%%%%%%%%%%%%%%%%%%%%%%%
 density label              = dvtot                                                                           
 integral of density        =     -60.80220200    

%%%% ELECTRONS %%%%%%%%%%%%%%%%%%%%%%%%%%%%%%%%%%%%%%%%%%%%%%%%%%%%%%%%%%%%%%%%%
 number of electrons        =          5
 total electronic charge    =      5.0000000

%%%% ELECTRONS %%%%%%%%%%%%%%%%%%%%%%%%%%%%%%%%%%%%%%%%%%%%%%%%%%%%%%%%%%%%%%%%%
 number of electrons        =          5
 total electronic charge    =      5.0000000

%%%% DENSITY %%%%%%%%%%%%%%%%%%%%%%%%%%%%%%%%%%%%%%%%%%%%%%%%%%%%%%%%%%%%%%%%%%%
 density label              = dvtot                                                                           
 integral of density        =     -60.80220200    

%%%% DENSITY %%%%%%%%%%%%%%%%%%%%%%%%%%%%%%%%%%%%%%%%%%%%%%%%%%%%%%%%%%%%%%%%%%%
 density label              = vreference                                                                      
 integral of density        =    -0.4615402710E-12

%%%% DENSITY %%%%%%%%%%%%%%%%%%%%%%%%%%%%%%%%%%%%%%%%%%%%%%%%%%%%%%%%%%%%%%%%%%%
 density label              = velectrostatic                                                                  
 integral of density        =     -60.80220200    

%%%% CHARGES %%%%%%%%%%%%%%%%%%%%%%%%%%%%%%%%%%%%%%%%%%%%%%%%%%%%%%%%%%%%%%%%%%%
 total number of charges    =          7
 total charge               =      0.0000000
