
     Program PWSCF v.6.1 (svn rev. 13369) starts on 31Jan2018 at 22:23:15 

     This program is part of the open-source Quantum ESPRESSO suite
     for quantum simulation of materials; please cite
         "P. Giannozzi et al., J. Phys.:Condens. Matter 21 395502 (2009);
          URL http://www.quantum-espresso.org", 
     in publications or presentations arising from this work. More details at
     http://www.quantum-espresso.org/quote

     Parallel version (MPI), running on     1 processors
     Reading input from radical.in

     Current dimensions of program PWSCF are:
     Max number of different atomic species (ntypx) = 10
     Max number of k-points (npk) =  40000
     Max angular momentum in pseudopotentials (lmaxx) =  3
               file C.pbe-rrkjus.UPF: wavefunction(s)  2S 2P renormalized
               file H.pbe-rrkjus.UPF: wavefunction(s)  1S renormalized

     gamma-point specific algorithms are used

     Subspace diagonalization in iterative solution of the eigenvalue problem:
     a serial algorithm will be used

 
     G-vector sticks info
     --------------------
     sticks:   dense  smooth     PW     G-vecs:    dense   smooth      PW
     Sum        9549    3809    949               701475   177509   22119
 


     bravais-lattice index     =            1
     lattice parameter (alat)  =      20.0000  a.u.
     unit-cell volume          =    8000.0000 (a.u.)^3
     number of atoms/cell      =            2
     number of atomic types    =            2
     number of electrons       =         5.00
     number of Kohn-Sham states=            6
     kinetic-energy cutoff     =      30.0000  Ry
     charge density cutoff     =     300.0000  Ry
     convergence threshold     =      5.0E-03
     mixing beta               =       0.7000
     number of iterations used =            8  plain     mixing
     Exchange-correlation      =  SLA  PW   PBE  PBE ( 1  4  3  4 0 0)
 

     Environ Module
     ==============

     Plese cite
         O. Andreussi, I. Dabo and N. Marzari, J. Chem. Phys. 136, 064102 (2012)         
     in publications or presentations arising from this work.

     compensation onset threshold      =               0.1000E+03 
     static permittivity               =                   100.00 
     epsilon calculation mode          =               electronic 

     Electrostatic Setup
     -------------------
     electrostatic problem to solve    = generalized              
     numerical solver adopted          = cg                       
     type of auxiliary density adopted = none                     
     type of core tool for poisson     = fft                      
     type of core tool for s(r) deriv  = analytic                 



     celldm(1)=  20.000000  celldm(2)=   0.000000  celldm(3)=   0.000000
     celldm(4)=   0.000000  celldm(5)=   0.000000  celldm(6)=   0.000000

     crystal axes: (cart. coord. in units of alat)
               a(1) = (   1.000000   0.000000   0.000000 )  
               a(2) = (   0.000000   1.000000   0.000000 )  
               a(3) = (   0.000000   0.000000   1.000000 )  

     reciprocal axes: (cart. coord. in units 2 pi/alat)
               b(1) = (  1.000000  0.000000  0.000000 )  
               b(2) = (  0.000000  1.000000  0.000000 )  
               b(3) = (  0.000000  0.000000  1.000000 )  


     PseudoPot. # 1 for C  read from file:
     /home/fnattino/Programs/qe-6.1/Environ/tests/../..//pseudo/C.pbe-rrkjus.UPF
     MD5 check sum: 00fb224312de0c5b6853bd333518df6f
     Pseudo is Ultrasoft, Zval =  4.0
     Generated by new atomic code, or converted to UPF format
     Using radial grid of  627 points,  4 beta functions with: 
                l(1) =   0
                l(2) =   0
                l(3) =   1
                l(4) =   1
     Q(r) pseudized with 0 coefficients 


     PseudoPot. # 2 for H  read from file:
     /home/fnattino/Programs/qe-6.1/Environ/tests/../..//pseudo/H.pbe-rrkjus.UPF
     MD5 check sum: 7cc9d459525c9a0585f487a71c3c9563
     Pseudo is Ultrasoft, Zval =  1.0
     Generated by new atomic code, or converted to UPF format
     Using radial grid of 1061 points,  2 beta functions with: 
                l(1) =   0
                l(2) =   0
     Q(r) pseudized with 0 coefficients 


     atomic species   valence    mass     pseudopotential
        C              4.00    12.00000     C ( 1.00)
        H              1.00     1.00000     H ( 1.00)

     Starting magnetic structure 
     atomic species   magnetization
        C            1.000
        H            0.000

     No symmetry found



   Cartesian axes

     site n.     atom                  positions (alat units)
         1           C   tau(   1) = (   0.0000000   0.0000000   0.0151248  )
         2           H   tau(   2) = (   0.0000000   0.0000000  -0.0907490  )

     number of k points=     1  gaussian smearing, width (Ry)=  0.0100
                       cart. coord. in units 2pi/alat
        k(    1) = (   0.0000000   0.0000000   0.0000000), wk =   1.0000000

     Dense  grid:   350738 G-vectors     FFT dimensions: ( 120, 120, 120)

     Smooth grid:    88755 G-vectors     FFT dimensions: (  72,  72,  72)

     Estimated max dynamical RAM per process >     448.33MB
     Generating pointlists ...
     new r_m :   0.0437 (alat units)  0.8735 (a.u.) for type    1
     new r_m :   0.0437 (alat units)  0.8735 (a.u.) for type    2

     Initial potential from superposition of free atoms
     Check: negative starting charge=(component1):   -0.000359
     Check: negative starting charge=(component2):   -0.000396

     starting charge    4.90374, renormalised to    5.00000

     negative rho (up, down):  3.659E-04 4.040E-04
     Starting wfc are    5 randomized atomic wfcs +    1 random wfc

     total cpu time spent up to now is        4.1 secs

     per-process dynamical memory:   722.2 Mb

     Self-consistent Calculation

     iteration #  1     ecut=    30.00 Ry     beta=0.70
     Davidson diagonalization with overlap
     ethr =  1.00E-02,  avg # of iterations =  6.5

     negative rho (up, down):  1.124E-04 1.180E-04

     add environment contribution to local potential
     polarization accuracy = 5.9E-06, # of iterations =  11

     total cpu time spent up to now is        9.8 secs

     total energy              =     -11.97054366 Ry
     Harris-Foulkes estimate   =     -12.11983530 Ry
     estimated scf accuracy    <       0.35440442 Ry
     electrostatic embedding   =       0.00000000 Ry
     correction to one-el term =       0.00000000 Ry

     total magnetization       =     3.00 Bohr mag/cell
     absolute magnetization    =     3.03 Bohr mag/cell

     iteration #  2     ecut=    30.00 Ry     beta=0.70
     Davidson diagonalization with overlap
     ethr =  7.09E-03,  avg # of iterations =  1.5

     negative rho (up, down):  6.702E-05 5.481E-05

     add environment contribution to local potential
     polarization accuracy = 2.1E-06, # of iterations =  12

     total cpu time spent up to now is       15.9 secs

     total energy              =     -12.05871725 Ry
     Harris-Foulkes estimate   =     -11.89972245 Ry
     estimated scf accuracy    <       0.00937014 Ry
     electrostatic embedding   =      -0.00480171 Ry
     correction to one-el term =      -0.14301652 Ry

     total magnetization       =     3.00 Bohr mag/cell
     absolute magnetization    =     3.00 Bohr mag/cell

     iteration #  3     ecut=    30.00 Ry     beta=0.70
     Davidson diagonalization with overlap
     ethr =  1.87E-04,  avg # of iterations =  5.5

     negative rho (up, down):  3.417E-05 3.128E-05
 
     Magnetic moment per site:
     atom:    1    charge:    0.8333    magn:    0.5924    constr:    0.0000
     atom:    2    charge:    0.4509    magn:    0.0564    constr:    0.0000

     total cpu time spent up to now is       18.4 secs

     End of self-consistent calculation

 ------ SPIN UP ------------


          k = 0.0000 0.0000 0.0000 ( 11060 PWs)   bands (ev):

   -15.9425  -9.0020  -5.9651  -5.9650  -0.7611   0.5987

 ------ SPIN DOWN ----------


          k = 0.0000 0.0000 0.0000 ( 11060 PWs)   bands (ev):

   -12.7451  -3.8761  -1.3926  -1.3916  -0.4855   0.8305

     the Fermi energy is    -4.8501 ev

!    total energy              =     -12.06640881 Ry
     Harris-Foulkes estimate   =     -11.98469829 Ry
     estimated scf accuracy    <       0.00180814 Ry

     The total energy is the sum of the following terms:

     one-electron contribution =     -18.02333004 Ry
     hartree contribution      =       9.76144738 Ry
     xc contribution           =      -3.96690429 Ry
     ewald contribution        =       0.24100845 Ry
     smearing contrib. (-TS)   =      -0.00000000 Ry
     electrostatic embedding   =      -0.00463290 Ry
     correction to one-el term =      -0.07399742 Ry

     the Fermi energy shift due to the parabolic pbc-correction is    -0.0134 ev

     total magnetization       =     3.00 Bohr mag/cell
     absolute magnetization    =     3.00 Bohr mag/cell

     convergence has been achieved in   3 iterations

     Forces acting on atoms (cartesian axes, Ry/au):

     atom    1 type  1   force =    -0.00019409    0.00025945   -0.03075175
     atom    2 type  2   force =     0.00019409   -0.00025945    0.03075175

     Total force =     0.043492     Total SCF correction =     0.016201
     SCF correction compared to forces is large: reduce conv_thr to get better values

     Writing output data file pwscf.save
 
     init_run     :      3.84s CPU      4.02s WALL (       1 calls)
     electrons    :     13.80s CPU     14.46s WALL (       1 calls)
     forces       :      0.46s CPU      0.48s WALL (       1 calls)

     Called by init_run:
     wfcinit      :      0.05s CPU      0.05s WALL (       1 calls)
     potinit      :      2.09s CPU      2.17s WALL (       1 calls)

     Called by electrons:
     c_bands      :      0.61s CPU      0.61s WALL (       3 calls)
     sum_band     :      1.46s CPU      1.53s WALL (       3 calls)
     v_of_rho     :      4.77s CPU      4.91s WALL (       4 calls)
     newd         :      0.56s CPU      0.64s WALL (       4 calls)
     mix_rho      :      0.26s CPU      0.26s WALL (       3 calls)

     Called by c_bands:
     init_us_2    :      0.03s CPU      0.03s WALL (      16 calls)
     regterg      :      0.57s CPU      0.57s WALL (       6 calls)

     Called by sum_band:
     sum_band:bec :      0.00s CPU      0.00s WALL (       6 calls)
     addusdens    :      0.82s CPU      0.87s WALL (       3 calls)

     Called by *egterg:
     h_psi        :      0.56s CPU      0.55s WALL (      35 calls)
     s_psi        :      0.01s CPU      0.00s WALL (      35 calls)
     g_psi        :      0.00s CPU      0.01s WALL (      27 calls)
     rdiaghg      :      0.01s CPU      0.00s WALL (      33 calls)

     Called by h_psi:
     h_psi:pot    :      0.56s CPU      0.55s WALL (      35 calls)
     h_psi:calbec :      0.02s CPU      0.01s WALL (      35 calls)
     vloc_psi     :      0.54s CPU      0.53s WALL (      35 calls)
     add_vuspsi   :      0.00s CPU      0.01s WALL (      35 calls)

     General routines
     calbec       :      0.02s CPU      0.01s WALL (      49 calls)
     fft          :      5.14s CPU      5.30s WALL (     236 calls)
     ffts         :      0.05s CPU      0.05s WALL (      14 calls)
     fftw         :      0.40s CPU      0.40s WALL (     160 calls)
     interpolate  :      0.44s CPU      0.45s WALL (      14 calls)
     davcio       :      0.00s CPU      0.00s WALL (       2 calls)
 
     Parallel routines
     fft_scatter  :      1.34s CPU      1.42s WALL (     410 calls)
 
     Environ routines
     calc_eelect  :      0.01s CPU      0.01s WALL (       6 calls)
     calc_velect  :      5.21s CPU      5.59s WALL (       4 calls)
     dielectric   :      0.22s CPU      0.22s WALL (       5 calls)
     calc_felect  :      0.12s CPU      0.13s WALL (       1 calls)
 
     PWSCF        :    18.27s CPU        19.16s WALL

 
   This run was terminated on:  22:23:34  31Jan2018            

=------------------------------------------------------------------------------=
   JOB DONE.
=------------------------------------------------------------------------------=

%%%% IONS %%%%%%%%%%%%%%%%%%%%%%%%%%%%%%%%%%%%%%%%%%%%%%%%%%%%%%%%%%%%%%%%%%%%%%
 number of ions             =          2
 ionic center of charge     =      0.0000000     0.0000000    -0.0060500
 total ionic charge         =     -5.0000000
 ionic dipole               =      0.0000000     0.0000000     0.0000000
 ionic quadrupole (pc)      =      0.0000000     0.0000000    -3.5869634
 ionic quadrupole (gauss)   =     -0.6250000    -0.6250000    -4.2119634
 ion   1 type =  1 coordinates =      0.0000000     0.0000000     0.3024960
 ion   2 type =  2 coordinates =      0.0000000     0.0000000    -1.8149799

%%%% SYSTEM %%%%%%%%%%%%%%%%%%%%%%%%%%%%%%%%%%%%%%%%%%%%%%%%%%%%%%%%%%%%%%%%%%%%
 system is built from all present ionic types
 system defined dimension   =  0 
 system defined axis        =  3 
 system center              =      0.0000000     0.0000000    -0.0060500 
 system width               =      0.0846990 

%%%% ELECTRONS %%%%%%%%%%%%%%%%%%%%%%%%%%%%%%%%%%%%%%%%%%%%%%%%%%%%%%%%%%%%%%%%%
 number of electrons        =          5
 total electronic charge    =      5.0000000
 number of spin components  =  2

%%%% BOUNDARY %%%%%%%%%%%%%%%%%%%%%%%%%%%%%%%%%%%%%%%%%%%%%%%%%%%%%%%%%%%%%%%%%%
 boundary mode              = electronic           
 boundary is built as a function of a smooth density
 function type              =  2 
 using the modified SCCS function with parameters 
 rhomax                     =      0.0050000 
 rhomin                     =      0.0001000 
 volume of the QM region    =    563.6126730 
 surface of the QM region   =    325.2266645 

%%%% DIELECTRIC %%%%%%%%%%%%%%%%%%%%%%%%%%%%%%%%%%%%%%%%%%%%%%%%%%%%%%%%%%%%%%%%%
 dielectric build on homogeneous background
 environment bulk permitt.  =    100.0000000 
 dielectric flags
 need gradient              =  F 
 need factor depend. sqrt   =  T 
 total dielectric charge    =      0.0000000

%%%% ELECTRONS %%%%%%%%%%%%%%%%%%%%%%%%%%%%%%%%%%%%%%%%%%%%%%%%%%%%%%%%%%%%%%%%%
 number of electrons        =          5
 total electronic charge    =      5.0000000
 number of spin components  =  2

%%%% BOUNDARY %%%%%%%%%%%%%%%%%%%%%%%%%%%%%%%%%%%%%%%%%%%%%%%%%%%%%%%%%%%%%%%%%%
 boundary mode              = electronic           
 boundary is built as a function of a smooth density
 function type              =  2 
 using the modified SCCS function with parameters 
 rhomax                     =      0.0050000 
 rhomin                     =      0.0001000 
 volume of the QM region    =    343.0871166 
 surface of the QM region   =    236.3138262 

%%%% DIELECTRIC %%%%%%%%%%%%%%%%%%%%%%%%%%%%%%%%%%%%%%%%%%%%%%%%%%%%%%%%%%%%%%%%%
 dielectric build on homogeneous background
 environment bulk permitt.  =    100.0000000 
 dielectric flags
 need gradient              =  F 
 need factor depend. sqrt   =  T 
 total dielectric charge    =      0.0000000

%%%% COMPUTE ELECTROSTATIC POTENTIAL %%%%%%%%%%%%%%%%%%%%%%%%%%%%%%%%%%%%%%%%%%%
 Iteration #          1
  pAp =    21.2559141318229       rzold =    20.7696271789364       alpha = 
  0.977122275246755     
 delta_qm =   0.104527E-01 delta_en =   0.188801E+03 tol =   0.100000E-04
 Iteration #          2
  pAp =    133.033930178135       rzold =    7.63887313175283       alpha = 
  5.742048755174137E-002
 delta_qm =   0.105514E-02 delta_en =   0.192384E+01 tol =   0.100000E-04
 Iteration #          3
  pAp =   9.589275110891236E-002  rzold =   2.261160324256664E-002  alpha = 
  0.235800964943482     
 delta_qm =   0.350999E-03 delta_en =   0.212891E+00 tol =   0.100000E-04
 Iteration #          4
  pAp =   6.501845434880382E-004  rzold =   3.880691112898431E-004  alpha = 
  0.596859945651696     
 delta_qm =   0.896320E-04 delta_en =   0.138826E-01 tol =   0.100000E-04
 Iteration #          5
  pAp =   4.727769708977384E-004  rzold =   9.944572517150823E-005  alpha = 
  0.210343843488558     
 delta_qm =   0.459017E-04 delta_en =   0.364084E-02 tol =   0.100000E-04
 Iteration #          6
  pAp =   5.648568530193457E-005  rzold =   1.610204214828122E-005  alpha = 
  0.285064119558973     
 delta_qm =   0.245311E-04 delta_en =   0.103987E-02 tol =   0.100000E-04
 Iteration #          7
  pAp =   1.038243192739949E-006  rzold =   1.285028277569297E-006  alpha = 
   1.23769487395152     
 delta_qm =   0.216116E-04 delta_en =   0.807084E-03 tol =   0.100000E-04
 Iteration #          8
  pAp =   9.933297924028228E-007  rzold =   8.956983840443821E-007  alpha = 
  0.901712996926958     
 delta_qm =   0.158443E-04 delta_en =   0.433800E-03 tol =   0.100000E-04
 Iteration #          9
  pAp =   1.074916321173981E-006  rzold =   4.353231436077323E-007  alpha = 
  0.404983285705709     
 delta_qm =   0.100564E-04 delta_en =   0.174756E-03 tol =   0.100000E-04
 Iteration #         10
  pAp =   9.330501280382360E-007  rzold =   3.634677785210938E-007  alpha = 
  0.389547964893692     
 delta_qm =   0.298986E-05 delta_en =   0.154470E-04 tol =   0.100000E-04
 Iteration #         11
  pAp =   2.504428112427511E-008  rzold =   1.458564132568360E-008  alpha = 
  0.582394090423539     
 delta_qm =   0.184491E-05 delta_en =   0.588157E-05 tol =   0.100000E-04
 Charges are converged, EXIT

%%%% ELECTRONS %%%%%%%%%%%%%%%%%%%%%%%%%%%%%%%%%%%%%%%%%%%%%%%%%%%%%%%%%%%%%%%%%
 number of electrons        =          4
 total electronic charge    =      5.0000000
 number of spin components  =  2

%%%% BOUNDARY %%%%%%%%%%%%%%%%%%%%%%%%%%%%%%%%%%%%%%%%%%%%%%%%%%%%%%%%%%%%%%%%%%
 boundary mode              = electronic           
 boundary is built as a function of a smooth density
 function type              =  2 
 using the modified SCCS function with parameters 
 rhomax                     =      0.0050000 
 rhomin                     =      0.0001000 
 volume of the QM region    =    347.9003785 
 surface of the QM region   =    238.6168001 

%%%% DIELECTRIC %%%%%%%%%%%%%%%%%%%%%%%%%%%%%%%%%%%%%%%%%%%%%%%%%%%%%%%%%%%%%%%%%
 dielectric build on homogeneous background
 environment bulk permitt.  =    100.0000000 
 dielectric flags
 need gradient              =  F 
 need factor depend. sqrt   =  T 
 total dielectric charge    =     -0.0001660

%%%% COMPUTE ELECTROSTATIC POTENTIAL %%%%%%%%%%%%%%%%%%%%%%%%%%%%%%%%%%%%%%%%%%%
 Warning: bad guess with residual norm =   0.157641E+03, reset to no guess
 Iteration #          1
  pAp =    21.2076504203896       rzold =    20.8907066940302       alpha = 
  0.985055217335407     
 delta_qm =   0.942071E-02 delta_en =   0.153360E+03 tol =   0.100000E-04
 Iteration #          2
  pAp =    88.8921062306482       rzold =    4.97813062423129       alpha = 
  5.600194252698365E-002
 delta_qm =   0.163579E-02 delta_en =   0.462382E+01 tol =   0.100000E-04
 Iteration #          3
  pAp =   0.303586457336810       rzold =   5.544379411875253E-002  alpha = 
  0.182629339283212     
 delta_qm =   0.500553E-03 delta_en =   0.432956E+00 tol =   0.100000E-04
 Iteration #          4
  pAp =   1.804543769075691E-002  rzold =   3.426630342180626E-003  alpha = 
  0.189889012441953     
 delta_qm =   0.286592E-03 delta_en =   0.141929E+00 tol =   0.100000E-04
 Iteration #          5
  pAp =   3.663214455013496E-004  rzold =   2.279926467740725E-004  alpha = 
  0.622384109841127     
 delta_qm =   0.473199E-04 delta_en =   0.386929E-02 tol =   0.100000E-04
 Iteration #          6
  pAp =   3.682858846163672E-005  rzold =   1.331059490970938E-005  alpha = 
  0.361420175621845     
 delta_qm =   0.284969E-04 delta_en =   0.140326E-02 tol =   0.100000E-04
 Iteration #          7
  pAp =   1.153846418480260E-006  rzold =   1.170499989898832E-006  alpha = 
   1.01443309191921     
 delta_qm =   0.213961E-04 delta_en =   0.791066E-03 tol =   0.100000E-04
 Iteration #          8
  pAp =   9.642132112080927E-007  rzold =   7.841434670023532E-007  alpha = 
  0.813246964351251     
 delta_qm =   0.182810E-04 delta_en =   0.577487E-03 tol =   0.100000E-04
 Iteration #          9
  pAp =   2.228886253536504E-006  rzold =   6.491020250104019E-007  alpha = 
  0.291222588851491     
 delta_qm =   0.148667E-04 delta_en =   0.381922E-03 tol =   0.100000E-04
 Iteration #         10
  pAp =   4.582477069517452E-007  rzold =   3.089800466641259E-007  alpha = 
  0.674264250484645     
 delta_qm =   0.519589E-05 delta_en =   0.466512E-04 tol =   0.100000E-04
 Iteration #         11
  pAp =   5.750857759814792E-008  rzold =   3.348907715079897E-008  alpha = 
  0.582331863340635     
 delta_qm =   0.324634E-05 delta_en =   0.182109E-04 tol =   0.100000E-04
 Iteration #         12
  pAp =   1.008530869288561E-008  rzold =   1.002281573177018E-008  alpha = 
  0.993803564866635     
 delta_qm =   0.111013E-05 delta_en =   0.212957E-05 tol =   0.100000E-04
 Charges are converged, EXIT

%%%% ELECTRONS %%%%%%%%%%%%%%%%%%%%%%%%%%%%%%%%%%%%%%%%%%%%%%%%%%%%%%%%%%%%%%%%%
 number of electrons        =          4
 total electronic charge    =      5.0000000
 number of spin components  =  2

%%%% BOUNDARY %%%%%%%%%%%%%%%%%%%%%%%%%%%%%%%%%%%%%%%%%%%%%%%%%%%%%%%%%%%%%%%%%%
 boundary mode              = electronic           
 boundary is built as a function of a smooth density
 function type              =  2 
 using the modified SCCS function with parameters 
 rhomax                     =      0.0050000 
 rhomin                     =      0.0001000 
 volume of the QM region    =    347.9003785 
 surface of the QM region   =    238.6168001 

%%%% DIELECTRIC %%%%%%%%%%%%%%%%%%%%%%%%%%%%%%%%%%%%%%%%%%%%%%%%%%%%%%%%%%%%%%%%%
 dielectric build on homogeneous background
 environment bulk permitt.  =    100.0000000 
 dielectric flags
 need gradient              =  F 
 need factor depend. sqrt   =  T 
 total dielectric charge    =      0.0000745
