
     Program PWSCF v.6.3MaX starts on 21Apr2019 at 23:45:47 

     This program is part of the open-source Quantum ESPRESSO suite
     for quantum simulation of materials; please cite
         "P. Giannozzi et al., J. Phys.:Condens. Matter 21 395502 (2009);
         "P. Giannozzi et al., J. Phys.:Condens. Matter 29 465901 (2017);
          URL http://www.quantum-espresso.org", 
     in publications or presentations arising from this work. More details at
     http://www.quantum-espresso.org/quote

     Parallel version (MPI), running on     1 processors

     MPI processes distributed on     1 nodes
     Reading input from radical.in

     Current dimensions of program PWSCF are:
     Max number of different atomic species (ntypx) = 10
     Max number of k-points (npk) =  40000
     Max angular momentum in pseudopotentials (lmaxx) =  3
               file C.pbe-rrkjus.UPF: wavefunction(s)  2S 2P renormalized
               file H.pbe-rrkjus.UPF: wavefunction(s)  1S renormalized

     gamma-point specific algorithms are used

     Subspace diagonalization in iterative solution of the eigenvalue problem:
     a serial algorithm will be used

 
     G-vector sticks info
     --------------------
     sticks:   dense  smooth     PW     G-vecs:    dense   smooth      PW
     Sum        9549    3809    949               701475   177509   22119
 


     bravais-lattice index     =            1
     lattice parameter (alat)  =      20.0000  a.u.
     unit-cell volume          =    8000.0000 (a.u.)^3
     number of atoms/cell      =            2
     number of atomic types    =            2
     number of electrons       =         5.00
     number of Kohn-Sham states=            6
     kinetic-energy cutoff     =      30.0000  Ry
     charge density cutoff     =     300.0000  Ry
     convergence threshold     =      5.0E-03
     mixing beta               =       0.7000
     number of iterations used =            8  plain     mixing
     Exchange-correlation      = SLA PW PBE PBE ( 1  4  3  4 0 0)
 

     Environ Module
     ==============

     Plese cite
         O. Andreussi, I. Dabo and N. Marzari, J. Chem. Phys. 136, 064102 (2012)         
     in publications or presentations arising from this work.

     compensation onset threshold      =               0.1000E+03 
     static permittivity               =                   100.00 
     epsilon calculation mode          =               electronic 

     Electrostatic Setup
     -------------------
     electrostatic problem to solve    = generalized              
     numerical solver adopted          = cg                       
     type of auxiliary density adopted = none                     
     type of core tool for poisson     = fft                      
     type of core tool for s(r) deriv  = analytic                 



     celldm(1)=  20.000000  celldm(2)=   0.000000  celldm(3)=   0.000000
     celldm(4)=   0.000000  celldm(5)=   0.000000  celldm(6)=   0.000000

     crystal axes: (cart. coord. in units of alat)
               a(1) = (   1.000000   0.000000   0.000000 )  
               a(2) = (   0.000000   1.000000   0.000000 )  
               a(3) = (   0.000000   0.000000   1.000000 )  

     reciprocal axes: (cart. coord. in units 2 pi/alat)
               b(1) = (  1.000000  0.000000  0.000000 )  
               b(2) = (  0.000000  1.000000  0.000000 )  
               b(3) = (  0.000000  0.000000  1.000000 )  


     PseudoPot. # 1 for C  read from file:
     /home/fnattino/Programs/quantumespresso/q-e-qe-6.3-develop/Environ/tests/../..//pseudo/C.pbe-rrkjus.UPF
     MD5 check sum: c9ac5a99bc85b198593446162950cd17
     Pseudo is Ultrasoft, Zval =  4.0
     Generated by new atomic code, or converted to UPF format
     Using radial grid of  627 points,  4 beta functions with: 
                l(1) =   0
                l(2) =   0
                l(3) =   1
                l(4) =   1
     Q(r) pseudized with 0 coefficients 


     PseudoPot. # 2 for H  read from file:
     /home/fnattino/Programs/quantumespresso/q-e-qe-6.3-develop/Environ/tests/../..//pseudo/H.pbe-rrkjus.UPF
     MD5 check sum: 2d52a7f45632fd764c17cc6affed14c8
     Pseudo is Ultrasoft, Zval =  1.0
     Generated by new atomic code, or converted to UPF format
     Using radial grid of 1061 points,  2 beta functions with: 
                l(1) =   0
                l(2) =   0
     Q(r) pseudized with 0 coefficients 


     atomic species   valence    mass     pseudopotential
        C              4.00    12.00000     C ( 1.00)
        H              1.00     1.00000     H ( 1.00)

     Starting magnetic structure 
     atomic species   magnetization
        C            1.000
        H            0.000

     No symmetry found



   Cartesian axes

     site n.     atom                  positions (alat units)
         1           C   tau(   1) = (   0.0000000   0.0000000   0.0151248  )
         2           H   tau(   2) = (   0.0000000   0.0000000  -0.0907490  )

     number of k points=     1  gaussian smearing, width (Ry)=  0.0100
                       cart. coord. in units 2pi/alat
        k(    1) = (   0.0000000   0.0000000   0.0000000), wk =   1.0000000

     Dense  grid:   350738 G-vectors     FFT dimensions: ( 120, 120, 120)

     Smooth grid:    88755 G-vectors     FFT dimensions: (  72,  72,  72)

     Estimated max dynamical RAM per process >     710.31 MB
     Generating pointlists ...
     new r_m :   0.0437 (alat units)  0.8735 (a.u.) for type    1
     new r_m :   0.0437 (alat units)  0.8735 (a.u.) for type    2

     Initial potential from superposition of free atoms
     Check: negative starting charge=(component1):   -0.000359
     Check: negative starting charge=(component2):   -0.000396

     starting charge    4.90374, renormalised to    5.00000

     negative rho (up, down):  3.659E-04 4.040E-04
     Starting wfcs are    5 randomized atomic wfcs +    1 random wfcs

     total cpu time spent up to now is        3.7 secs

     Self-consistent Calculation

     iteration #  1     ecut=    30.00 Ry     beta= 0.70
     Davidson diagonalization with overlap
     ethr =  1.00E-02,  avg # of iterations =  6.5

     negative rho (up, down):  1.124E-04 1.180E-04

     add environment contribution to local potential
     polarization accuracy = 5.9E-06, # of iterations =  11

     total cpu time spent up to now is        9.5 secs

     total energy              =     -11.97054915 Ry
     Harris-Foulkes estimate   =     -12.11984104 Ry
     estimated scf accuracy    <       0.35440477 Ry
     electrostatic embedding   =       0.00000000 Ry
     correction to one-el term =       0.00000000 Ry

     total magnetization       =     3.00 Bohr mag/cell
     absolute magnetization    =     3.03 Bohr mag/cell

     iteration #  2     ecut=    30.00 Ry     beta= 0.70
     Davidson diagonalization with overlap
     ethr =  7.09E-03,  avg # of iterations =  1.5

     negative rho (up, down):  6.702E-05 5.481E-05

     add environment contribution to local potential
     polarization accuracy = 2.1E-06, # of iterations =  12

     total cpu time spent up to now is       15.5 secs

     total energy              =     -12.05872277 Ry
     Harris-Foulkes estimate   =     -11.89972794 Ry
     estimated scf accuracy    <       0.00937012 Ry
     electrostatic embedding   =      -0.00480171 Ry
     correction to one-el term =      -0.14301654 Ry

     total magnetization       =     3.00 Bohr mag/cell
     absolute magnetization    =     3.00 Bohr mag/cell

     iteration #  3     ecut=    30.00 Ry     beta= 0.70
     Davidson diagonalization with overlap
     ethr =  1.87E-04,  avg # of iterations =  5.5

     negative rho (up, down):  3.417E-05 3.128E-05

     the potential shift due to the Gaussian-smeared nuclei is    -0.0134 ev
 
     Magnetic moment per site:
     atom:    1    charge:    0.8333    magn:    0.5924    constr:    0.0000
     atom:    2    charge:    0.4509    magn:    0.0564    constr:    0.0000

     total cpu time spent up to now is       17.9 secs

     End of self-consistent calculation

 ------ SPIN UP ------------


          k = 0.0000 0.0000 0.0000 ( 11060 PWs)   bands (ev):

   -15.9425  -9.0020  -5.9651  -5.9650  -0.7611   0.5987

 ------ SPIN DOWN ----------


          k = 0.0000 0.0000 0.0000 ( 11060 PWs)   bands (ev):

   -12.7451  -3.8761  -1.3926  -1.3917  -0.4855   0.8305

     the Fermi energy is    -4.8501 ev

!    total energy              =     -12.06641435 Ry
     Harris-Foulkes estimate   =     -11.98470264 Ry
     estimated scf accuracy    <       0.00180814 Ry

     The total energy is the sum of the following terms:

     one-electron contribution =     -18.02332951 Ry
     hartree contribution      =       9.76144851 Ry
     xc contribution           =      -3.96691032 Ry
     ewald contribution        =       0.24100845 Ry
     smearing contrib. (-TS)   =      -0.00000000 Ry
     electrostatic embedding   =      -0.00463291 Ry
     correction to one-el term =      -0.07399858 Ry

     WARNING: you are using the parabolic pbc correction;
              the potential shift above must be added to 
              band and Fermi energies.

     total magnetization       =     3.00 Bohr mag/cell
     absolute magnetization    =     3.00 Bohr mag/cell

     convergence has been achieved in   3 iterations

     Forces acting on atoms (cartesian axes, Ry/au):

     atom    1 type  1   force =    -0.00019409    0.00025945   -0.03075215
     atom    2 type  2   force =     0.00019409   -0.00025945    0.03075215

     Total force =     0.043493     Total SCF correction =     0.016201
     SCF correction compared to forces is large: reduce conv_thr to get better values

     Writing output data file pwscf.save/
 
     init_run     :      3.06s CPU      3.48s WALL (       1 calls)
     electrons    :     12.81s CPU     14.19s WALL (       1 calls)
     forces       :      0.46s CPU      0.55s WALL (       1 calls)

     Called by init_run:
     wfcinit      :      0.07s CPU      0.07s WALL (       1 calls)
     potinit      :      1.92s CPU      2.10s WALL (       1 calls)
     hinit0       :      0.63s CPU      0.68s WALL (       1 calls)

     Called by electrons:
     c_bands      :      0.76s CPU      0.76s WALL (       3 calls)
     sum_band     :      0.98s CPU      1.14s WALL (       3 calls)
     v_of_rho     :      4.20s CPU      4.53s WALL (       4 calls)
     newd         :      0.65s CPU      0.89s WALL (       4 calls)
     mix_rho      :      0.22s CPU      0.23s WALL (       3 calls)

     Called by c_bands:
     init_us_2    :      0.02s CPU      0.03s WALL (      16 calls)
     regterg      :      0.74s CPU      0.73s WALL (       6 calls)

     Called by sum_band:
     sum_band:bec :      0.00s CPU      0.00s WALL (       6 calls)
     addusdens    :      0.67s CPU      0.83s WALL (       3 calls)

     Called by *egterg:
     h_psi        :      0.75s CPU      0.74s WALL (      35 calls)
     s_psi        :      0.00s CPU      0.00s WALL (      35 calls)
     g_psi        :      0.01s CPU      0.01s WALL (      27 calls)
     rdiaghg      :      0.00s CPU      0.00s WALL (      33 calls)

     Called by h_psi:
     h_psi:pot    :      0.75s CPU      0.74s WALL (      35 calls)
     h_psi:calbec :      0.01s CPU      0.01s WALL (      35 calls)
     vloc_psi     :      0.74s CPU      0.72s WALL (      35 calls)
     add_vuspsi   :      0.00s CPU      0.00s WALL (      35 calls)

     General routines
     calbec       :      0.01s CPU      0.01s WALL (      49 calls)
     fft          :      3.63s CPU      3.62s WALL (     202 calls)
     ffts         :      0.04s CPU      0.04s WALL (      14 calls)
     fftw         :      0.62s CPU      0.64s WALL (     160 calls)
     interpolate  :      0.22s CPU      0.21s WALL (       8 calls)
 
     Parallel routines
 
     Environ routines
     calc_eelect  :      0.01s CPU      0.01s WALL (       6 calls)
     calc_velect  :      5.13s CPU      5.79s WALL (       4 calls)
     dielectric   :      0.22s CPU      0.23s WALL (       5 calls)
     calc_felect  :      0.13s CPU      0.13s WALL (       1 calls)
 
     PWSCF        :    16.58s CPU        18.50s WALL

 
   This run was terminated on:  23:46: 5  21Apr2019            

=------------------------------------------------------------------------------=
   JOB DONE.
=------------------------------------------------------------------------------=

%%%% IONS %%%%%%%%%%%%%%%%%%%%%%%%%%%%%%%%%%%%%%%%%%%%%%%%%%%%%%%%%%%%%%%%%%%%%%
 number of ions             =          2
 ionic center of charge     =      0.0000000     0.0000000    -0.0060500
 total ionic charge         =     -5.0000000
 ionic dipole               =      0.0000000     0.0000000     0.0000000
 ionic quadrupole (pc)      =      0.0000000     0.0000000    -3.5869634
 ionic quadrupole (gauss)   =     -0.6250000    -0.6250000    -4.2119634
 ion   1 type =  1 coordinates =      0.0000000     0.0000000     0.3024960
 ion   2 type =  2 coordinates =      0.0000000     0.0000000    -1.8149799

%%%% SYSTEM %%%%%%%%%%%%%%%%%%%%%%%%%%%%%%%%%%%%%%%%%%%%%%%%%%%%%%%%%%%%%%%%%%%%
 system is built from all present ionic types
 system defined dimension   =  0 
 system defined axis        =  3 
 system center              =      0.0000000     0.0000000    -0.0060500 
 system width               =      0.0846990 

%%%% ELECTRONS %%%%%%%%%%%%%%%%%%%%%%%%%%%%%%%%%%%%%%%%%%%%%%%%%%%%%%%%%%%%%%%%%
 number of electrons        =          5
 total electronic charge    =      5.0000000
 number of spin components  =  2

%%%% BOUNDARY %%%%%%%%%%%%%%%%%%%%%%%%%%%%%%%%%%%%%%%%%%%%%%%%%%%%%%%%%%%%%%%%%%
 boundary label             = solvent              
 boundary mode              = electronic           
 boundary is built as a function of a smooth density
 function type              =  2 
 using the modified SCCS function with parameters 
 rhomax                     =      0.0050000 
 rhomin                     =      0.0001000 
 volume of the QM region    =    563.6126730 
 surface of the QM region   =    325.2266645 

%%%% DIELECTRIC %%%%%%%%%%%%%%%%%%%%%%%%%%%%%%%%%%%%%%%%%%%%%%%%%%%%%%%%%%%%%%%%%
 dielectric build on homogeneous background
 environment bulk permitt.  =    100.0000000 
 dielectric flags
 need gradient              =  F 
 need factor depend. sqrt   =  T 
 total dielectric charge    =      0.0000000

%%%% DENSITY %%%%%%%%%%%%%%%%%%%%%%%%%%%%%%%%%%%%%%%%%%%%%%%%%%%%%%%%%%%%%%%%%%%
 density label              = vreference                                                                      
 integral of density        =      0.000000000    

%%%% DENSITY %%%%%%%%%%%%%%%%%%%%%%%%%%%%%%%%%%%%%%%%%%%%%%%%%%%%%%%%%%%%%%%%%%%
 density label              = velectrostatic                                                                  
 integral of density        =      0.000000000    

%%%% CHARGES %%%%%%%%%%%%%%%%%%%%%%%%%%%%%%%%%%%%%%%%%%%%%%%%%%%%%%%%%%%%%%%%%%%
 total number of charges    =          7
 total charge               =      0.0000000

%%%% DENSITY %%%%%%%%%%%%%%%%%%%%%%%%%%%%%%%%%%%%%%%%%%%%%%%%%%%%%%%%%%%%%%%%%%%
 density label              = vsoftcavity                                                                     
 integral of density        =      0.000000000    

%%%% ELECTRONS %%%%%%%%%%%%%%%%%%%%%%%%%%%%%%%%%%%%%%%%%%%%%%%%%%%%%%%%%%%%%%%%%
 number of electrons        =          5
 total electronic charge    =      5.0000000
 number of spin components  =  2

%%%% BOUNDARY %%%%%%%%%%%%%%%%%%%%%%%%%%%%%%%%%%%%%%%%%%%%%%%%%%%%%%%%%%%%%%%%%%
 boundary label             = solvent              
 boundary mode              = electronic           
 boundary is built as a function of a smooth density
 function type              =  2 
 using the modified SCCS function with parameters 
 rhomax                     =      0.0050000 
 rhomin                     =      0.0001000 
 volume of the QM region    =    343.0870739 
 surface of the QM region   =    236.3138065 

%%%% DIELECTRIC %%%%%%%%%%%%%%%%%%%%%%%%%%%%%%%%%%%%%%%%%%%%%%%%%%%%%%%%%%%%%%%%%
 dielectric build on homogeneous background
 environment bulk permitt.  =    100.0000000 
 dielectric flags
 need gradient              =  F 
 need factor depend. sqrt   =  T 
 total dielectric charge    =      0.0000000

%%%% DENSITY %%%%%%%%%%%%%%%%%%%%%%%%%%%%%%%%%%%%%%%%%%%%%%%%%%%%%%%%%%%%%%%%%%%
 density label              = vreference                                                                      
 integral of density        =    -0.1085551402E-12

%%%% COMPUTE ELECTROSTATIC POTENTIAL %%%%%%%%%%%%%%%%%%%%%%%%%%%%%%%%%%%%%%%%%%%
 Iteration #          1
  pAp =    21.2559097553927       rzold =    20.7696228354116       alpha = 
  0.977122272084465     
 delta_qm =   0.104527E-01 delta_en =   0.188801E+03 tol =   0.100000E-04
 Iteration #          2
  pAp =    133.033895269475       rzold =    7.63887189393932       alpha = 
  5.742049331462437E-002
 delta_qm =   0.105514E-02 delta_en =   0.192383E+01 tol =   0.100000E-04
 Iteration #          3
  pAp =   9.589263819924938E-002  rzold =   2.261157860377468E-002  alpha = 
  0.235800985648048     
 delta_qm =   0.350999E-03 delta_en =   0.212891E+00 tol =   0.100000E-04
 Iteration #          4
  pAp =   6.501852450737255E-004  rzold =   3.880691471031390E-004  alpha = 
  0.596859356688624     
 delta_qm =   0.896323E-04 delta_en =   0.138827E-01 tol =   0.100000E-04
 Iteration #          5
  pAp =   4.727839754911575E-004  rzold =   9.944684804600035E-005  alpha = 
  0.210343102138114     
 delta_qm =   0.459017E-04 delta_en =   0.364084E-02 tol =   0.100000E-04
 Iteration #          6
  pAp =   5.648532942414060E-005  rzold =   1.610201550181052E-005  alpha = 
  0.285065443823523     
 delta_qm =   0.245311E-04 delta_en =   0.103987E-02 tol =   0.100000E-04
 Iteration #          7
  pAp =   1.038242450857865E-006  rzold =   1.285027919584829E-006  alpha = 
   1.23769541355495     
 delta_qm =   0.216116E-04 delta_en =   0.807084E-03 tol =   0.100000E-04
 Iteration #          8
  pAp =   9.933282873774435E-007  rzold =   8.956978232282662E-007  alpha = 
  0.901713798560053     
 delta_qm =   0.158443E-04 delta_en =   0.433799E-03 tol =   0.100000E-04
 Iteration #          9
  pAp =   1.074900572647257E-006  rzold =   4.353202360276457E-007  alpha = 
  0.404986514199674     
 delta_qm =   0.100564E-04 delta_en =   0.174754E-03 tol =   0.100000E-04
 Iteration #         10
  pAp =   9.330597840708903E-007  rzold =   3.634683652372994E-007  alpha = 
  0.389544562355379     
 delta_qm =   0.298986E-05 delta_en =   0.154471E-04 tol =   0.100000E-04
 Iteration #         11
  pAp =   2.504416908840963E-008  rzold =   1.458557645957807E-008  alpha = 
  0.582394105713343     
 delta_qm =   0.184490E-05 delta_en =   0.588151E-05 tol =   0.100000E-04
 Charges are converged, EXIT

%%%% DENSITY %%%%%%%%%%%%%%%%%%%%%%%%%%%%%%%%%%%%%%%%%%%%%%%%%%%%%%%%%%%%%%%%%%%
 density label              = velectrostatic                                                                  
 integral of density        =     -52.24421224    

%%%% CHARGES %%%%%%%%%%%%%%%%%%%%%%%%%%%%%%%%%%%%%%%%%%%%%%%%%%%%%%%%%%%%%%%%%%%
 total number of charges    =          7
 total charge               =      0.0000000

%%%% DENSITY %%%%%%%%%%%%%%%%%%%%%%%%%%%%%%%%%%%%%%%%%%%%%%%%%%%%%%%%%%%%%%%%%%%
 density label              = vsoftcavity                                                                     
 integral of density        =      2.566694917    

%%%% ELECTRONS %%%%%%%%%%%%%%%%%%%%%%%%%%%%%%%%%%%%%%%%%%%%%%%%%%%%%%%%%%%%%%%%%
 number of electrons        =          5
 total electronic charge    =      5.0000000
 number of spin components  =  2

%%%% BOUNDARY %%%%%%%%%%%%%%%%%%%%%%%%%%%%%%%%%%%%%%%%%%%%%%%%%%%%%%%%%%%%%%%%%%
 boundary label             = solvent              
 boundary mode              = electronic           
 boundary is built as a function of a smooth density
 function type              =  2 
 using the modified SCCS function with parameters 
 rhomax                     =      0.0050000 
 rhomin                     =      0.0001000 
 volume of the QM region    =    347.9003941 
 surface of the QM region   =    238.6168076 

%%%% DIELECTRIC %%%%%%%%%%%%%%%%%%%%%%%%%%%%%%%%%%%%%%%%%%%%%%%%%%%%%%%%%%%%%%%%%
 dielectric build on homogeneous background
 environment bulk permitt.  =    100.0000000 
 dielectric flags
 need gradient              =  F 
 need factor depend. sqrt   =  T 
 total dielectric charge    =     -0.0001659

%%%% DENSITY %%%%%%%%%%%%%%%%%%%%%%%%%%%%%%%%%%%%%%%%%%%%%%%%%%%%%%%%%%%%%%%%%%%
 density label              = vreference                                                                      
 integral of density        =    -0.1073380068E-12

%%%% COMPUTE ELECTROSTATIC POTENTIAL %%%%%%%%%%%%%%%%%%%%%%%%%%%%%%%%%%%%%%%%%%%
 Warning: bad guess with residual norm =   0.157641E+03, reset to no guess
 Iteration #          1
  pAp =    21.2076463516987       rzold =    20.8907027006984       alpha = 
  0.985055218021637     
 delta_qm =   0.942071E-02 delta_en =   0.153360E+03 tol =   0.100000E-04
 Iteration #          2
  pAp =    88.8920836893774       rzold =    4.97812971102790       alpha = 
  5.600194645479755E-002
 delta_qm =   0.163579E-02 delta_en =   0.462381E+01 tol =   0.100000E-04
 Iteration #          3
  pAp =   0.303585399947624       rzold =   5.544362157979917E-002  alpha = 
  0.182629407044491     
 delta_qm =   0.500552E-03 delta_en =   0.432955E+00 tol =   0.100000E-04
 Iteration #          4
  pAp =   1.804538718972126E-002  rzold =   3.426620761152237E-003  alpha = 
  0.189889012916501     
 delta_qm =   0.286592E-03 delta_en =   0.141929E+00 tol =   0.100000E-04
 Iteration #          5
  pAp =   3.663211284200059E-004  rzold =   2.279924754231221E-004  alpha = 
  0.622384180804655     
 delta_qm =   0.473198E-04 delta_en =   0.386927E-02 tol =   0.100000E-04
 Iteration #          6
  pAp =   3.682830566020045E-005  rzold =   1.331050172057547E-005  alpha = 
  0.361420420569601     
 delta_qm =   0.284968E-04 delta_en =   0.140326E-02 tol =   0.100000E-04
 Iteration #          7
  pAp =   1.153845690160545E-006  rzold =   1.170499483809752E-006  alpha = 
   1.01443329362949     
 delta_qm =   0.213961E-04 delta_en =   0.791066E-03 tol =   0.100000E-04
 Iteration #          8
  pAp =   9.642107061554395E-007  rzold =   7.841427509589933E-007  alpha = 
  0.813248334573649     
 delta_qm =   0.182810E-04 delta_en =   0.577487E-03 tol =   0.100000E-04
 Iteration #          9
  pAp =   2.228865099083888E-006  rzold =   6.490974761064952E-007  alpha = 
  0.291223311977602     
 delta_qm =   0.148667E-04 delta_en =   0.381920E-03 tol =   0.100000E-04
 Iteration #         10
  pAp =   4.582510612138442E-007  rzold =   3.089808608283205E-007  alpha = 
  0.674261091747115     
 delta_qm =   0.519592E-05 delta_en =   0.466518E-04 tol =   0.100000E-04
 Iteration #         11
  pAp =   5.750828313840018E-008  rzold =   3.348896302133298E-008  alpha = 
  0.582332860480950     
 delta_qm =   0.324622E-05 delta_en =   0.182096E-04 tol =   0.100000E-04
 Iteration #         12
  pAp =   1.007834378449803E-008  rzold =   1.002241844010323E-008  alpha = 
  0.994450939004400     
 delta_qm =   0.111541E-05 delta_en =   0.214988E-05 tol =   0.100000E-04
 Charges are converged, EXIT

%%%% DENSITY %%%%%%%%%%%%%%%%%%%%%%%%%%%%%%%%%%%%%%%%%%%%%%%%%%%%%%%%%%%%%%%%%%%
 density label              = velectrostatic                                                                  
 integral of density        =     -51.90655263    

%%%% CHARGES %%%%%%%%%%%%%%%%%%%%%%%%%%%%%%%%%%%%%%%%%%%%%%%%%%%%%%%%%%%%%%%%%%%
 total number of charges    =          7
 total charge               =      0.0000000

%%%% DENSITY %%%%%%%%%%%%%%%%%%%%%%%%%%%%%%%%%%%%%%%%%%%%%%%%%%%%%%%%%%%%%%%%%%%
 density label              = vsoftcavity                                                                     
 integral of density        =      2.395066916    

%%%% ELECTRONS %%%%%%%%%%%%%%%%%%%%%%%%%%%%%%%%%%%%%%%%%%%%%%%%%%%%%%%%%%%%%%%%%
 number of electrons        =          5
 total electronic charge    =      5.0000000
 number of spin components  =  2

%%%% BOUNDARY %%%%%%%%%%%%%%%%%%%%%%%%%%%%%%%%%%%%%%%%%%%%%%%%%%%%%%%%%%%%%%%%%%
 boundary label             = solvent              
 boundary mode              = electronic           
 boundary is built as a function of a smooth density
 function type              =  2 
 using the modified SCCS function with parameters 
 rhomax                     =      0.0050000 
 rhomin                     =      0.0001000 
 volume of the QM region    =    347.9003941 
 surface of the QM region   =    238.6168076 

%%%% DIELECTRIC %%%%%%%%%%%%%%%%%%%%%%%%%%%%%%%%%%%%%%%%%%%%%%%%%%%%%%%%%%%%%%%%%
 dielectric build on homogeneous background
 environment bulk permitt.  =    100.0000000 
 dielectric flags
 need gradient              =  F 
 need factor depend. sqrt   =  T 
 total dielectric charge    =      0.0000691

%%%% DENSITY %%%%%%%%%%%%%%%%%%%%%%%%%%%%%%%%%%%%%%%%%%%%%%%%%%%%%%%%%%%%%%%%%%%
 density label              = vreference                                                                      
 integral of density        =    -0.1073380068E-12

%%%% DENSITY %%%%%%%%%%%%%%%%%%%%%%%%%%%%%%%%%%%%%%%%%%%%%%%%%%%%%%%%%%%%%%%%%%%
 density label              = velectrostatic                                                                  
 integral of density        =     -51.90655263    

%%%% CHARGES %%%%%%%%%%%%%%%%%%%%%%%%%%%%%%%%%%%%%%%%%%%%%%%%%%%%%%%%%%%%%%%%%%%
 total number of charges    =          7
 total charge               =      0.0000000

%%%% DENSITY %%%%%%%%%%%%%%%%%%%%%%%%%%%%%%%%%%%%%%%%%%%%%%%%%%%%%%%%%%%%%%%%%%%
 density label              = vsoftcavity                                                                     
 integral of density        =      2.395066916    
