
     Program PWSCF v.6.7MaX starts on 22Jan2021 at 12:44:55 

     This program is part of the open-source Quantum ESPRESSO suite
     for quantum simulation of materials; please cite
         "P. Giannozzi et al., J. Phys.:Condens. Matter 21 395502 (2009);
         "P. Giannozzi et al., J. Phys.:Condens. Matter 29 465901 (2017);
          URL http://www.quantum-espresso.org", 
     in publications or presentations arising from this work. More details at
     http://www.quantum-espresso.org/quote

     Parallel version (MPI), running on     1 processors

     MPI processes distributed on     1 nodes
     Reading input from radical.in

     Current dimensions of program PWSCF are:
     Max number of different atomic species (ntypx) = 10
     Max number of k-points (npk) =  40000
     Max angular momentum in pseudopotentials (lmaxx) =  3
     file C.pbe-rrkjus.UPF: wavefunction(s)  2S 2P renormalized
     file H.pbe-rrkjus.UPF: wavefunction(s)  1S renormalized

     gamma-point specific algorithms are used

     Subspace diagonalization in iterative solution of the eigenvalue problem:
     a serial algorithm will be used


     G-vector sticks info
     --------------------
     sticks:   dense  smooth     PW     G-vecs:    dense   smooth      PW
     Sum        9549    3809    949               701475   177509   22119



     bravais-lattice index     =            1
     lattice parameter (alat)  =      20.0000  a.u.
     unit-cell volume          =    8000.0000 (a.u.)^3
     number of atoms/cell      =            2
     number of atomic types    =            2
     number of electrons       =         5.00
     number of Kohn-Sham states=            6
     kinetic-energy cutoff     =      30.0000  Ry
     charge density cutoff     =     300.0000  Ry
     scf convergence threshold =      5.0E-03
     mixing beta               =       0.7000
     number of iterations used =            8  plain     mixing
     Exchange-correlation= SLA  PW   PBE  PBE
                           (   1   4   3   4   0   0   0)


     Environ Module
     ==============

     Plese cite
         O. Andreussi, I. Dabo and N. Marzari, J. Chem. Phys. 136, 064102 (2012)         
     in publications or presentations arising from this work.

     compensation onset threshold      =               0.1000E+03 
     static permittivity               =                   100.00 
     epsilon calculation mode          =               electronic 

     Electrostatic Setup
     -------------------
     electrostatic problem to solve    = generalized              
     numerical solver adopted          = cg                       
     type of auxiliary density adopted = none                     
     type of core tool for poisson     = fft                      



     celldm(1)=  20.000000  celldm(2)=   0.000000  celldm(3)=   0.000000
     celldm(4)=   0.000000  celldm(5)=   0.000000  celldm(6)=   0.000000

     crystal axes: (cart. coord. in units of alat)
               a(1) = (   1.000000   0.000000   0.000000 )  
               a(2) = (   0.000000   1.000000   0.000000 )  
               a(3) = (   0.000000   0.000000   1.000000 )  

     reciprocal axes: (cart. coord. in units 2 pi/alat)
               b(1) = (  1.000000  0.000000  0.000000 )  
               b(2) = (  0.000000  1.000000  0.000000 )  
               b(3) = (  0.000000  0.000000  1.000000 )  


     PseudoPot. # 1 for C  read from file:
     /Users/gabrielmedrano/Desktop/q-e/Environ/tests/../..//pseudo/C.pbe-rrkjus.UPF
     MD5 check sum: c9ac5a99bc85b198593446162950cd17
     Pseudo is Ultrasoft, Zval =  4.0
     Generated by new atomic code, or converted to UPF format
     Using radial grid of  627 points,  4 beta functions with: 
                l(1) =   0
                l(2) =   0
                l(3) =   1
                l(4) =   1
     Q(r) pseudized with 0 coefficients 


     PseudoPot. # 2 for H  read from file:
     /Users/gabrielmedrano/Desktop/q-e/Environ/tests/../..//pseudo/H.pbe-rrkjus.UPF
     MD5 check sum: 2d52a7f45632fd764c17cc6affed14c8
     Pseudo is Ultrasoft, Zval =  1.0
     Generated by new atomic code, or converted to UPF format
     Using radial grid of 1061 points,  2 beta functions with: 
                l(1) =   0
                l(2) =   0
     Q(r) pseudized with 0 coefficients 


     atomic species   valence    mass     pseudopotential
        C              4.00    12.00000     C ( 1.00)
        H              1.00     1.00000     H ( 1.00)

     Starting magnetic structure 
     atomic species   magnetization
        C            1.000
        H            0.000

     No symmetry found



   Cartesian axes

     site n.     atom                  positions (alat units)
         1           C   tau(   1) = (   0.0000000   0.0000000   0.0151248  )
         2           H   tau(   2) = (   0.0000000   0.0000000  -0.0907490  )

     number of k points=     1  Gaussian smearing, width (Ry)=  0.0100
                       cart. coord. in units 2pi/alat
        k(    1) = (   0.0000000   0.0000000   0.0000000), wk =   1.0000000

     Dense  grid:   350738 G-vectors     FFT dimensions: ( 120, 120, 120)

     Smooth grid:    88755 G-vectors     FFT dimensions: (  72,  72,  72)

     Estimated max dynamical RAM per process >     692.52 MB
     Generating pointlists ...
     new r_m :   0.0437 (alat units)  0.8735 (a.u.) for type    1
     new r_m :   0.0437 (alat units)  0.8735 (a.u.) for type    2

     Initial potential from superposition of free atoms

     starting charge    4.90374, renormalised to    5.00000

     negative rho (up, down):  3.659E-04 4.040E-04
     Starting wfcs are    5 randomized atomic wfcs +    1 random wfcs

     total cpu time spent up to now is        4.3 secs

     Self-consistent Calculation

     iteration #  1     ecut=    30.00 Ry     beta= 0.70
     Davidson diagonalization with overlap
     ethr =  1.00E-02,  avg # of iterations =  6.0

     negative rho (up, down):  1.124E-04 1.180E-04

     add environment contribution to local potential
     polarization accuracy = 6.1E-06, # of iterations =  11

     total cpu time spent up to now is       11.1 secs

     total energy              =     -11.97269032 Ry
     estimated scf accuracy    <       0.35147946 Ry
     electrostatic embedding   =       0.00000000 Ry
     correction to one-el term =      -0.00000000 Ry

     total magnetization       =     3.00 Bohr mag/cell
     absolute magnetization    =     3.03 Bohr mag/cell

     iteration #  2     ecut=    30.00 Ry     beta= 0.70
     Davidson diagonalization with overlap
     ethr =  7.03E-03,  avg # of iterations =  1.5

     negative rho (up, down):  6.374E-05 5.053E-05

     add environment contribution to local potential
     polarization accuracy = 4.0E-06, # of iterations =  12

     total cpu time spent up to now is       18.3 secs

     total energy              =     -12.05885909 Ry
     estimated scf accuracy    <       0.00883809 Ry
     electrostatic embedding   =      -0.00480119 Ry
     correction to one-el term =      -0.14298733 Ry

     total magnetization       =     3.00 Bohr mag/cell
     absolute magnetization    =     3.00 Bohr mag/cell

     iteration #  3     ecut=    30.00 Ry     beta= 0.70
     Davidson diagonalization with overlap
     ethr =  1.77E-04,  avg # of iterations =  6.0

     negative rho (up, down):  3.253E-05 3.112E-05

     the potential shift due to the Gaussian-smeared nuclei is    -0.0134 ev

     Magnetic moment per site:
     atom:    1    charge:    0.8319    magn:    0.5923    constr:    0.0000
     atom:    2    charge:    0.4507    magn:    0.0558    constr:    0.0000

     total cpu time spent up to now is       21.4 secs

     End of self-consistent calculation

 ------ SPIN UP ------------


          k = 0.0000 0.0000 0.0000 ( 11060 PWs)   bands (ev):

   -15.9068  -8.9745  -5.9342  -5.9341  -0.7578   0.6346

 ------ SPIN DOWN ----------


          k = 0.0000 0.0000 0.0000 ( 11060 PWs)   bands (ev):

   -12.7115  -3.8570  -1.3715  -1.3678  -0.4839   0.8769

     the Fermi energy is    -4.8074 ev

!    total energy              =     -12.06642107 Ry
     estimated scf accuracy    <       0.00192271 Ry
     smearing contrib. (-TS)   =      -0.00000000 Ry
     internal energy E=F+TS    =     -12.06642107 Ry

     The total energy is F=E-TS. E is the sum of the following terms:
     one-electron contribution =     -18.01115993 Ry
     hartree contribution      =       9.74308560 Ry
     xc contribution           =      -3.96157291 Ry
     ewald contribution        =       0.24100847 Ry
     electrostatic embedding   =      -0.00463859 Ry
     correction to one-el term =      -0.07314371 Ry

     WARNING: you are using the parabolic pbc correction;
              the potential shift above must be added to 
              band and Fermi energies.

     total magnetization       =     3.00 Bohr mag/cell
     absolute magnetization    =     3.00 Bohr mag/cell

     convergence has been achieved in   3 iterations
 forces lc
       1    0.0001   -0.0001   -0.0101
       2    0.0000   -0.0000   -0.0213

     Forces acting on atoms (cartesian axes, Ry/au):

     atom    1 type  1   force =    -0.00006068    0.00009970   -0.02872322
     atom    2 type  2   force =     0.00006068   -0.00009970    0.02872322

     Total force =     0.040621     Total SCF correction =     0.019114
     SCF correction compared to forces is large: reduce conv_thr to get better values

     Writing output data file /Users/gabrielmedrano/Desktop/q-e/Environ/tests/../..//tempdir/pwscf.save/

     init_run     :      3.93s CPU      4.30s WALL (       1 calls)
     electrons    :     17.40s CPU     17.11s WALL (       1 calls)
     forces       :      0.80s CPU      0.79s WALL (       1 calls)

     Called by init_run:
     wfcinit      :      0.06s CPU      0.08s WALL (       1 calls)
     potinit      :      2.18s CPU      2.37s WALL (       1 calls)
     hinit0       :      1.07s CPU      1.13s WALL (       1 calls)

     Called by electrons:
     c_bands      :      0.64s CPU      0.60s WALL (       3 calls)
     sum_band     :      2.79s CPU      1.48s WALL (       3 calls)
     v_of_rho     :      4.85s CPU      5.41s WALL (       4 calls)
     newd         :      0.95s CPU      1.07s WALL (       4 calls)
     mix_rho      :      0.33s CPU      0.36s WALL (       3 calls)

     Called by c_bands:
     init_us_2    :      0.02s CPU      0.02s WALL (      16 calls)
     regterg      :      0.62s CPU      0.58s WALL (       6 calls)

     Called by *egterg:
     rdiaghg      :      0.00s CPU      0.00s WALL (      33 calls)
     h_psi        :      0.59s CPU      0.59s WALL (      35 calls)
     s_psi        :      0.01s CPU      0.00s WALL (      35 calls)
     g_psi        :      0.00s CPU      0.00s WALL (      27 calls)

     Called by h_psi:
     h_psi:calbec :      0.01s CPU      0.01s WALL (      35 calls)
     vloc_psi     :      0.55s CPU      0.55s WALL (      35 calls)
     add_vuspsi   :      0.03s CPU      0.02s WALL (      35 calls)

     General routines
     calbec       :      0.01s CPU      0.02s WALL (      49 calls)
     fft          :      6.40s CPU      6.56s WALL (     177 calls)
     ffts         :      0.07s CPU      0.07s WALL (      14 calls)
     fftw         :      0.49s CPU      0.49s WALL (     162 calls)
     interpolate  :      0.34s CPU      0.37s WALL (       8 calls)

     Parallel routines
     fft_scatt_xy :      0.41s CPU      0.42s WALL (      95 calls)
     fft_scatt_yz :      0.55s CPU      0.55s WALL (      95 calls)

     Environ routines
     calc_eelect  :      0.01s CPU      0.01s WALL (       6 calls)
     calc_velect  :      5.95s CPU      6.24s WALL (       4 calls)
     dielectric   :      0.18s CPU      0.20s WALL (       5 calls)
     calc_felect  :      0.26s CPU      0.27s WALL (       1 calls)

     PWSCF        :     22.17s CPU     22.32s WALL


   This run was terminated on:  12:45:17  22Jan2021            

=------------------------------------------------------------------------------=
   JOB DONE.
=------------------------------------------------------------------------------=
 Calling electrostatic_initbase now
 electrolyte_distance:    0.0000000000000000     
 sc_distance:    0.0000000000000000     
 velectrostatic started
 vreference created

%%%% IONS %%%%%%%%%%%%%%%%%%%%%%%%%%%%%%%%%%%%%%%%%%%%%%%%%%%%%%%%%%%%%%%%%%%%%%
 number of ions             =          2
 ionic center of charge     =     -0.0000000    -0.0000000    -0.0060500
 total ionic charge         =     -5.0000000
 ionic dipole               =      0.0000000     0.0000000     0.0000000
 ionic quadrupole (pc)      =      0.0000000     0.0000000    -3.5869634
 ionic quadrupole (gauss)   =     -0.6250000    -0.6250000    -4.2119634
 ion   1 type =  1 coordinates =      0.0000000     0.0000000     0.3024960
 ion   2 type =  2 coordinates =      0.0000000     0.0000000    -1.8149799

%%%% SYSTEM %%%%%%%%%%%%%%%%%%%%%%%%%%%%%%%%%%%%%%%%%%%%%%%%%%%%%%%%%%%%%%%%%%%%
 system is built from all present ionic types
 system defined dimension   =  0 
 system defined axis        =  3 
 system center              =     -0.0000000    -0.0000000    -0.0060500 
 system width               =      0.0846990 

%%%% IONS %%%%%%%%%%%%%%%%%%%%%%%%%%%%%%%%%%%%%%%%%%%%%%%%%%%%%%%%%%%%%%%%%%%%%%
 number of ions             =          2
 ionic center of charge     =     -0.0000000    -0.0000000    -0.0060500
 total ionic charge         =     -5.0000000
 ionic dipole               =      0.0000000     0.0000000     0.0000000
 ionic quadrupole (pc)      =      0.0000000     0.0000000    -3.5869634
 ionic quadrupole (gauss)   =     -0.6250000    -0.6250000    -4.2119634
 ion   1 type =  1 coordinates =      0.0000000     0.0000000     0.3024960
 ion   2 type =  2 coordinates =      0.0000000     0.0000000    -1.8149799

%%%% SYSTEM %%%%%%%%%%%%%%%%%%%%%%%%%%%%%%%%%%%%%%%%%%%%%%%%%%%%%%%%%%%%%%%%%%%%
 system is built from all present ionic types
 system defined dimension   =  0 
 system defined axis        =  3 
 system center              =     -0.0000000    -0.0000000    -0.0060500 
 system width               =      0.0846990 

%%%% ELECTRONS %%%%%%%%%%%%%%%%%%%%%%%%%%%%%%%%%%%%%%%%%%%%%%%%%%%%%%%%%%%%%%%%%
 number of electrons        =          5
 total electronic charge    =      5.0000000

%%%% ELECTRONS %%%%%%%%%%%%%%%%%%%%%%%%%%%%%%%%%%%%%%%%%%%%%%%%%%%%%%%%%%%%%%%%%
 number of electrons        =          5
 total electronic charge    =      5.0000000

%%%% BOUNDARY %%%%%%%%%%%%%%%%%%%%%%%%%%%%%%%%%%%%%%%%%%%%%%%%%%%%%%%%%%%%%%%%%%
 boundary label             = solvent              
 boundary mode              = electronic           
 boundary is built as a function of a smooth density
 function type              =  2 
 using the modified SCCS function with parameters 
 rhomax                     =      0.0050000 
 rhomin                     =      0.0001000 
 volume of the QM region    =    563.6126728 
 surface of the QM region   =    325.2266644 

%%%% DIELECTRIC %%%%%%%%%%%%%%%%%%%%%%%%%%%%%%%%%%%%%%%%%%%%%%%%%%%%%%%%%%%%%%%%%
 dielectric build on homogeneous background
 environment bulk permitt.  =    100.0000000 
 dielectric flags
 need gradient              =  F 
 need factor depend. sqrt   =  T 
 total dielectric charge    =      0.0000000

%%%% DENSITY %%%%%%%%%%%%%%%%%%%%%%%%%%%%%%%%%%%%%%%%%%%%%%%%%%%%%%%%%%%%%%%%%%%
 density label              = dvtot                                                                           
 integral of density        =      0.000000000    

%%%% DENSITY %%%%%%%%%%%%%%%%%%%%%%%%%%%%%%%%%%%%%%%%%%%%%%%%%%%%%%%%%%%%%%%%%%%
 density label              = vreference                                                                      
 integral of density        =      0.000000000    

%%%% DENSITY %%%%%%%%%%%%%%%%%%%%%%%%%%%%%%%%%%%%%%%%%%%%%%%%%%%%%%%%%%%%%%%%%%%
 density label              = velectrostatic                                                                  
 integral of density        =      0.000000000    

%%%% CHARGES %%%%%%%%%%%%%%%%%%%%%%%%%%%%%%%%%%%%%%%%%%%%%%%%%%%%%%%%%%%%%%%%%%%
 total number of charges    =          7
 total charge               =      0.0000000

%%%% DENSITY %%%%%%%%%%%%%%%%%%%%%%%%%%%%%%%%%%%%%%%%%%%%%%%%%%%%%%%%%%%%%%%%%%%
 density label              = vsoftcavity                                                                     
 integral of density        =      0.000000000    

%%%% ELECTRONS %%%%%%%%%%%%%%%%%%%%%%%%%%%%%%%%%%%%%%%%%%%%%%%%%%%%%%%%%%%%%%%%%
 number of electrons        =          5
 total electronic charge    =      5.0000000

%%%% ELECTRONS %%%%%%%%%%%%%%%%%%%%%%%%%%%%%%%%%%%%%%%%%%%%%%%%%%%%%%%%%%%%%%%%%
 number of electrons        =          5
 total electronic charge    =      5.0000000

%%%% BOUNDARY %%%%%%%%%%%%%%%%%%%%%%%%%%%%%%%%%%%%%%%%%%%%%%%%%%%%%%%%%%%%%%%%%%
 boundary label             = solvent              
 boundary mode              = electronic           
 boundary is built as a function of a smooth density
 function type              =  2 
 using the modified SCCS function with parameters 
 rhomax                     =      0.0050000 
 rhomin                     =      0.0001000 
 volume of the QM region    =    343.9035718 
 surface of the QM region   =    236.6817259 

%%%% DIELECTRIC %%%%%%%%%%%%%%%%%%%%%%%%%%%%%%%%%%%%%%%%%%%%%%%%%%%%%%%%%%%%%%%%%
 dielectric build on homogeneous background
 environment bulk permitt.  =    100.0000000 
 dielectric flags
 need gradient              =  F 
 need factor depend. sqrt   =  T 
 total dielectric charge    =      0.0000000

%%%% DENSITY %%%%%%%%%%%%%%%%%%%%%%%%%%%%%%%%%%%%%%%%%%%%%%%%%%%%%%%%%%%%%%%%%%%
 density label              = vreference                                                                      
 integral of density        =     0.2686904197E-12

%%%% COMPUTE ELECTROSTATIC POTENTIAL %%%%%%%%%%%%%%%%%%%%%%%%%%%%%%%%%%%%%%%%%%%
 Iteration #          1
  pAp =    21.279554159216403       rzold =    20.792434531936468       alpha =   0.97710856046911310     
 delta_qm =   0.104471E-01 delta_en =   0.188596E+03 tol =   0.100000E-04
 Iteration #          2
  pAp =    133.13001051431675       rzold =    7.6482991097639639       alpha =    5.7449849813851463E-002
 delta_qm =   0.105334E-02 delta_en =   0.191726E+01 tol =   0.100000E-04
 Iteration #          3
  pAp =    9.5672880540882160E-002  rzold =    2.2549710557254642E-002  alpha =   0.23569595092957280     
 delta_qm =   0.351083E-03 delta_en =   0.212992E+00 tol =   0.100000E-04
 Iteration #          4
  pAp =    7.2716706981124112E-004  rzold =    3.9922980963822736E-004  alpha =   0.54902074944326051     
 delta_qm =   0.114239E-03 delta_en =   0.225514E-01 tol =   0.100000E-04
 Iteration #          5
  pAp =    8.7502451634081935E-004  rzold =    1.7372548308982369E-004  alpha =   0.19853784647807302     
 delta_qm =   0.472260E-04 delta_en =   0.385396E-02 tol =   0.100000E-04
 Iteration #          6
  pAp =    4.8316732728718503E-005  rzold =    1.5819093608971539E-005  alpha =   0.32740404235920084     
 delta_qm =   0.245468E-04 delta_en =   0.104120E-02 tol =   0.100000E-04
 Iteration #          7
  pAp =    1.0221267304143822E-006  rzold =    1.2784838107556240E-006  alpha =    1.2508075297446841     
 delta_qm =   0.216623E-04 delta_en =   0.810876E-03 tol =   0.100000E-04
 Iteration #          8
  pAp =    9.8469492608548753E-007  rzold =    8.9372096583974840E-007  alpha =   0.90761203512300714     
 delta_qm =   0.157602E-04 delta_en =   0.429208E-03 tol =   0.100000E-04
 Iteration #          9
  pAp =    9.2869601820451712E-007  rzold =    4.1097143175154161E-007  alpha =   0.44252524367024648     
 delta_qm =   0.948972E-05 delta_en =   0.155615E-03 tol =   0.100000E-04
 Iteration #         10
  pAp =    1.0480271474410863E-006  rzold =    3.6998852773380084E-007  alpha =   0.35303334330335112     
 delta_qm =   0.296298E-05 delta_en =   0.151705E-04 tol =   0.100000E-04
 Iteration #         11
  pAp =    2.7706289095736358E-008  rzold =    1.5067617128332579E-008  alpha =   0.54383382329794905     
 delta_qm =   0.187512E-05 delta_en =   0.607579E-05 tol =   0.100000E-04
 Charges are converged, EXIT

%%%% DENSITY %%%%%%%%%%%%%%%%%%%%%%%%%%%%%%%%%%%%%%%%%%%%%%%%%%%%%%%%%%%%%%%%%%%
 density label              = velectrostatic                                                                  
 integral of density        =     -52.37548440    

%%%% CHARGES %%%%%%%%%%%%%%%%%%%%%%%%%%%%%%%%%%%%%%%%%%%%%%%%%%%%%%%%%%%%%%%%%%%
 total number of charges    =          7
 total charge               =     -0.0000000

%%%% DENSITY %%%%%%%%%%%%%%%%%%%%%%%%%%%%%%%%%%%%%%%%%%%%%%%%%%%%%%%%%%%%%%%%%%%
 density label              = vsoftcavity                                                                     
 integral of density        =      2.569015443    

%%%% DENSITY %%%%%%%%%%%%%%%%%%%%%%%%%%%%%%%%%%%%%%%%%%%%%%%%%%%%%%%%%%%%%%%%%%%
 density label              = dvtot                                                                           
 integral of density        =     -49.80646896    

%%%% ELECTRONS %%%%%%%%%%%%%%%%%%%%%%%%%%%%%%%%%%%%%%%%%%%%%%%%%%%%%%%%%%%%%%%%%
 number of electrons        =          5
 total electronic charge    =      5.0000000

%%%% ELECTRONS %%%%%%%%%%%%%%%%%%%%%%%%%%%%%%%%%%%%%%%%%%%%%%%%%%%%%%%%%%%%%%%%%
 number of electrons        =          5
 total electronic charge    =      5.0000000

%%%% BOUNDARY %%%%%%%%%%%%%%%%%%%%%%%%%%%%%%%%%%%%%%%%%%%%%%%%%%%%%%%%%%%%%%%%%%
 boundary label             = solvent              
 boundary mode              = electronic           
 boundary is built as a function of a smooth density
 function type              =  2 
 using the modified SCCS function with parameters 
 rhomax                     =      0.0050000 
 rhomin                     =      0.0001000 
 volume of the QM region    =    346.6782937 
 surface of the QM region   =    238.0515563 

%%%% DIELECTRIC %%%%%%%%%%%%%%%%%%%%%%%%%%%%%%%%%%%%%%%%%%%%%%%%%%%%%%%%%%%%%%%%%
 dielectric build on homogeneous background
 environment bulk permitt.  =    100.0000000 
 dielectric flags
 need gradient              =  F 
 need factor depend. sqrt   =  T 
 total dielectric charge    =     -0.0001730

%%%% DENSITY %%%%%%%%%%%%%%%%%%%%%%%%%%%%%%%%%%%%%%%%%%%%%%%%%%%%%%%%%%%%%%%%%%%
 density label              = vreference                                                                      
 integral of density        =    -0.1045377776E-12

%%%% COMPUTE ELECTROSTATIC POTENTIAL %%%%%%%%%%%%%%%%%%%%%%%%%%%%%%%%%%%%%%%%%%%
 Warning: bad guess with residual norm =   0.157278E+03, reset to no guess
 Iteration #          1
  pAp =    21.186333091618586       rzold =    20.872102573118362       alpha =   0.98516824421001215     
 delta_qm =   0.941078E-02 delta_en =   0.153036E+03 tol =   0.100000E-04
 Iteration #          2
  pAp =    88.316107964770310       rzold =    4.9387725009033634       alpha =    5.5921537018744777E-002
 delta_qm =   0.164859E-02 delta_en =   0.469645E+01 tol =   0.100000E-04
 Iteration #          3
  pAp =   0.30597530616549068       rzold =    5.5946181080451574E-002  alpha =   0.18284541253205697     
 delta_qm =   0.501581E-03 delta_en =   0.434736E+00 tol =   0.100000E-04
 Iteration #          4
  pAp =    1.8283578630864262E-002  rzold =    3.4541579613128490E-003  alpha =   0.18892132831599673     
 delta_qm =   0.286954E-03 delta_en =   0.142288E+00 tol =   0.100000E-04
 Iteration #          5
  pAp =    3.6720550165235242E-004  rzold =    2.2792027073842755E-004  alpha =   0.62068860546160454     
 delta_qm =   0.483827E-04 delta_en =   0.404506E-02 tol =   0.100000E-04
 Iteration #          6
  pAp =    3.9616648096777228E-005  rzold =    1.4217647857313630E-005  alpha =   0.35888063580195267     
 delta_qm =   0.286264E-04 delta_en =   0.141604E-02 tol =   0.100000E-04
 Iteration #          7
  pAp =    1.1492950269796437E-006  rzold =    1.1663016051143941E-006  alpha =    1.0147973999151843     
 delta_qm =   0.213558E-04 delta_en =   0.788091E-03 tol =   0.100000E-04
 Iteration #          8
  pAp =    8.1980173202698647E-007  rzold =    7.5855369399598102E-007  alpha =   0.92528920635533707     
 delta_qm =   0.181150E-04 delta_en =   0.567050E-03 tol =   0.100000E-04
 Iteration #          9
  pAp =    5.4095247998710359E-007  rzold =    3.3695466386174939E-007  alpha =   0.62289143007493464     
 delta_qm =   0.106808E-04 delta_en =   0.197131E-03 tol =   0.100000E-04
 Iteration #         10
  pAp =    1.4392040641983881E-006  rzold =    4.1368237972258934E-007  alpha =   0.28743830705689627     
 delta_qm =   0.525593E-05 delta_en =   0.477357E-04 tol =   0.100000E-04
 Iteration #         11
  pAp =    6.7854124880347818E-008  rzold =    3.6324517909278107E-008  alpha =   0.53533249413107620     
 delta_qm =   0.336467E-05 delta_en =   0.195627E-04 tol =   0.100000E-04
 Iteration #         12
  pAp =    1.4520444500166442E-008  rzold =    1.1428963508729187E-008  alpha =   0.78709460365336481     
 delta_qm =   0.151773E-05 delta_en =   0.398044E-05 tol =   0.100000E-04
 Charges are converged, EXIT

%%%% DENSITY %%%%%%%%%%%%%%%%%%%%%%%%%%%%%%%%%%%%%%%%%%%%%%%%%%%%%%%%%%%%%%%%%%%
 density label              = velectrostatic                                                                  
 integral of density        =     -51.74573419    

%%%% CHARGES %%%%%%%%%%%%%%%%%%%%%%%%%%%%%%%%%%%%%%%%%%%%%%%%%%%%%%%%%%%%%%%%%%%
 total number of charges    =          7
 total charge               =      0.0000000

%%%% DENSITY %%%%%%%%%%%%%%%%%%%%%%%%%%%%%%%%%%%%%%%%%%%%%%%%%%%%%%%%%%%%%%%%%%%
 density label              = vsoftcavity                                                                     
 integral of density        =      2.393451193    

%%%% DENSITY %%%%%%%%%%%%%%%%%%%%%%%%%%%%%%%%%%%%%%%%%%%%%%%%%%%%%%%%%%%%%%%%%%%
 density label              = dvtot                                                                           
 integral of density        =     -49.35228300    

%%%% ELECTRONS %%%%%%%%%%%%%%%%%%%%%%%%%%%%%%%%%%%%%%%%%%%%%%%%%%%%%%%%%%%%%%%%%
 number of electrons        =          5
 total electronic charge    =      5.0000000

%%%% ELECTRONS %%%%%%%%%%%%%%%%%%%%%%%%%%%%%%%%%%%%%%%%%%%%%%%%%%%%%%%%%%%%%%%%%
 number of electrons        =          5
 total electronic charge    =      5.0000000

%%%% BOUNDARY %%%%%%%%%%%%%%%%%%%%%%%%%%%%%%%%%%%%%%%%%%%%%%%%%%%%%%%%%%%%%%%%%%
 boundary label             = solvent              
 boundary mode              = electronic           
 boundary is built as a function of a smooth density
 function type              =  2 
 using the modified SCCS function with parameters 
 rhomax                     =      0.0050000 
 rhomin                     =      0.0001000 
 volume of the QM region    =    346.6782937 
 surface of the QM region   =    238.0515563 

%%%% DIELECTRIC %%%%%%%%%%%%%%%%%%%%%%%%%%%%%%%%%%%%%%%%%%%%%%%%%%%%%%%%%%%%%%%%%
 dielectric build on homogeneous background
 environment bulk permitt.  =    100.0000000 
 dielectric flags
 need gradient              =  F 
 need factor depend. sqrt   =  T 
 total dielectric charge    =      0.0000662

%%%% DENSITY %%%%%%%%%%%%%%%%%%%%%%%%%%%%%%%%%%%%%%%%%%%%%%%%%%%%%%%%%%%%%%%%%%%
 density label              = dvtot                                                                           
 integral of density        =     -49.35228300    

%%%% DENSITY %%%%%%%%%%%%%%%%%%%%%%%%%%%%%%%%%%%%%%%%%%%%%%%%%%%%%%%%%%%%%%%%%%%
 density label              = vreference                                                                      
 integral of density        =    -0.1045377776E-12

%%%% DENSITY %%%%%%%%%%%%%%%%%%%%%%%%%%%%%%%%%%%%%%%%%%%%%%%%%%%%%%%%%%%%%%%%%%%
 density label              = velectrostatic                                                                  
 integral of density        =     -51.74573419    

%%%% CHARGES %%%%%%%%%%%%%%%%%%%%%%%%%%%%%%%%%%%%%%%%%%%%%%%%%%%%%%%%%%%%%%%%%%%
 total number of charges    =          7
 total charge               =      0.0000000

%%%% DENSITY %%%%%%%%%%%%%%%%%%%%%%%%%%%%%%%%%%%%%%%%%%%%%%%%%%%%%%%%%%%%%%%%%%%
 density label              = vsoftcavity                                                                     
 integral of density        =      2.393451193    
