
     Program PWSCF v.6.7MaX starts on  5Mar2021 at 13:25:25 

     This program is part of the open-source Quantum ESPRESSO suite
     for quantum simulation of materials; please cite
         "P. Giannozzi et al., J. Phys.:Condens. Matter 21 395502 (2009);
         "P. Giannozzi et al., J. Phys.:Condens. Matter 29 465901 (2017);
          URL http://www.quantum-espresso.org", 
     in publications or presentations arising from this work. More details at
     http://www.quantum-espresso.org/quote

     Parallel version (MPI), running on     1 processors

     MPI processes distributed on     1 nodes
     Waiting for input...
     Reading input from standard input

     Current dimensions of program PWSCF are:
     Max number of different atomic species (ntypx) = 10
     Max number of k-points (npk) =  40000
     Max angular momentum in pseudopotentials (lmaxx) =  3
     file C.pbe-rrkjus.UPF: wavefunction(s)  2S 2P renormalized
     file H.pbe-rrkjus.UPF: wavefunction(s)  1S renormalized

     gamma-point specific algorithms are used

     Subspace diagonalization in iterative solution of the eigenvalue problem:
     a serial algorithm will be used


     G-vector sticks info
     --------------------
     sticks:   dense  smooth     PW     G-vecs:    dense   smooth      PW
     Sum        2385     949    241                87655    22119    2777



     bravais-lattice index     =            1
     lattice parameter (alat)  =      10.0000  a.u.
     unit-cell volume          =    1000.0000 (a.u.)^3
     number of atoms/cell      =            2
     number of atomic types    =            2
     number of electrons       =         5.00
     number of Kohn-Sham states=            6
     kinetic-energy cutoff     =      30.0000  Ry
     charge density cutoff     =     300.0000  Ry
     scf convergence threshold =      5.0E-03
     mixing beta               =       0.7000
     number of iterations used =            8  plain     mixing
     Exchange-correlation= SLA  PW   PBE  PBE
                           (   1   4   3   4   0   0   0)


     Environ Module
     ==============

     Plese cite
         O. Andreussi, I. Dabo and N. Marzari, J. Chem. Phys. 136, 064102 (2012)         
     in publications or presentations arising from this work.

     compensation onset threshold      =               0.1000E+03 
     static permittivity               =                   100.00 
     epsilon calculation mode          =               electronic 

     Electrostatic Setup
     -------------------
     electrostatic problem to solve    = generalized              
     numerical solver adopted          = cg                       
     type of auxiliary density adopted = none                     
     type of core tool for poisson     = fft                      



     celldm(1)=  10.000000  celldm(2)=   0.000000  celldm(3)=   0.000000
     celldm(4)=   0.000000  celldm(5)=   0.000000  celldm(6)=   0.000000

     crystal axes: (cart. coord. in units of alat)
               a(1) = (   1.000000   0.000000   0.000000 )  
               a(2) = (   0.000000   1.000000   0.000000 )  
               a(3) = (   0.000000   0.000000   1.000000 )  

     reciprocal axes: (cart. coord. in units 2 pi/alat)
               b(1) = (  1.000000  0.000000  0.000000 )  
               b(2) = (  0.000000  1.000000  0.000000 )  
               b(3) = (  0.000000  0.000000  1.000000 )  


     PseudoPot. # 1 for C  read from file:
     ../../../pseudo/C.pbe-rrkjus.UPF
     MD5 check sum: c9ac5a99bc85b198593446162950cd17
     Pseudo is Ultrasoft, Zval =  4.0
     Generated by new atomic code, or converted to UPF format
     Using radial grid of  627 points,  4 beta functions with: 
                l(1) =   0
                l(2) =   0
                l(3) =   1
                l(4) =   1
     Q(r) pseudized with 0 coefficients 


     PseudoPot. # 2 for H  read from file:
     ../../../pseudo/H.pbe-rrkjus.UPF
     MD5 check sum: 2d52a7f45632fd764c17cc6affed14c8
     Pseudo is Ultrasoft, Zval =  1.0
     Generated by new atomic code, or converted to UPF format
     Using radial grid of 1061 points,  2 beta functions with: 
                l(1) =   0
                l(2) =   0
     Q(r) pseudized with 0 coefficients 


     atomic species   valence    mass     pseudopotential
        C              4.00    12.00000     C ( 1.00)
        H              1.00     1.00000     H ( 1.00)

     Starting magnetic structure 
     atomic species   magnetization
        C            1.000
        H            0.000

     No symmetry found



   Cartesian axes

     site n.     atom                  positions (alat units)
         1           C   tau(   1) = (   0.0000000   0.0000000   0.0302496  )
         2           H   tau(   2) = (   0.0000000   0.0000000  -0.1814980  )

     number of k points=     1  Gaussian smearing, width (Ry)=  0.0100
                       cart. coord. in units 2pi/alat
        k(    1) = (   0.0000000   0.0000000   0.0000000), wk =   1.0000000

     Dense  grid:    43828 G-vectors     FFT dimensions: (  60,  60,  60)

     Smooth grid:    11060 G-vectors     FFT dimensions: (  36,  36,  36)

     Estimated max dynamical RAM per process >      87.24 MB
     Generating pointlists ...
     new r_m :   0.0873 (alat units)  0.8735 (a.u.) for type    1
     new r_m :   0.0873 (alat units)  0.8735 (a.u.) for type    2

     Initial potential from superposition of free atoms

     starting charge    4.90374, renormalised to    5.00000
     Starting wfcs are    5 randomized atomic wfcs +    1 random wfcs

     total cpu time spent up to now is        6.1 secs

     Self-consistent Calculation

     iteration #  1     ecut=    30.00 Ry     beta= 0.70
     Davidson diagonalization with overlap
     ethr =  1.00E-02,  avg # of iterations =  6.5

     add environment contribution to local potential
     polarization accuracy = 6.2E-06, # of iterations =  21

     total cpu time spent up to now is       31.9 secs

     total energy              =     -11.96866265 Ry
     estimated scf accuracy    <       0.33858739 Ry
     electrostatic embedding   =       0.00000000 Ry
     correction to one-el term =      -0.00000000 Ry

     total magnetization       =     3.00 Bohr mag/cell
     absolute magnetization    =     3.03 Bohr mag/cell

     iteration #  2     ecut=    30.00 Ry     beta= 0.70
     Davidson diagonalization with overlap
     ethr =  6.77E-03,  avg # of iterations =  1.5

     add environment contribution to local potential
     polarization accuracy = 6.7E-06, # of iterations =  21

     total cpu time spent up to now is       58.5 secs

     total energy              =     -12.05082912 Ry
     estimated scf accuracy    <       0.00752345 Ry
     electrostatic embedding   =      -0.00428907 Ry
     correction to one-el term =       0.15958327 Ry

     total magnetization       =     3.00 Bohr mag/cell
     absolute magnetization    =     3.00 Bohr mag/cell

     iteration #  3     ecut=    30.00 Ry     beta= 0.70
     Davidson diagonalization with overlap
     ethr =  1.50E-04,  avg # of iterations =  3.5

     negative rho (up, down):  1.172E-08 1.347E-09

     the potential shift due to the Gaussian-smeared nuclei is    -0.0040 ev

     Magnetic moment per site:
     atom:    1    charge:    0.8360    magn:    0.5992    constr:    0.0000
     atom:    2    charge:    0.4520    magn:    0.0588    constr:    0.0000

     total cpu time spent up to now is       61.3 secs

     End of self-consistent calculation

 ------ SPIN UP ------------


          k = 0.0000 0.0000 0.0000 (  1389 PWs)   bands (ev):

   -15.6727  -8.6872  -5.6227  -5.6227  -1.3464   2.1245

 ------ SPIN DOWN ----------


          k = 0.0000 0.0000 0.0000 (  1389 PWs)   bands (ev):

   -12.4846  -3.5609  -0.8601  -0.8598  -0.4889   3.2429

     the Fermi energy is    -4.9986 ev

!    total energy              =     -12.05722314 Ry
     estimated scf accuracy    <       0.00156237 Ry
     smearing contrib. (-TS)   =      -0.00000000 Ry
     internal energy E=F+TS    =     -12.05722314 Ry

     The total energy is F=E-TS. E is the sum of the following terms:
     one-electron contribution =     -11.61061161 Ry
     hartree contribution      =       6.60912673 Ry
     xc contribution           =      -3.98446140 Ry
     ewald contribution        =      -3.23498443 Ry
     electrostatic embedding   =      -0.00469894 Ry
     correction to one-el term =       0.16840651 Ry

     WARNING: you are using the parabolic pbc correction;
              the potential shift above must be added to 
              band and Fermi energies.

     total magnetization       =     3.00 Bohr mag/cell
     absolute magnetization    =     3.00 Bohr mag/cell

     convergence has been achieved in   3 iterations
 forces lc
       1   -0.0014   -0.0014   -0.0130
       2   -0.0005   -0.0004   -0.0189

     Forces acting on atoms (cartesian axes, Ry/au):

     atom    1 type  1   force =    -0.00047162   -0.00048119   -0.03732076
     atom    2 type  2   force =     0.00047162    0.00048119    0.03732076

     Total force =     0.052788     Total SCF correction =     0.011691
     SCF correction compared to forces is large: reduce conv_thr to get better values

     Writing output data file ./tmp/pwscf.save/

     init_run     :      5.46s CPU      6.08s WALL (       1 calls)
     electrons    :     52.53s CPU     55.26s WALL (       1 calls)
     forces       :      1.08s CPU      1.15s WALL (       1 calls)

     Called by init_run:
     wfcinit      :      0.01s CPU      0.01s WALL (       1 calls)
     potinit      :      2.77s CPU      3.02s WALL (       1 calls)
     hinit0       :      1.79s CPU      1.89s WALL (       1 calls)

     Called by electrons:
     c_bands      :      0.08s CPU      0.11s WALL (       3 calls)
     sum_band     :      0.27s CPU      0.16s WALL (       3 calls)
     v_of_rho     :      0.69s CPU      0.77s WALL (       4 calls)
     newd         :      0.11s CPU      0.12s WALL (       4 calls)
     mix_rho      :      0.03s CPU      0.03s WALL (       3 calls)

     Called by c_bands:
     init_us_2    :      0.00s CPU      0.00s WALL (      16 calls)
     regterg      :      0.08s CPU      0.11s WALL (       6 calls)

     Called by *egterg:
     rdiaghg      :      0.00s CPU      0.00s WALL (      29 calls)
     h_psi        :      0.06s CPU      0.09s WALL (      31 calls)
     s_psi        :      0.00s CPU      0.01s WALL (      31 calls)
     g_psi        :      0.00s CPU      0.00s WALL (      23 calls)

     Called by h_psi:
     h_psi:calbec :      0.00s CPU      0.00s WALL (      31 calls)
     vloc_psi     :      0.06s CPU      0.06s WALL (      31 calls)
     add_vuspsi   :      0.00s CPU      0.03s WALL (      31 calls)

     General routines
     calbec       :      0.00s CPU      0.00s WALL (      45 calls)
     fft          :     22.76s CPU     23.64s WALL (     215 calls)
     ffts         :      0.01s CPU      0.01s WALL (      14 calls)
     fftw         :      0.05s CPU      0.05s WALL (     154 calls)
     interpolate  :      0.03s CPU      0.05s WALL (       8 calls)

     Parallel routines
     fft_scatt_xy :      2.41s CPU      2.42s WALL (     133 calls)
     fft_scatt_yz :      3.41s CPU      3.42s WALL (     133 calls)

     Environ routines
     calc_eelect  :      0.02s CPU      0.02s WALL (       6 calls)
     calc_velect  :     40.30s CPU     41.96s WALL (       4 calls)
     dielectric   :      0.73s CPU      0.86s WALL (       5 calls)
     calc_felect  :      1.01s CPU      1.10s WALL (       1 calls)

     PWSCF        :     59.09s CPU   1m 2.66s WALL


   This run was terminated on:  13:26:28   5Mar2021            

=------------------------------------------------------------------------------=
   JOB DONE.
=------------------------------------------------------------------------------=
