
     Program PWSCF v.6.7+ starts on 22Apr2021 at 12:40:35 

     This program is part of the open-source Quantum ESPRESSO suite
     for quantum simulation of materials; please cite
         "P. Giannozzi et al., J. Phys.:Condens. Matter 21 395502 (2009);
         "P. Giannozzi et al., J. Phys.:Condens. Matter 29 465901 (2017);
          URL http://www.quantum-espresso.org", 
     in publications or presentations arising from this work. More details at
     http://www.quantum-espresso.org/quote

     Parallel version (MPI), running on     1 processors

     MPI processes distributed on     1 nodes
     Waiting for input...
     Reading input from standard input

     Current dimensions of program PWSCF are:
     Max number of different atomic species (ntypx) = 10
     Max number of k-points (npk) =  40000
     Max angular momentum in pseudopotentials (lmaxx) =  3
     file H.pz-vbc.UPF: wavefunction(s)  1S renormalized

     gamma-point specific algorithms are used

     Subspace diagonalization in iterative solution of the eigenvalue problem:
     a serial algorithm will be used

 
     G-vector sticks info
     --------------------
     sticks:   dense  smooth     PW     G-vecs:    dense   smooth      PW
     Sum        3181    3181    793               135043   135043   16879
 


     bravais-lattice index     =            1
     lattice parameter (alat)  =      20.0000  a.u.
     unit-cell volume          =    8000.0000 (a.u.)^3
     number of atoms/cell      =            5
     number of atomic types    =            2
     number of electrons       =         8.00
     number of Kohn-Sham states=            4
     kinetic-energy cutoff     =      25.0000  Ry
     charge density cutoff     =     100.0000  Ry
     scf convergence threshold =      1.0E-08
     mixing beta               =       0.7000
     number of iterations used =            8  plain     mixing
     Exchange-correlation= SLA  PZ   NOGX NOGC
                           (   1   1   0   0   0   0   0)
 

     Environ Module
     ==============

     Plese cite
         O. Andreussi, I. Dabo and N. Marzari, J. Chem. Phys. 136, 064102 (2012)         
     in publications or presentations arising from this work.

     compensation onset threshold      =               0.1000E+00 
     static permittivity               =                    78.50 
     epsilon calculation mode          =               electronic 

     Electrostatic Setup
     -------------------
     electrostatic problem to solve    = generalized              
     numerical solver adopted          = cg                       
     type of auxiliary density adopted = none                     
     type of core tool for poisson     = fft                      



     celldm(1)=  20.000000  celldm(2)=   0.000000  celldm(3)=   0.000000
     celldm(4)=   0.000000  celldm(5)=   0.000000  celldm(6)=   0.000000

     crystal axes: (cart. coord. in units of alat)
               a(1) = (   1.000000   0.000000   0.000000 )  
               a(2) = (   0.000000   1.000000   0.000000 )  
               a(3) = (   0.000000   0.000000   1.000000 )  

     reciprocal axes: (cart. coord. in units 2 pi/alat)
               b(1) = (  1.000000  0.000000  0.000000 )  
               b(2) = (  0.000000  1.000000  0.000000 )  
               b(3) = (  0.000000  0.000000  1.000000 )  


     PseudoPot. # 1 for H  read from file:
     /Users/oliviero/PWSCF/espresso-git/pseudo/H.pz-vbc.UPF
     MD5 check sum: b4742c37e165d3c4b97552e3cd66ffd5
     Pseudo is Norm-conserving, Zval =  1.0
     Generated by new atomic code, or converted to UPF format
     Using radial grid of  131 points,  0 beta functions with: 

     PseudoPot. # 2 for C  read from file:
     /Users/oliviero/PWSCF/espresso-git/pseudo/C.pz-vbc.UPF
     MD5 check sum: f697e42eaa1e52b77fcf7925dd36a1dd
     Pseudo is Norm-conserving, Zval =  4.0
     Generated by new atomic code, or converted to UPF format
     Using radial grid of  269 points,  1 beta functions with: 
                l(1) =   0

     atomic species   valence    mass     pseudopotential
        H              1.00     1.00000     H ( 1.00)
        C              4.00    12.00000     C ( 1.00)

     24 Sym. Ops. (no inversion) found


                                    s                        frac. trans.

      isym =  1     identity                                     

 cryst.   s( 1) = (     1          0          0      )
                  (     0          1          0      )
                  (     0          0          1      )

 cart.    s( 1) = (  1.0000000  0.0000000  0.0000000 )
                  (  0.0000000  1.0000000  0.0000000 )
                  (  0.0000000  0.0000000  1.0000000 )


      isym =  2     180 deg rotation - cart. axis [0,0,1]        

 cryst.   s( 2) = (    -1          0          0      )
                  (     0         -1          0      )
                  (     0          0          1      )

 cart.    s( 2) = ( -1.0000000  0.0000000  0.0000000 )
                  (  0.0000000 -1.0000000  0.0000000 )
                  (  0.0000000  0.0000000  1.0000000 )


      isym =  3     180 deg rotation - cart. axis [0,1,0]        

 cryst.   s( 3) = (    -1          0          0      )
                  (     0          1          0      )
                  (     0          0         -1      )

 cart.    s( 3) = ( -1.0000000  0.0000000  0.0000000 )
                  (  0.0000000  1.0000000  0.0000000 )
                  (  0.0000000  0.0000000 -1.0000000 )


      isym =  4     180 deg rotation - cart. axis [1,0,0]        

 cryst.   s( 4) = (     1          0          0      )
                  (     0         -1          0      )
                  (     0          0         -1      )

 cart.    s( 4) = (  1.0000000  0.0000000  0.0000000 )
                  (  0.0000000 -1.0000000  0.0000000 )
                  (  0.0000000  0.0000000 -1.0000000 )


      isym =  5     120 deg rotation - cart. axis [-1,-1,-1]     

 cryst.   s( 5) = (     0          0          1      )
                  (     1          0          0      )
                  (     0          1          0      )

 cart.    s( 5) = (  0.0000000  1.0000000  0.0000000 )
                  (  0.0000000  0.0000000  1.0000000 )
                  (  1.0000000  0.0000000  0.0000000 )


      isym =  6     120 deg rotation - cart. axis [-1,1,1]       

 cryst.   s( 6) = (     0          0         -1      )
                  (    -1          0          0      )
                  (     0          1          0      )

 cart.    s( 6) = (  0.0000000 -1.0000000  0.0000000 )
                  (  0.0000000  0.0000000  1.0000000 )
                  ( -1.0000000  0.0000000  0.0000000 )


      isym =  7     120 deg rotation - cart. axis [1,1,-1]       

 cryst.   s( 7) = (     0          0         -1      )
                  (     1          0          0      )
                  (     0         -1          0      )

 cart.    s( 7) = (  0.0000000  1.0000000  0.0000000 )
                  (  0.0000000  0.0000000 -1.0000000 )
                  ( -1.0000000  0.0000000  0.0000000 )


      isym =  8     120 deg rotation - cart. axis [1,-1,1]       

 cryst.   s( 8) = (     0          0          1      )
                  (    -1          0          0      )
                  (     0         -1          0      )

 cart.    s( 8) = (  0.0000000 -1.0000000  0.0000000 )
                  (  0.0000000  0.0000000 -1.0000000 )
                  (  1.0000000  0.0000000  0.0000000 )


      isym =  9     120 deg rotation - cart. axis [1,1,1]        

 cryst.   s( 9) = (     0          1          0      )
                  (     0          0          1      )
                  (     1          0          0      )

 cart.    s( 9) = (  0.0000000  0.0000000  1.0000000 )
                  (  1.0000000  0.0000000  0.0000000 )
                  (  0.0000000  1.0000000  0.0000000 )


      isym = 10     120 deg rotation - cart. axis [-1,1,-1]      

 cryst.   s(10) = (     0         -1          0      )
                  (     0          0         -1      )
                  (     1          0          0      )

 cart.    s(10) = (  0.0000000  0.0000000  1.0000000 )
                  ( -1.0000000  0.0000000  0.0000000 )
                  (  0.0000000 -1.0000000  0.0000000 )


      isym = 11     120 deg rotation - cart. axis [1,-1,-1]      

 cryst.   s(11) = (     0         -1          0      )
                  (     0          0          1      )
                  (    -1          0          0      )

 cart.    s(11) = (  0.0000000  0.0000000 -1.0000000 )
                  ( -1.0000000  0.0000000  0.0000000 )
                  (  0.0000000  1.0000000  0.0000000 )


      isym = 12     120 deg rotation - cart. axis [-1,-1,1]      

 cryst.   s(12) = (     0          1          0      )
                  (     0          0         -1      )
                  (    -1          0          0      )

 cart.    s(12) = (  0.0000000  0.0000000 -1.0000000 )
                  (  1.0000000  0.0000000  0.0000000 )
                  (  0.0000000 -1.0000000  0.0000000 )


      isym = 13     inv. 180 deg rotation - cart. axis [1,1,0]   

 cryst.   s(13) = (     0         -1          0      )
                  (    -1          0          0      )
                  (     0          0          1      )

 cart.    s(13) = (  0.0000000 -1.0000000  0.0000000 )
                  ( -1.0000000  0.0000000  0.0000000 )
                  (  0.0000000  0.0000000  1.0000000 )


      isym = 14     inv. 180 deg rotation - cart. axis [1,-1,0]  

 cryst.   s(14) = (     0          1          0      )
                  (     1          0          0      )
                  (     0          0          1      )

 cart.    s(14) = (  0.0000000  1.0000000  0.0000000 )
                  (  1.0000000  0.0000000  0.0000000 )
                  (  0.0000000  0.0000000  1.0000000 )


      isym = 15     inv.  90 deg rotation - cart. axis [0,0,-1]  

 cryst.   s(15) = (     0          1          0      )
                  (    -1          0          0      )
                  (     0          0         -1      )

 cart.    s(15) = (  0.0000000 -1.0000000  0.0000000 )
                  (  1.0000000  0.0000000  0.0000000 )
                  (  0.0000000  0.0000000 -1.0000000 )


      isym = 16     inv.  90 deg rotation - cart. axis [0,0,1]   

 cryst.   s(16) = (     0         -1          0      )
                  (     1          0          0      )
                  (     0          0         -1      )

 cart.    s(16) = (  0.0000000  1.0000000  0.0000000 )
                  ( -1.0000000  0.0000000  0.0000000 )
                  (  0.0000000  0.0000000 -1.0000000 )


      isym = 17     inv. 180 deg rotation - cart. axis [1,0,1]   

 cryst.   s(17) = (     0          0         -1      )
                  (     0          1          0      )
                  (    -1          0          0      )

 cart.    s(17) = (  0.0000000  0.0000000 -1.0000000 )
                  (  0.0000000  1.0000000  0.0000000 )
                  ( -1.0000000  0.0000000  0.0000000 )


      isym = 18     inv. 180 deg rotation - cart. axis [-1,0,1]  

 cryst.   s(18) = (     0          0          1      )
                  (     0          1          0      )
                  (     1          0          0      )

 cart.    s(18) = (  0.0000000  0.0000000  1.0000000 )
                  (  0.0000000  1.0000000  0.0000000 )
                  (  1.0000000  0.0000000  0.0000000 )


      isym = 19     inv.  90 deg rotation - cart. axis [0,1,0]   

 cryst.   s(19) = (     0          0          1      )
                  (     0         -1          0      )
                  (    -1          0          0      )

 cart.    s(19) = (  0.0000000  0.0000000 -1.0000000 )
                  (  0.0000000 -1.0000000  0.0000000 )
                  (  1.0000000  0.0000000  0.0000000 )


      isym = 20     inv.  90 deg rotation - cart. axis [0,-1,0]  

 cryst.   s(20) = (     0          0         -1      )
                  (     0         -1          0      )
                  (     1          0          0      )

 cart.    s(20) = (  0.0000000  0.0000000  1.0000000 )
                  (  0.0000000 -1.0000000  0.0000000 )
                  ( -1.0000000  0.0000000  0.0000000 )


      isym = 21     inv. 180 deg rotation - cart. axis [0,1,1]   

 cryst.   s(21) = (     1          0          0      )
                  (     0          0         -1      )
                  (     0         -1          0      )

 cart.    s(21) = (  1.0000000  0.0000000  0.0000000 )
                  (  0.0000000  0.0000000 -1.0000000 )
                  (  0.0000000 -1.0000000  0.0000000 )


      isym = 22     inv. 180 deg rotation - cart. axis [0,1,-1]  

 cryst.   s(22) = (     1          0          0      )
                  (     0          0          1      )
                  (     0          1          0      )

 cart.    s(22) = (  1.0000000  0.0000000  0.0000000 )
                  (  0.0000000  0.0000000  1.0000000 )
                  (  0.0000000  1.0000000  0.0000000 )


      isym = 23     inv.  90 deg rotation - cart. axis [-1,0,0]  

 cryst.   s(23) = (    -1          0          0      )
                  (     0          0          1      )
                  (     0         -1          0      )

 cart.    s(23) = ( -1.0000000  0.0000000  0.0000000 )
                  (  0.0000000  0.0000000 -1.0000000 )
                  (  0.0000000  1.0000000  0.0000000 )


      isym = 24     inv.  90 deg rotation - cart. axis [1,0,0]   

 cryst.   s(24) = (    -1          0          0      )
                  (     0          0         -1      )
                  (     0          1          0      )

 cart.    s(24) = ( -1.0000000  0.0000000  0.0000000 )
                  (  0.0000000  0.0000000  1.0000000 )
                  (  0.0000000 -1.0000000  0.0000000 )


     point group T_d (-43m) 
     there are  5 classes
     the character table:

       E     8C3   3C2   6S4   6s_d 
A_1    1.00  1.00  1.00  1.00  1.00
A_2    1.00  1.00  1.00 -1.00 -1.00
E      2.00 -1.00  2.00  0.00  0.00
T_1    3.00  0.00 -1.00  1.00 -1.00
T_2    3.00  0.00 -1.00 -1.00  1.00

     the symmetry operations in each class and the name of the first element:

     E        1
          identity                                               
     8C3      5    7    8    6   12    9   10   11
          120 deg rotation - cart. axis [-1,-1,-1]               
     3C2      2    3    4
          180 deg rotation - cart. axis [0,0,1]                  
     6S4     15   16   20   19   23   24
          inv.  90 deg rotation - cart. axis [0,0,-1]            
     6s_d    13   14   17   18   21   22
          inv. 180 deg rotation - cart. axis [1,1,0]             

   Cartesian axes

     site n.     atom                  positions (alat units)
         1           C   tau(   1) = (   0.0000000   0.0000000   0.0000000  )
         2           H   tau(   2) = (   0.0607371   0.0607371   0.0607371  )
         3           H   tau(   3) = (  -0.0607371  -0.0607371   0.0607371  )
         4           H   tau(   4) = (   0.0607371  -0.0607371  -0.0607371  )
         5           H   tau(   5) = (  -0.0607371   0.0607371  -0.0607371  )

   Crystallographic axes

     site n.     atom                  positions (cryst. coord.)
         1           C   tau(   1) = (  0.0000000  0.0000000  0.0000000  )
         2           H   tau(   2) = (  0.0607371  0.0607371  0.0607371  )
         3           H   tau(   3) = ( -0.0607371 -0.0607371  0.0607371  )
         4           H   tau(   4) = (  0.0607371 -0.0607371 -0.0607371  )
         5           H   tau(   5) = ( -0.0607371  0.0607371 -0.0607371  )

     number of k points=     1
                       cart. coord. in units 2pi/alat
        k(    1) = (   0.0000000   0.0000000   0.0000000), wk =   2.0000000

                       cryst. coord.
        k(    1) = (   0.0000000   0.0000000   0.0000000), wk =   2.0000000

     Dense  grid:    67522 G-vectors     FFT dimensions: (  64,  64,  64)

     Dynamical RAM for                 wfc:       0.52 MB

     Dynamical RAM for     wfc (w. buffer):       0.52 MB

     Dynamical RAM for           str. fact:       2.06 MB

     Dynamical RAM for           local pot:       0.00 MB

     Dynamical RAM for          nlocal pot:       0.13 MB

     Dynamical RAM for                qrad:       0.02 MB

     Dynamical RAM for          rho,v,vnew:       9.09 MB

     Dynamical RAM for               rhoin:       3.03 MB

     Dynamical RAM for            rho*nmix:      16.48 MB

     Dynamical RAM for           G-vectors:       4.38 MB

     Dynamical RAM for          h,s,v(r/c):       0.00 MB

     Dynamical RAM for          <psi|beta>:       0.00 MB

     Dynamical RAM for                 psi:       1.03 MB

     Dynamical RAM for                hpsi:       1.03 MB

     Dynamical RAM for      wfcinit/wfcrot:       2.06 MB

     Estimated static dynamical RAM per process >      48.80 MB

     Estimated max dynamical RAM per process >      50.86 MB

     Initial potential from superposition of free atoms

     starting charge    7.99987, renormalised to    8.00000

     negative rho (up, down):  1.835E-02 0.000E+00
     Starting wfcs are    8 randomized atomic wfcs

     total cpu time spent up to now is        0.5 secs

     Self-consistent Calculation

     iteration #  1     ecut=    25.00 Ry     beta= 0.70
     Davidson diagonalization with overlap
     ethr =  1.00E-02,  avg # of iterations =  2.0

     negative rho (up, down):  5.260E-03 0.000E+00

     total cpu time spent up to now is        0.7 secs

     total energy              =     -15.62573240 Ry
     estimated scf accuracy    <       0.53729882 Ry
     electrostatic embedding   =       0.00000000 Ry
     correction to one-el term =       0.00000000 Ry

     iteration #  2     ecut=    25.00 Ry     beta= 0.70
     Davidson diagonalization with overlap
     ethr =  6.72E-03,  avg # of iterations =  2.0

     negative rho (up, down):  2.548E-03 0.000E+00

     total cpu time spent up to now is        0.8 secs

     total energy              =     -15.75682579 Ry
     estimated scf accuracy    <       0.13875126 Ry
     electrostatic embedding   =       0.00000000 Ry
     correction to one-el term =       0.00000000 Ry

     iteration #  3     ecut=    25.00 Ry     beta= 0.70
     Davidson diagonalization with overlap
     ethr =  1.73E-03,  avg # of iterations =  2.0

     negative rho (up, down):  6.279E-05 0.000E+00

     add environment contribution to local potential

     total cpu time spent up to now is        1.3 secs

     total energy              =     -15.77650391 Ry
     estimated scf accuracy    <       0.00365455 Ry
     electrostatic embedding   =       0.00000000 Ry
     correction to one-el term =       0.00000000 Ry

     iteration #  4     ecut=    25.00 Ry     beta= 0.70
     Davidson diagonalization with overlap
     ethr =  4.57E-05,  avg # of iterations =  3.0

     negative rho (up, down):  1.007E-07 0.000E+00

     add environment contribution to local potential

     total cpu time spent up to now is        1.8 secs

     total energy              =     -15.78042304 Ry
     estimated scf accuracy    <       0.00272409 Ry
     electrostatic embedding   =      -0.00207429 Ry
     correction to one-el term =      -0.05517458 Ry

     iteration #  5     ecut=    25.00 Ry     beta= 0.70
     Davidson diagonalization with overlap
     ethr =  3.41E-05,  avg # of iterations =  1.0

     negative rho (up, down):  1.451E-05 0.000E+00

     add environment contribution to local potential

     total cpu time spent up to now is        2.3 secs

     total energy              =     -15.77951421 Ry
     estimated scf accuracy    <       0.00152327 Ry
     electrostatic embedding   =      -0.00220375 Ry
     correction to one-el term =      -0.05567344 Ry

     iteration #  6     ecut=    25.00 Ry     beta= 0.70
     Davidson diagonalization with overlap
     ethr =  1.90E-05,  avg # of iterations =  3.0

     negative rho (up, down):  1.049E-07 0.000E+00

     add environment contribution to local potential

     total cpu time spent up to now is        2.8 secs

     total energy              =     -15.77912890 Ry
     estimated scf accuracy    <       0.00484302 Ry
     electrostatic embedding   =      -0.00331872 Ry
     correction to one-el term =      -0.04988493 Ry

     iteration #  7     ecut=    25.00 Ry     beta= 0.70
     Davidson diagonalization with overlap
     ethr =  1.90E-05,  avg # of iterations =  2.0

     add environment contribution to local potential

     total cpu time spent up to now is        3.3 secs

     total energy              =     -15.78006588 Ry
     estimated scf accuracy    <       0.00000917 Ry
     electrostatic embedding   =      -0.00263646 Ry
     correction to one-el term =      -0.05407628 Ry

     iteration #  8     ecut=    25.00 Ry     beta= 0.70
     Davidson diagonalization with overlap
     ethr =  1.15E-07,  avg # of iterations =  4.0

     add environment contribution to local potential

     total cpu time spent up to now is        3.8 secs

     total energy              =     -15.78008305 Ry
     estimated scf accuracy    <       0.00007860 Ry
     electrostatic embedding   =      -0.00258409 Ry
     correction to one-el term =      -0.05470982 Ry

     iteration #  9     ecut=    25.00 Ry     beta= 0.70
     Davidson diagonalization with overlap
     ethr =  1.15E-07,  avg # of iterations =  2.0

     add environment contribution to local potential

     total cpu time spent up to now is        4.3 secs

     total energy              =     -15.78008731 Ry
     estimated scf accuracy    <       0.00001561 Ry
     electrostatic embedding   =      -0.00262472 Ry
     correction to one-el term =      -0.05443703 Ry

     iteration # 10     ecut=    25.00 Ry     beta= 0.70
     Davidson diagonalization with overlap
     ethr =  1.15E-07,  avg # of iterations =  1.0

     add environment contribution to local potential

     total cpu time spent up to now is        4.8 secs

     total energy              =     -15.78008151 Ry
     estimated scf accuracy    <       0.00001272 Ry
     electrostatic embedding   =      -0.00262618 Ry
     correction to one-el term =      -0.05442362 Ry

     iteration # 11     ecut=    25.00 Ry     beta= 0.70
     Davidson diagonalization with overlap
     ethr =  1.15E-07,  avg # of iterations =  2.0

     add environment contribution to local potential

     total cpu time spent up to now is        5.3 secs

     total energy              =     -15.78008334 Ry
     estimated scf accuracy    <       0.00000015 Ry
     electrostatic embedding   =      -0.00264875 Ry
     correction to one-el term =      -0.05425950 Ry

     iteration # 12     ecut=    25.00 Ry     beta= 0.70
     Davidson diagonalization with overlap
     ethr =  1.92E-09,  avg # of iterations =  2.0

     the potential shift due to the Gaussian-smeared nuclei is    -0.0214 ev

     total cpu time spent up to now is        5.4 secs

     End of self-consistent calculation

          k = 0.0000 0.0000 0.0000 (  8440 PWs)   bands (ev):

   -16.6863  -9.0767  -9.0767  -9.0767

     occupation numbers 
     1.0000   1.0000   1.0000   1.0000

     highest occupied level (ev):    -9.0767

!    total energy              =     -15.78008337 Ry
     estimated scf accuracy    <          2.9E-09 Ry

     The total energy is the sum of the following terms:
     one-electron contribution =     -40.17568464 Ry
     hartree contribution      =      20.82299570 Ry
     xc contribution           =      -6.06626334 Ry
     ewald contribution        =       9.69577693 Ry
     electrostatic embedding   =      -0.00264799 Ry
     correction to one-el term =      -0.05426003 Ry

     convergence has been achieved in  12 iterations

     Writing output data file /Users/oliviero/PWSCF/espresso-git/tempdir/CH4_solvent.save/
 
     init_run     :      0.41s CPU      0.46s WALL (       1 calls)
     electrons    :      4.29s CPU      4.95s WALL (       1 calls)

     Called by init_run:
     wfcinit      :      0.02s CPU      0.02s WALL (       1 calls)
     wfcinit:atom :      0.00s CPU      0.00s WALL (       1 calls)
     wfcinit:wfcr :      0.02s CPU      0.02s WALL (       1 calls)
     potinit      :      0.12s CPU      0.13s WALL (       1 calls)
     hinit0       :      0.20s CPU      0.21s WALL (       1 calls)

     Called by electrons:
     c_bands      :      0.32s CPU      0.32s WALL (      12 calls)
     sum_band     :      0.10s CPU      0.10s WALL (      12 calls)
     v_of_rho     :      0.14s CPU      0.19s WALL (      13 calls)
     v_h          :      0.04s CPU      0.05s WALL (      13 calls)
     v_xc         :      0.10s CPU      0.13s WALL (      13 calls)
     mix_rho      :      0.13s CPU      0.17s WALL (      12 calls)

     Called by c_bands:
     init_us_2    :      0.01s CPU      0.01s WALL (      25 calls)
     regterg      :      0.31s CPU      0.32s WALL (      12 calls)

     Called by sum_band:
     sum_band:wei :      0.00s CPU      0.00s WALL (      12 calls)
     sum_band:loo :      0.05s CPU      0.05s WALL (      12 calls)
     sum_band:buf :      0.00s CPU      0.00s WALL (      12 calls)
     sum_band:ini :      0.00s CPU      0.00s WALL (      12 calls)

     Called by *egterg:
     rdiaghg      :      0.00s CPU      0.00s WALL (      38 calls)
     regterg:over :      0.00s CPU      0.00s WALL (      26 calls)
     regterg:upda :      0.00s CPU      0.00s WALL (      26 calls)
     regterg:last :      0.00s CPU      0.00s WALL (      26 calls)
     h_psi        :      0.31s CPU      0.31s WALL (      39 calls)
     g_psi        :      0.00s CPU      0.00s WALL (      26 calls)

     Called by h_psi:
     h_psi:calbec :      0.00s CPU      0.00s WALL (      39 calls)
     vloc_psi     :      0.31s CPU      0.31s WALL (      39 calls)
     add_vuspsi   :      0.00s CPU      0.00s WALL (      39 calls)

     General routines
     calbec       :      0.00s CPU      0.00s WALL (      39 calls)
     fft          :      1.86s CPU      2.03s WALL (     546 calls)
     ffts         :      0.02s CPU      0.02s WALL (      12 calls)
     fftw         :      0.30s CPU      0.30s WALL (     184 calls)
 
     Parallel routines
     fft_scatt_xy :      0.35s CPU      0.35s WALL (     506 calls)
     fft_scatt_yz :      0.45s CPU      0.45s WALL (     506 calls)
 
     Environ routines
     calc_eelect  :      0.01s CPU      0.01s WALL (      24 calls)
     calc_velect  :      2.02s CPU      2.35s WALL (      18 calls)
     dielectric   :      0.17s CPU      0.22s WALL (      28 calls)
 
     PWSCF        :      4.72s CPU      5.47s WALL

 
   This run was terminated on:  12:40:40  22Apr2021            

=------------------------------------------------------------------------------=
   JOB DONE.
=------------------------------------------------------------------------------=
