
     Program PWSCF v.5.3.0 (svn rev. 12106M) starts on 11Feb2016 at 14:28:37 

     This program is part of the open-source Quantum ESPRESSO suite
     for quantum simulation of materials; please cite
         "P. Giannozzi et al., J. Phys.:Condens. Matter 21 395502 (2009);
          URL http://www.quantum-espresso.org", 
     in publications or presentations arising from this work. More details at
     http://www.quantum-espresso.org/quote

     Parallel version (MPI), running on     4 processors
     R & G space division:  proc/nbgrp/npool/nimage =       4
     Waiting for input...
     Reading input from standard input

     Current dimensions of program PWSCF are:
     Max number of different atomic species (ntypx) = 10
     Max number of k-points (npk) =  40000
     Max angular momentum in pseudopotentials (lmaxx) =  3
               file H.pbe-rrkjus.UPF: wavefunction(s)  1S renormalized
               file O.pbe-rrkjus.UPF: wavefunction(s)  2S renormalized

     Subspace diagonalization in iterative solution of the eigenvalue problem:
     a serial algorithm will be used

 
     Parallelization info
     --------------------
     sticks:   dense  smooth     PW     G-vecs:    dense   smooth      PW
     Min        2387     952    237               175367    44376    5529
     Max        2388     953    238               175370    44378    5532
     Sum        9549    3809    949               701475   177509   22119
 


     bravais-lattice index     =            1
     lattice parameter (alat)  =      20.0000  a.u.
     unit-cell volume          =    8000.0000 (a.u.)^3
     number of atoms/cell      =            3
     number of atomic types    =            2
     number of electrons       =         8.00
     number of Kohn-Sham states=            4
     kinetic-energy cutoff     =      30.0000  Ry
     charge density cutoff     =     300.0000  Ry
     convergence threshold     =      5.0E-09
     mixing beta               =       0.4000
     number of iterations used =            8  plain     mixing
     Exchange-correlation      =  SLA  PW   PBE  PBE ( 1  4  3  4 0 0)
     nstep                     =           50

 

     Environ Module
     ==============

     Please cite
         "O. Andreussi, I. Dabo and N. Marzari, J. Chem. Phys. 136, 064102 (2012);"
     in publications or presentations arising from this work.

     compensation onset threshold      =               0.1000E+00 
     switching function adopted        =                     SCCS 
     density limit for vacuum region   =               0.5000E-02 
     density limit for bulk solvent    =               0.1000E-03 
     static permittivity               =                    78.30 
     epsilon calculation mode          =               electronic 
     type of numerical differentiator  =            central diff. 
     number of points in num. diff.    =                        2 
     required accuracy                 =               0.1000E-05 
     linear mixing parameter           =                     0.50 
     surface tension in input (dyn/cm) =                    50.00 
     surface tension in internal units =               0.6423E-04 
     delta parameter for surface depth =               0.1000E-04 
     external pressure in input (GPa)  =                    -0.35 
     external pressure in inter. units =              -0.2379E-04 
 

     celldm(1)=  20.000000  celldm(2)=   0.000000  celldm(3)=   0.000000
     celldm(4)=   0.000000  celldm(5)=   0.000000  celldm(6)=   0.000000

     crystal axes: (cart. coord. in units of alat)
               a(1) = (   1.000000   0.000000   0.000000 )  
               a(2) = (   0.000000   1.000000   0.000000 )  
               a(3) = (   0.000000   0.000000   1.000000 )  

     reciprocal axes: (cart. coord. in units 2 pi/alat)
               b(1) = (  1.000000  0.000000  0.000000 )  
               b(2) = (  0.000000  1.000000  0.000000 )  
               b(3) = (  0.000000  0.000000  1.000000 )  


     PseudoPot. # 1 for H  read from file:
     /mnt/storage/andreo/PWSCF/espresso-svn/pseudo/H.pbe-rrkjus.UPF
     MD5 check sum: 7cc9d459525c9a0585f487a71c3c9563
     Pseudo is Ultrasoft, Zval =  1.0
     Generated by new atomic code, or converted to UPF format
     Using radial grid of 1061 points,  2 beta functions with: 
                l(1) =   0
                l(2) =   0
     Q(r) pseudized with 0 coefficients 


     PseudoPot. # 2 for O  read from file:
     /mnt/storage/andreo/PWSCF/espresso-svn/pseudo/O.pbe-rrkjus.UPF
     MD5 check sum: 390ba29e75625707450f3bd3f0eb6be9
     Pseudo is Ultrasoft, Zval =  6.0
     Generated by new atomic code, or converted to UPF format
     Using radial grid of 1269 points,  4 beta functions with: 
                l(1) =   0
                l(2) =   0
                l(3) =   1
                l(4) =   1
     Q(r) pseudized with 0 coefficients 


     atomic species   valence    mass     pseudopotential
        H              1.00     1.00000     H ( 1.00)
        O              6.00    16.00000     O ( 1.00)

     No symmetry found


                                    s                        frac. trans.

      isym =  1     identity                                     

 cryst.   s( 1) = (     1          0          0      )
                  (     0          1          0      )
                  (     0          0          1      )

 cart.    s( 1) = (  1.0000000  0.0000000  0.0000000 )
                  (  0.0000000  1.0000000  0.0000000 )
                  (  0.0000000  0.0000000  1.0000000 )


     point group C_1 (1)    
     there are  1 classes
     the character table:

       E    
A      1.00

     the symmetry operations in each class and the name of the first element:

     E        1
          identity                                               

   Cartesian axes

     site n.     atom                  positions (alat units)
         1           O   tau(   1) = (   0.5895000   0.6025000   0.5750000  )
         2           H   tau(   2) = (   0.6725000   0.5610000   0.5750000  )
         3           H   tau(   3) = (   0.5280000   0.5330000   0.5750000  )

   Crystallographic axes

     site n.     atom                  positions (cryst. coord.)
         1           O   tau(   1) = (  0.5895000  0.6025000  0.5750000  )
         2           H   tau(   2) = (  0.6725000  0.5610000  0.5750000  )
         3           H   tau(   3) = (  0.5280000  0.5330000  0.5750000  )

     number of k points=     1
                       cart. coord. in units 2pi/alat
        k(    1) = (   0.0000000   0.0000000   0.0000000), wk =   2.0000000

                       cryst. coord.
        k(    1) = (   0.0000000   0.0000000   0.0000000), wk =   2.0000000

     Dense  grid:   701475 G-vectors     FFT dimensions: ( 120, 120, 120)

     Smooth grid:   177509 G-vectors     FFT dimensions: (  72,  72,  72)

     Largest allocated arrays     est. size (Mb)     dimensions
        Kohn-Sham Wavefunctions         0.34 Mb     (    5529,    4)
        NL pseudopotentials             1.01 Mb     (    5529,   12)
        Each V/rho on FFT grid          6.59 Mb     (  432000)
        Each G-vector array             1.34 Mb     (  175369)
        G-vector shells                 0.02 Mb     (    2534)
     Largest temporary arrays     est. size (Mb)     dimensions
        Each subspace H/S matrix        0.00 Mb     (       4,    4)
        Each <psi_i|beta_j> matrix      0.00 Mb     (      12,    4)
        Arrays for rho mixing          52.73 Mb     (  432000,    8)

     Initial potential from superposition of free atoms
     Check: negative starting charge=   -0.000775

     starting charge    7.80759, renormalised to    8.00000

     negative rho (up, down):  7.936E-04 0.000E+00
     Starting wfc are    6 randomized atomic wfcs

     total cpu time spent up to now is        1.7 secs

     per-process dynamical memory:   139.1 Mb

     Self-consistent Calculation

     iteration #  1     ecut=    30.00 Ry     beta=0.40
     CG style diagonalization
     ethr =  1.00E-02,  avg # of iterations =  3.0

     negative rho (up, down):  4.647E-04 0.000E+00

     total cpu time spent up to now is        3.5 secs

     total energy              =     -34.21271230 Ry
     Harris-Foulkes estimate   =     -34.58550946 Ry
     estimated scf accuracy    <       0.67778923 Ry
     solvation energy          =       0.00000000 Ry
     cavitation energy         =       0.01921313 Ry
     PV energy                 =      -0.01199420 Ry

     iteration #  2     ecut=    30.00 Ry     beta=0.40
     CG style diagonalization
     ethr =  8.47E-03,  avg # of iterations =  3.8

     negative rho (up, down):  2.936E-04 0.000E+00

     add environment contribution to local potential

     total cpu time spent up to now is        8.8 secs

     total energy              =     -34.27075434 Ry
     Harris-Foulkes estimate   =     -34.31760651 Ry
     estimated scf accuracy    <       0.09825697 Ry
     solvation energy          =       0.00000000 Ry
     cavitation energy         =       0.01556712 Ry
     PV energy                 =      -0.00852692 Ry

     iteration #  3     ecut=    30.00 Ry     beta=0.40
     CG style diagonalization
     ethr =  1.23E-03,  avg # of iterations =  3.5

     negative rho (up, down):  7.487E-04 0.000E+00

     add environment contribution to local potential

     total cpu time spent up to now is       14.5 secs

     total energy              =     -34.27909420 Ry
     Harris-Foulkes estimate   =     -33.84533405 Ry
     estimated scf accuracy    <       0.02807012 Ry
     solvation energy          =      -0.02427001 Ry
     cavitation energy         =       0.01365530 Ry
     PV energy                 =      -0.00694396 Ry

     iteration #  4     ecut=    30.00 Ry     beta=0.40
     CG style diagonalization
     ethr =  3.51E-04,  avg # of iterations =  3.5

     negative rho (up, down):  5.456E-04 0.000E+00

     add environment contribution to local potential

     total cpu time spent up to now is       19.8 secs

     total energy              =     -34.28553027 Ry
     Harris-Foulkes estimate   =     -34.15808612 Ry
     estimated scf accuracy    <       0.00221089 Ry
     solvation energy          =      -0.02916332 Ry
     cavitation energy         =       0.01376413 Ry
     PV energy                 =      -0.00703005 Ry

     iteration #  5     ecut=    30.00 Ry     beta=0.40
     CG style diagonalization
     ethr =  2.76E-05,  avg # of iterations =  4.0

     negative rho (up, down):  1.124E-03 0.000E+00

     add environment contribution to local potential

     total cpu time spent up to now is       25.0 secs

     total energy              =     -34.28707488 Ry
     Harris-Foulkes estimate   =     -34.20260156 Ry
     estimated scf accuracy    <       0.00036706 Ry
     solvation energy          =      -0.03185973 Ry
     cavitation energy         =       0.01368545 Ry
     PV energy                 =      -0.00697029 Ry

     iteration #  6     ecut=    30.00 Ry     beta=0.40
     CG style diagonalization
     ethr =  4.59E-06,  avg # of iterations =  4.0

     negative rho (up, down):  5.610E-04 0.000E+00

     add environment contribution to local potential

     total cpu time spent up to now is       29.9 secs

     total energy              =     -34.28783392 Ry
     Harris-Foulkes estimate   =     -34.23282651 Ry
     estimated scf accuracy    <       0.00002677 Ry
     solvation energy          =      -0.03361717 Ry
     cavitation energy         =       0.01374043 Ry
     PV energy                 =      -0.00701476 Ry

     iteration #  7     ecut=    30.00 Ry     beta=0.40
     CG style diagonalization
     ethr =  3.35E-07,  avg # of iterations =  4.0

     negative rho (up, down):  2.853E-04 0.000E+00

     add environment contribution to local potential

     total cpu time spent up to now is       34.5 secs

     total energy              =     -34.28854012 Ry
     Harris-Foulkes estimate   =     -34.22652556 Ry
     estimated scf accuracy    <       0.00000542 Ry
     solvation energy          =      -0.03413144 Ry
     cavitation energy         =       0.01371749 Ry
     PV energy                 =      -0.00699744 Ry

     iteration #  8     ecut=    30.00 Ry     beta=0.40
     CG style diagonalization
     ethr =  6.78E-08,  avg # of iterations =  4.0

     negative rho (up, down):  2.411E-04 0.000E+00

     add environment contribution to local potential

     total cpu time spent up to now is       39.2 secs

     total energy              =     -34.28835700 Ry
     Harris-Foulkes estimate   =     -34.22527654 Ry
     estimated scf accuracy    <       0.00000158 Ry
     solvation energy          =      -0.03417206 Ry
     cavitation energy         =       0.01372448 Ry
     PV energy                 =      -0.00700323 Ry

     iteration #  9     ecut=    30.00 Ry     beta=0.40
     CG style diagonalization
     ethr =  1.98E-08,  avg # of iterations =  4.0

     negative rho (up, down):  2.246E-04 0.000E+00

     add environment contribution to local potential

     total cpu time spent up to now is       44.0 secs

     total energy              =     -34.28841241 Ry
     Harris-Foulkes estimate   =     -34.22434368 Ry
     estimated scf accuracy    <       0.00000026 Ry
     solvation energy          =      -0.03433992 Ry
     cavitation energy         =       0.01372186 Ry
     PV energy                 =      -0.00700150 Ry

     iteration # 10     ecut=    30.00 Ry     beta=0.40
     CG style diagonalization
     ethr =  3.23E-09,  avg # of iterations =  4.0

     negative rho (up, down):  2.155E-04 0.000E+00

     add environment contribution to local potential

     total cpu time spent up to now is       48.3 secs

     total energy              =     -34.28847725 Ry
     Harris-Foulkes estimate   =     -34.22383227 Ry
     estimated scf accuracy    <       0.00000001 Ry
     solvation energy          =      -0.03443228 Ry
     cavitation energy         =       0.01372168 Ry
     PV energy                 =      -0.00700142 Ry

     iteration # 11     ecut=    30.00 Ry     beta=0.40
     CG style diagonalization
     ethr =  1.72E-10,  avg # of iterations =  4.2

     negative rho (up, down):  2.124E-04 0.000E+00

     total cpu time spent up to now is       50.0 secs

     End of self-consistent calculation

          k = 0.0000 0.0000 0.0000 ( 22119 PWs)   bands (ev):

   -24.6693 -12.4375  -8.8730  -6.9062

     occupation numbers 
     1.0000   1.0000   1.0000   1.0000

     highest occupied level (ev):    -6.9062

!    total energy              =     -34.28849444 Ry
     Harris-Foulkes estimate   =     -34.22363955 Ry
     estimated scf accuracy    <          6.4E-10 Ry

     The total energy is the sum of the following terms:

     one-electron contribution =     -63.87680072 Ry
     hartree contribution      =      33.50079029 Ry
     xc contribution           =      -8.40498682 Ry
     ewald contribution        =       4.55735774 Ry
     solvation energy          =      -0.03444951 Ry
     cavitation energy         =       0.01372168 Ry
     PV energy                 =      -0.00700142 Ry

     charge density inside the Wigner-Seitz cell:    8.00000000

     reference position (x0):        11.84375000   11.77250000   11.50000000 bohr

     Dipole moments (with respect to x0):
     Elect   0.1831  -0.9458   0.0000 au (Ha),   0.4654  -2.4040   0.0000 Debye
     Ionic   0.0000   0.0000   0.0000 au (Ha),   0.0000   0.0000   0.0000 Debye
     Total   0.1831  -0.9458   0.0000 au (Ha),   0.4654  -2.4040   0.0000 Debye

     Electrons quadrupole moment        -20.20242899 a.u. (Ha)
          Ions quadrupole moment          6.25033750 a.u. (Ha)
         Total quadrupole moment        -13.95209149 a.u. (Ha)

     *********    MAKOV-PAYNE CORRECTION    *********

     Makov-Payne correction with Madelung constant =   2.8373

     Makov-Payne correction     0.00000000 Ry =  0.000 eV (1st order, 1/a0)
                                0.00048594 Ry =  0.007 eV (2nd order, 1/a0^3)
                                0.00048594 Ry =  0.007 eV (total)

!    Total+Makov-Payne energy  =     -34.28800850 Ry

     *******  ENVIRON-MAKOV-PAYNE CORRECTION  *******

     Dipole moments (with respect to x0):
     Envir  -0.1794   0.9267   0.0000 au (Ha),  -0.4561   2.3554   0.0000 Debye
     Full    0.0037  -0.0191   0.0000 au (Ha),   0.0093  -0.0485   0.0000 Debye

     Environ quadrupole moment          0.68181824 a.u. (Ha)
       FullB quadrupole moment        -13.27027324 a.u. (Ha)

     Environ correction         0.00000000 Ry =  0.000 eV (1st order diel, 1/a0)
                               -0.00047584 Ry = -0.006 eV (2nd order diel, 1/a0^3)
                                0.00000000 Ry =  0.000 eV (jellium, 1/a0^3)
                                0.00000617 Ry =  0.000 eV (periodic solutes, 1/a0^3)
                               -0.00046967 Ry = -0.006 eV (total diel)

!    Envir+Makov-Payne energy  =     -34.28847817 Ry

     convergence has been achieved in  11 iterations
     The dielectric solvent contribution to forces
     atom    1 type  2   force =     0.04908663   -0.25412037    0.00000003
     atom    2 type  1   force =     0.03951087   -0.03949255    0.00000001
     atom    3 type  1   force =    -0.02195517   -0.05132053    0.00000001
     The global environment contribution to forces
     atom    1 type  2   force =     0.04908663   -0.25412037    0.00000003
     atom    2 type  1   force =     0.03951087   -0.03949255    0.00000001
     atom    3 type  1   force =    -0.02195517   -0.05132053    0.00000001
 

     Forces acting on atoms (Ry/au):

     atom    1 type  2   force =     0.00229369   -0.01222813    0.00000005
     atom    2 type  1   force =    -0.01020784    0.00433298   -0.00000002
     atom    3 type  1   force =     0.00791415    0.00789515   -0.00000002
     The non-local contrib.  to forces
     atom    1 type  2   force =     0.43433960   -2.24104600    0.00000007
     atom    2 type  1   force =    -0.18028413    0.08316561    0.00000000
     atom    3 type  1   force =     0.13615863    0.14444556    0.00000000
     The ionic contribution  to forces
     atom    1 type  2   force =    -0.80474894    4.15284562    0.00000000
     atom    2 type  1   force =     3.32883149   -1.50955609    0.00000000
     atom    3 type  1   force =    -2.52408255   -2.64328953    0.00000000
     The local contribution  to forces
     atom    1 type  2   force =     0.32367870   -1.67009172   -0.00000026
     atom    2 type  1   force =    -3.19821089    1.47009812   -0.00000001
     atom    3 type  1   force =     2.41785248    2.55794230   -0.00000001
     The core correction contribution to forces
     atom    1 type  2   force =     0.00000000    0.00000000    0.00000000
     atom    2 type  1   force =     0.00000000    0.00000000    0.00000000
     atom    3 type  1   force =     0.00000000    0.00000000    0.00000000
     The Hubbard contrib.    to forces
     atom    1 type  2   force =     0.00000000    0.00000000    0.00000000
     atom    2 type  1   force =     0.00000000    0.00000000    0.00000000
     atom    3 type  1   force =     0.00000000    0.00000000    0.00000000
     The SCF correction term to forces
     atom    1 type  2   force =    -0.00000468    0.00006606    0.00000023
     atom    2 type  1   force =     0.00000244   -0.00000039    0.00000000
     atom    3 type  1   force =    -0.00000161   -0.00000093    0.00000000

     Total force =     0.020068     Total SCF correction =     0.000066

     BFGS Geometry Optimization

     number of scf cycles    =   1
     number of bfgs steps    =   0

     energy   new            =     -34.2884944379 Ry

     new trust radius        =       0.0124413908 bohr
     new conv_thr            =       0.0000000050 Ry


ATOMIC_POSITIONS (bohr)
O       11.792293691  12.037771869  11.500000045
H       13.439792160  11.224332982  11.499999979
H       10.567914149  10.667895149  11.499999976



     Writing output data file h2o_water.save
     Check: negative starting charge=   -0.000775
     NEW-OLD atomic charge density approx. for the potential
     Check: negative starting charge=   -0.000776

     negative rho (up, down):  6.948E-04 0.000E+00

     add environment contribution to local potential

     total cpu time spent up to now is       62.0 secs

     per-process dynamical memory:   223.7 Mb

     Self-consistent Calculation

     iteration #  1     ecut=    30.00 Ry     beta=0.40
     CG style diagonalization
     ethr =  1.00E-06,  avg # of iterations =  4.8

     negative rho (up, down):  4.687E-04 0.000E+00

     add environment contribution to local potential

     total cpu time spent up to now is       66.7 secs

     total energy              =     -34.28836164 Ry
     Harris-Foulkes estimate   =     -34.22100649 Ry
     estimated scf accuracy    <       0.00033991 Ry
     solvation energy          =      -0.03415267 Ry
     cavitation energy         =       0.01366031 Ry
     PV energy                 =      -0.00695585 Ry

     iteration #  2     ecut=    30.00 Ry     beta=0.40
     CG style diagonalization
     ethr =  4.25E-06,  avg # of iterations =  4.0

     negative rho (up, down):  3.556E-04 0.000E+00

     add environment contribution to local potential

     total cpu time spent up to now is       71.2 secs

     total energy              =     -34.28861359 Ry
     Harris-Foulkes estimate   =     -34.22107952 Ry
     estimated scf accuracy    <       0.00001847 Ry
     solvation energy          =      -0.03425298 Ry
     cavitation energy         =       0.01366706 Ry
     PV energy                 =      -0.00696081 Ry

     iteration #  3     ecut=    30.00 Ry     beta=0.40
     CG style diagonalization
     ethr =  2.31E-07,  avg # of iterations =  4.0

     negative rho (up, down):  2.497E-04 0.000E+00

     add environment contribution to local potential

     total cpu time spent up to now is       75.8 secs

     total energy              =     -34.28858777 Ry
     Harris-Foulkes estimate   =     -34.22066109 Ry
     estimated scf accuracy    <       0.00000440 Ry
     solvation energy          =      -0.03417128 Ry
     cavitation energy         =       0.01366943 Ry
     PV energy                 =      -0.00696230 Ry

     iteration #  4     ecut=    30.00 Ry     beta=0.40
     CG style diagonalization
     ethr =  5.50E-08,  avg # of iterations =  4.0

     negative rho (up, down):  2.301E-04 0.000E+00

     add environment contribution to local potential

     total cpu time spent up to now is       80.1 secs

     total energy              =     -34.28855929 Ry
     Harris-Foulkes estimate   =     -34.22020951 Ry
     estimated scf accuracy    <       0.00000027 Ry
     solvation energy          =      -0.03415118 Ry
     cavitation energy         =       0.01367138 Ry
     PV energy                 =      -0.00696375 Ry

     iteration #  5     ecut=    30.00 Ry     beta=0.40
     CG style diagonalization
     ethr =  3.40E-09,  avg # of iterations =  4.0

     negative rho (up, down):  2.180E-04 0.000E+00

     add environment contribution to local potential

     total cpu time spent up to now is       84.3 secs

     total energy              =     -34.28856120 Ry
     Harris-Foulkes estimate   =     -34.22014689 Ry
     estimated scf accuracy    <       0.00000003 Ry
     solvation energy          =      -0.03415700 Ry
     cavitation energy         =       0.01367242 Ry
     PV energy                 =      -0.00696449 Ry

     iteration #  6     ecut=    30.00 Ry     beta=0.40
     CG style diagonalization
     ethr =  3.25E-10,  avg # of iterations =  3.2

     negative rho (up, down):  2.136E-04 0.000E+00

     total cpu time spent up to now is       86.0 secs

     End of self-consistent calculation

          k = 0.0000 0.0000 0.0000 ( 22119 PWs)   bands (ev):

   -24.7682 -12.5580  -8.8666  -6.9268

     occupation numbers 
     1.0000   1.0000   1.0000   1.0000

     highest occupied level (ev):    -6.9268

!    total energy              =     -34.28855942 Ry
     Harris-Foulkes estimate   =     -34.22008078 Ry
     estimated scf accuracy    <          3.2E-09 Ry

     The total energy is the sum of the following terms:

     one-electron contribution =     -64.09375014 Ry
     hartree contribution      =      33.60373752 Ry
     xc contribution           =      -8.42261139 Ry
     ewald contribution        =       4.69254316 Ry
     solvation energy          =      -0.03415514 Ry
     cavitation energy         =       0.01367242 Ry
     PV energy                 =      -0.00696449 Ry

     charge density inside the Wigner-Seitz cell:    8.00000000

     reference position (x0):        11.84518356   11.76485742   11.50000003 bohr

     Dipole moments (with respect to x0):
     Elect   0.1817  -0.9370   0.0000 au (Ha),   0.4618  -2.3816   0.0000 Debye
     Ionic   0.0000   0.0000   0.0000 au (Ha),   0.0000   0.0000   0.0000 Debye
     Total   0.1817  -0.9370   0.0000 au (Ha),   0.4618  -2.3816   0.0000 Debye

     Electrons quadrupole moment        -20.08001301 a.u. (Ha)
          Ions quadrupole moment          6.13336444 a.u. (Ha)
         Total quadrupole moment        -13.94664858 a.u. (Ha)

     *********    MAKOV-PAYNE CORRECTION    *********

     Makov-Payne correction with Madelung constant =   2.8373

     Makov-Payne correction     0.00000000 Ry =  0.000 eV (1st order, 1/a0)
                                0.00047697 Ry =  0.006 eV (2nd order, 1/a0^3)
                                0.00047697 Ry =  0.006 eV (total)

!    Total+Makov-Payne energy  =     -34.28808246 Ry

     *******  ENVIRON-MAKOV-PAYNE CORRECTION  *******

     Dipole moments (with respect to x0):
     Envir  -0.1777   0.9181   0.0000 au (Ha),  -0.4517   2.3336   0.0000 Debye
     Full    0.0040  -0.0189   0.0000 au (Ha),   0.0101  -0.0480   0.0000 Debye

     Environ quadrupole moment          0.69798545 a.u. (Ha)
       FullB quadrupole moment        -13.24866312 a.u. (Ha)

     Environ correction         0.00000000 Ry =  0.000 eV (1st order diel, 1/a0)
                               -0.00046697 Ry = -0.006 eV (2nd order diel, 1/a0^3)
                                0.00000000 Ry =  0.000 eV (jellium, 1/a0^3)
                                0.00000607 Ry =  0.000 eV (periodic solutes, 1/a0^3)
                               -0.00046090 Ry = -0.006 eV (total diel)

!    Envir+Makov-Payne energy  =     -34.28854336 Ry

     convergence has been achieved in   6 iterations
     The dielectric solvent contribution to forces
     atom    1 type  2   force =     0.04898233   -0.25363766   -0.00000002
     atom    2 type  1   force =     0.03949086   -0.03922870    0.00000000
     atom    3 type  1   force =    -0.02203883   -0.05106056    0.00000000
     The global environment contribution to forces
     atom    1 type  2   force =     0.04898233   -0.25363766   -0.00000002
     atom    2 type  1   force =     0.03949086   -0.03922870    0.00000000
     atom    3 type  1   force =    -0.02203883   -0.05106056    0.00000000
 

     Forces acting on atoms (Ry/au):

     atom    1 type  2   force =    -0.00189738    0.01025757    0.00000000
     atom    2 type  1   force =     0.00603850   -0.00409818    0.00000000
     atom    3 type  1   force =    -0.00414112   -0.00615939    0.00000000
     The non-local contrib.  to forces
     atom    1 type  2   force =     0.43337886   -2.23584849   -0.00000014
     atom    2 type  1   force =    -0.18633203    0.08474671    0.00000001
     atom    3 type  1   force =     0.14120477    0.14822349    0.00000001
     The ionic contribution  to forces
     atom    1 type  2   force =    -0.81541717    4.21058416    0.00000026
     atom    2 type  1   force =     3.40302971   -1.52476759   -0.00000013
     atom    3 type  1   force =    -2.58761254   -2.68581658   -0.00000013
     The local contribution  to forces
     atom    1 type  2   force =     0.33116294   -1.71094491   -0.00000011
     atom    2 type  1   force =    -3.25013986    1.47499419    0.00000012
     atom    3 type  1   force =     2.46432791    2.58233953    0.00000013
     The core correction contribution to forces
     atom    1 type  2   force =     0.00000000    0.00000000    0.00000000
     atom    2 type  1   force =     0.00000000    0.00000000    0.00000000
     atom    3 type  1   force =     0.00000000    0.00000000    0.00000000
     The Hubbard contrib.    to forces
     atom    1 type  2   force =     0.00000000    0.00000000    0.00000000
     atom    2 type  1   force =     0.00000000    0.00000000    0.00000000
     atom    3 type  1   force =     0.00000000    0.00000000    0.00000000
     The SCF correction term to forces
     atom    1 type  2   force =     0.00001362   -0.00005936    0.00000000
     atom    2 type  1   force =     0.00000779   -0.00000660    0.00000000
     atom    3 type  1   force =    -0.00000446   -0.00000910    0.00000000

     Total force =     0.014736     Total SCF correction =     0.000063

     number of scf cycles    =   2
     number of bfgs steps    =   1

     energy   old            =     -34.2884944379 Ry
     energy   new            =     -34.2885594225 Ry

     CASE: energy  _new < energy  _old

     new trust radius        =       0.0059813109 bohr
     new conv_thr            =            5.0E-11 Ry


ATOMIC_POSITIONS (bohr)
O       11.791205953  12.043653442  11.500000046
H       13.443235663  11.221979663  11.499999979
H       10.565558384  10.664366895  11.499999975



     Writing output data file h2o_water.save
     Check: negative starting charge=   -0.000776
     NEW-OLD atomic charge density approx. for the potential
     Check: negative starting charge=   -0.000775

     negative rho (up, down):  2.428E-04 0.000E+00

     add environment contribution to local potential

     total cpu time spent up to now is       97.9 secs

     per-process dynamical memory:   223.7 Mb

     Self-consistent Calculation

     iteration #  1     ecut=    30.00 Ry     beta=0.40
     CG style diagonalization
     ethr =  1.00E-06,  avg # of iterations =  3.5

     negative rho (up, down):  2.164E-04 0.000E+00

     add environment contribution to local potential

     total cpu time spent up to now is      102.4 secs

     total energy              =     -34.28866105 Ry
     Harris-Foulkes estimate   =     -34.22131999 Ry
     estimated scf accuracy    <       0.00006020 Ry
     solvation energy          =      -0.03428214 Ry
     cavitation energy         =       0.01369654 Ry
     PV energy                 =      -0.00698238 Ry

     iteration #  2     ecut=    30.00 Ry     beta=0.40
     CG style diagonalization
     ethr =  7.52E-07,  avg # of iterations =  4.0

     negative rho (up, down):  2.074E-04 0.000E+00

     add environment contribution to local potential

     total cpu time spent up to now is      106.6 secs

     total energy              =     -34.28859377 Ry
     Harris-Foulkes estimate   =     -34.22127358 Ry
     estimated scf accuracy    <       0.00000346 Ry
     solvation energy          =      -0.03424262 Ry
     cavitation energy         =       0.01369398 Ry
     PV energy                 =      -0.00698050 Ry

     iteration #  3     ecut=    30.00 Ry     beta=0.40
     CG style diagonalization
     ethr =  4.33E-08,  avg # of iterations =  4.0

     negative rho (up, down):  2.135E-04 0.000E+00

     add environment contribution to local potential

     total cpu time spent up to now is      110.8 secs

     total energy              =     -34.28861318 Ry
     Harris-Foulkes estimate   =     -34.22141827 Ry
     estimated scf accuracy    <       0.00000082 Ry
     solvation energy          =      -0.03428665 Ry
     cavitation energy         =       0.01369363 Ry
     PV energy                 =      -0.00698036 Ry

     iteration #  4     ecut=    30.00 Ry     beta=0.40
     CG style diagonalization
     ethr =  1.03E-08,  avg # of iterations =  4.0

     negative rho (up, down):  2.117E-04 0.000E+00

     add environment contribution to local potential

     total cpu time spent up to now is      115.0 secs

     total energy              =     -34.28862411 Ry
     Harris-Foulkes estimate   =     -34.22160589 Ry
     estimated scf accuracy    <       0.00000006 Ry
     solvation energy          =      -0.03429216 Ry
     cavitation energy         =       0.01369287 Ry
     PV energy                 =      -0.00697979 Ry

     iteration #  5     ecut=    30.00 Ry     beta=0.40
     CG style diagonalization
     ethr =  7.34E-10,  avg # of iterations =  4.0

     negative rho (up, down):  2.139E-04 0.000E+00

     add environment contribution to local potential

     total cpu time spent up to now is      119.2 secs

     total energy              =     -34.28861938 Ry
     Harris-Foulkes estimate   =     -34.22161464 Ry
     estimated scf accuracy    <          5.1E-09 Ry
     solvation energy          =      -0.03428564 Ry
     cavitation energy         =       0.01369228 Ry
     PV energy                 =      -0.00697936 Ry

     iteration #  6     ecut=    30.00 Ry     beta=0.40
     CG style diagonalization
     ethr =  6.37E-11,  avg # of iterations =  4.0

     negative rho (up, down):  2.135E-04 0.000E+00

     add environment contribution to local potential

     total cpu time spent up to now is      123.3 secs

     total energy              =     -34.28862080 Ry
     Harris-Foulkes estimate   =     -34.22165142 Ry
     estimated scf accuracy    <          1.4E-09 Ry
     solvation energy          =      -0.03428597 Ry
     cavitation energy         =       0.01369234 Ry
     PV energy                 =      -0.00697941 Ry

     iteration #  7     ecut=    30.00 Ry     beta=0.40
     CG style diagonalization
     ethr =  1.76E-11,  avg # of iterations =  3.8

     negative rho (up, down):  2.132E-04 0.000E+00

     total cpu time spent up to now is      125.0 secs

     End of self-consistent calculation

          k = 0.0000 0.0000 0.0000 ( 22119 PWs)   bands (ev):

   -24.7282 -12.5031  -8.8735  -6.9184

     occupation numbers 
     1.0000   1.0000   1.0000   1.0000

     highest occupied level (ev):    -6.9184

!    total energy              =     -34.28862048 Ry
     Harris-Foulkes estimate   =     -34.22166552 Ry
     estimated scf accuracy    <          3.2E-11 Ry

     The total energy is the sum of the following terms:

     one-electron contribution =     -64.00317889 Ry
     hartree contribution      =      33.56052284 Ry
     xc contribution           =      -8.41520432 Ry
     ewald contribution        =       4.63619487 Ry
     solvation energy          =      -0.03428567 Ry
     cavitation energy         =       0.01369234 Ry
     PV energy                 =      -0.00697941 Ry

     charge density inside the Wigner-Seitz cell:    8.00000000

     reference position (x0):        11.84450372   11.76853340   11.50000003 bohr

     Dipole moments (with respect to x0):
     Elect   0.1824  -0.9414   0.0000 au (Ha),   0.4637  -2.3928   0.0000 Debye
     Ionic   0.0000   0.0000   0.0000 au (Ha),   0.0000   0.0000   0.0000 Debye
     Total   0.1824  -0.9414   0.0000 au (Ha),   0.4637  -2.3928   0.0000 Debye

     Electrons quadrupole moment        -20.13086243 a.u. (Ha)
          Ions quadrupole moment          6.18073980 a.u. (Ha)
         Total quadrupole moment        -13.95012263 a.u. (Ha)

     *********    MAKOV-PAYNE CORRECTION    *********

     Makov-Payne correction with Madelung constant =   2.8373

     Makov-Payne correction     0.00000000 Ry =  0.000 eV (1st order, 1/a0)
                                0.00048147 Ry =  0.007 eV (2nd order, 1/a0^3)
                                0.00048147 Ry =  0.007 eV (total)

!    Total+Makov-Payne energy  =     -34.28813902 Ry

     *******  ENVIRON-MAKOV-PAYNE CORRECTION  *******

     Dipole moments (with respect to x0):
     Envir  -0.1786   0.9226   0.0000 au (Ha),  -0.4539   2.3450   0.0000 Debye
     Full    0.0038  -0.0188   0.0000 au (Ha),   0.0098  -0.0478   0.0000 Debye

     Environ quadrupole moment          0.69202802 a.u. (Ha)
       FullB quadrupole moment        -13.25809461 a.u. (Ha)

     Environ correction         0.00000000 Ry =  0.000 eV (1st order diel, 1/a0)
                               -0.00047152 Ry = -0.006 eV (2nd order diel, 1/a0^3)
                                0.00000000 Ry =  0.000 eV (jellium, 1/a0^3)
                                0.00000606 Ry =  0.000 eV (periodic solutes, 1/a0^3)
                               -0.00046546 Ry = -0.006 eV (total diel)

!    Envir+Makov-Payne energy  =     -34.28860447 Ry

     convergence has been achieved in   7 iterations
     The dielectric solvent contribution to forces
     atom    1 type  2   force =     0.04907732   -0.25408554   -0.00000002
     atom    2 type  1   force =     0.03944715   -0.03941631    0.00000000
     atom    3 type  1   force =    -0.02192399   -0.05121859    0.00000000
     The global environment contribution to forces
     atom    1 type  2   force =     0.04907732   -0.25408554   -0.00000002
     atom    2 type  1   force =     0.03944715   -0.03941631    0.00000000
     atom    3 type  1   force =    -0.02192399   -0.05121859    0.00000000
 

     Forces acting on atoms (Ry/au):

     atom    1 type  2   force =    -0.00012738    0.00038815    0.00000000
     atom    2 type  1   force =    -0.00067354   -0.00034278    0.00000000
     atom    3 type  1   force =     0.00080092   -0.00004537    0.00000000
     The non-local contrib.  to forces
     atom    1 type  2   force =     0.43405440   -2.23953623   -0.00000014
     atom    2 type  1   force =    -0.18371156    0.08427348    0.00000001
     atom    3 type  1   force =     0.13892432    0.14676562    0.00000001
     The ionic contribution  to forces
     atom    1 type  2   force =    -0.81198455    4.19075454    0.00000026
     atom    2 type  1   force =     3.37090233   -1.52096402   -0.00000013
     atom    3 type  1   force =    -2.55891779   -2.66979052   -0.00000013
     The local contribution  to forces
     atom    1 type  2   force =     0.32875361   -1.69691136   -0.00000011
     atom    2 type  1   force =    -3.22728279    1.47558973    0.00000012
     atom    3 type  1   force =     2.44274618    2.57402362    0.00000013
     The core correction contribution to forces
     atom    1 type  2   force =     0.00000000    0.00000000    0.00000000
     atom    2 type  1   force =     0.00000000    0.00000000    0.00000000
     atom    3 type  1   force =     0.00000000    0.00000000    0.00000000
     The Hubbard contrib.    to forces
     atom    1 type  2   force =     0.00000000    0.00000000    0.00000000
     atom    2 type  1   force =     0.00000000    0.00000000    0.00000000
     atom    3 type  1   force =     0.00000000    0.00000000    0.00000000
     The SCF correction term to forces
     atom    1 type  2   force =    -0.00000001   -0.00000726    0.00000000
     atom    2 type  1   force =    -0.00000052    0.00000034    0.00000000
     atom    3 type  1   force =     0.00000035    0.00000052    0.00000000

     Total force =     0.001175     Total SCF correction =     0.000007

     bfgs converged in   3 scf cycles and   2 bfgs steps
     (criteria: energy <  1.0E-04, force <  1.0E-03)

     End of BFGS Geometry Optimization

     Final energy   =     -34.2886204835 Ry
Begin final coordinates

ATOMIC_POSITIONS (bohr)
O       11.791205953  12.043653442  11.500000046
H       13.443235663  11.221979663  11.499999979
H       10.565558384  10.664366895  11.499999975
End final coordinates



     Writing output data file h2o_water.save
 
     init_run     :      1.50s CPU      1.63s WALL (       1 calls)
     electrons    :    104.23s CPU    111.85s WALL (       3 calls)
     update_pot   :      1.57s CPU      4.04s WALL (       2 calls)
     forces       :      1.62s CPU      1.74s WALL (       3 calls)

     Called by init_run:
     wfcinit      :      0.04s CPU      0.05s WALL (       1 calls)
     potinit      :      0.62s CPU      0.68s WALL (       1 calls)

     Called by electrons:
     c_bands      :      3.11s CPU      3.20s WALL (      24 calls)
     sum_band     :     12.70s CPU     13.68s WALL (      24 calls)
     v_of_rho     :     10.04s CPU     10.81s WALL (      27 calls)
     v_h          :     10.58s CPU     10.71s WALL (     243 calls)
     v_xc         :      8.88s CPU      9.63s WALL (      27 calls)
     newd         :      5.73s CPU      6.71s WALL (      27 calls)
     mix_rho      :      2.22s CPU      2.24s WALL (      24 calls)

     Called by c_bands:
     init_us_2    :      0.08s CPU      0.08s WALL (      49 calls)
     ccgdiagg     :      2.42s CPU      2.50s WALL (      24 calls)
     wfcrot       :      0.69s CPU      0.70s WALL (      22 calls)

     Called by sum_band:
     sum_band:bec :      0.00s CPU      0.00s WALL (      24 calls)
     addusdens    :      9.29s CPU     10.23s WALL (      24 calls)

     Called by *cgdiagg:
     h_psi        :      2.91s CPU      2.99s WALL (     311 calls)
     s_psi        :      0.04s CPU      0.04s WALL (     600 calls)
     cdiaghg      :      0.00s CPU      0.00s WALL (      22 calls)

     Called by h_psi:
     h_psi:vloc   :      2.70s CPU      2.78s WALL (     311 calls)
     h_psi:vnl    :      0.19s CPU      0.20s WALL (     311 calls)
     add_vuspsi   :      0.02s CPU      0.03s WALL (     311 calls)
     h_1psi       :      2.27s CPU      2.34s WALL (     289 calls)

     General routines
     calbec       :      0.21s CPU      0.22s WALL (     636 calls)
     fft          :     49.71s CPU     51.43s WALL (    1683 calls)
     ffts         :      0.18s CPU      0.19s WALL (      51 calls)
     fftw         :      1.66s CPU      1.71s WALL (     854 calls)
     interpolate  :      1.99s CPU      2.05s WALL (      51 calls)
     davcio       :      0.00s CPU      0.00s WALL (       3 calls)
 
     Parallel routines
     fft_scatter  :     32.11s CPU     33.78s WALL (    2588 calls)
 
     Environ routines
     calc_esolv   :      2.03s CPU      2.05s WALL (      24 calls)
     calc_vsolv   :     45.52s CPU     46.47s WALL (      22 calls)
     dielectric   :      6.90s CPU      7.24s WALL (      22 calls)
     get_rhopol   :      7.65s CPU      7.73s WALL (       3 calls)
     calc_veps    :      3.91s CPU      4.01s WALL (      22 calls)
     calc_ecav    :      4.06s CPU      4.22s WALL (      24 calls)
     calc_vcav    :     11.50s CPU     11.72s WALL (      22 calls)
     calc_epre    :      0.11s CPU      0.14s WALL (      24 calls)
     calc_vpre    :      0.14s CPU      0.13s WALL (      22 calls)
 
     PWSCF        :  1m56.22s CPU     2m11.31s WALL

 
   This run was terminated on:  14:30:48  11Feb2016            

=------------------------------------------------------------------------------=
   JOB DONE.
=------------------------------------------------------------------------------=
