
     Program PWSCF v.5.3.0 (svn rev. 12106M) starts on 11Feb2016 at 14:27: 7 

     This program is part of the open-source Quantum ESPRESSO suite
     for quantum simulation of materials; please cite
         "P. Giannozzi et al., J. Phys.:Condens. Matter 21 395502 (2009);
          URL http://www.quantum-espresso.org", 
     in publications or presentations arising from this work. More details at
     http://www.quantum-espresso.org/quote

     Parallel version (MPI), running on     4 processors
     R & G space division:  proc/nbgrp/npool/nimage =       4
     Waiting for input...
     Reading input from standard input

     Current dimensions of program PWSCF are:
     Max number of different atomic species (ntypx) = 10
     Max number of k-points (npk) =  40000
     Max angular momentum in pseudopotentials (lmaxx) =  3
               file H.pbe-rrkjus.UPF: wavefunction(s)  1S renormalized
               file O.pbe-rrkjus.UPF: wavefunction(s)  2S renormalized

     Subspace diagonalization in iterative solution of the eigenvalue problem:
     a serial algorithm will be used

 
     Parallelization info
     --------------------
     sticks:   dense  smooth     PW     G-vecs:    dense   smooth      PW
     Min        2387     952    237               175367    44376    5529
     Max        2388     953    238               175370    44378    5532
     Sum        9549    3809    949               701475   177509   22119
 


     bravais-lattice index     =            1
     lattice parameter (alat)  =      20.0000  a.u.
     unit-cell volume          =    8000.0000 (a.u.)^3
     number of atoms/cell      =            3
     number of atomic types    =            2
     number of electrons       =         8.00
     number of Kohn-Sham states=            4
     kinetic-energy cutoff     =      30.0000  Ry
     charge density cutoff     =     300.0000  Ry
     convergence threshold     =      5.0E-09
     mixing beta               =       0.4000
     number of iterations used =            8  plain     mixing
     Exchange-correlation      =  SLA  PW   PBE  PBE ( 1  4  3  4 0 0)
     nstep                     =           50

 

     Environ Module
     ==============

     Please cite
         "O. Andreussi, I. Dabo and N. Marzari, J. Chem. Phys. 136, 064102 (2012);"
     in publications or presentations arising from this work.

     compensation onset threshold      =               0.1000E+00 
     switching function adopted        =                     SCCS 
     density limit for vacuum region   =               0.5000E-02 
     density limit for bulk solvent    =               0.1000E-03 
 

     celldm(1)=  20.000000  celldm(2)=   0.000000  celldm(3)=   0.000000
     celldm(4)=   0.000000  celldm(5)=   0.000000  celldm(6)=   0.000000

     crystal axes: (cart. coord. in units of alat)
               a(1) = (   1.000000   0.000000   0.000000 )  
               a(2) = (   0.000000   1.000000   0.000000 )  
               a(3) = (   0.000000   0.000000   1.000000 )  

     reciprocal axes: (cart. coord. in units 2 pi/alat)
               b(1) = (  1.000000  0.000000  0.000000 )  
               b(2) = (  0.000000  1.000000  0.000000 )  
               b(3) = (  0.000000  0.000000  1.000000 )  


     PseudoPot. # 1 for H  read from file:
     /mnt/storage/andreo/PWSCF/espresso-svn/pseudo/H.pbe-rrkjus.UPF
     MD5 check sum: 7cc9d459525c9a0585f487a71c3c9563
     Pseudo is Ultrasoft, Zval =  1.0
     Generated by new atomic code, or converted to UPF format
     Using radial grid of 1061 points,  2 beta functions with: 
                l(1) =   0
                l(2) =   0
     Q(r) pseudized with 0 coefficients 


     PseudoPot. # 2 for O  read from file:
     /mnt/storage/andreo/PWSCF/espresso-svn/pseudo/O.pbe-rrkjus.UPF
     MD5 check sum: 390ba29e75625707450f3bd3f0eb6be9
     Pseudo is Ultrasoft, Zval =  6.0
     Generated by new atomic code, or converted to UPF format
     Using radial grid of 1269 points,  4 beta functions with: 
                l(1) =   0
                l(2) =   0
                l(3) =   1
                l(4) =   1
     Q(r) pseudized with 0 coefficients 


     atomic species   valence    mass     pseudopotential
        H              1.00     1.00000     H ( 1.00)
        O              6.00    16.00000     O ( 1.00)

     No symmetry found


                                    s                        frac. trans.

      isym =  1     identity                                     

 cryst.   s( 1) = (     1          0          0      )
                  (     0          1          0      )
                  (     0          0          1      )

 cart.    s( 1) = (  1.0000000  0.0000000  0.0000000 )
                  (  0.0000000  1.0000000  0.0000000 )
                  (  0.0000000  0.0000000  1.0000000 )


     point group C_1 (1)    
     there are  1 classes
     the character table:

       E    
A      1.00

     the symmetry operations in each class and the name of the first element:

     E        1
          identity                                               

   Cartesian axes

     site n.     atom                  positions (alat units)
         1           O   tau(   1) = (   0.5895000   0.6025000   0.5750000  )
         2           H   tau(   2) = (   0.6725000   0.5610000   0.5750000  )
         3           H   tau(   3) = (   0.5280000   0.5330000   0.5750000  )

   Crystallographic axes

     site n.     atom                  positions (cryst. coord.)
         1           O   tau(   1) = (  0.5895000  0.6025000  0.5750000  )
         2           H   tau(   2) = (  0.6725000  0.5610000  0.5750000  )
         3           H   tau(   3) = (  0.5280000  0.5330000  0.5750000  )

     number of k points=     1
                       cart. coord. in units 2pi/alat
        k(    1) = (   0.0000000   0.0000000   0.0000000), wk =   2.0000000

                       cryst. coord.
        k(    1) = (   0.0000000   0.0000000   0.0000000), wk =   2.0000000

     Dense  grid:   701475 G-vectors     FFT dimensions: ( 120, 120, 120)

     Smooth grid:   177509 G-vectors     FFT dimensions: (  72,  72,  72)

     Largest allocated arrays     est. size (Mb)     dimensions
        Kohn-Sham Wavefunctions         0.34 Mb     (    5529,    4)
        NL pseudopotentials             1.01 Mb     (    5529,   12)
        Each V/rho on FFT grid          6.59 Mb     (  432000)
        Each G-vector array             1.34 Mb     (  175369)
        G-vector shells                 0.02 Mb     (    2534)
     Largest temporary arrays     est. size (Mb)     dimensions
        Each subspace H/S matrix        0.00 Mb     (       4,    4)
        Each <psi_i|beta_j> matrix      0.00 Mb     (      12,    4)
        Arrays for rho mixing          52.73 Mb     (  432000,    8)

     Initial potential from superposition of free atoms
     Check: negative starting charge=   -0.000775

     starting charge    7.80759, renormalised to    8.00000

     negative rho (up, down):  7.936E-04 0.000E+00
     Starting wfc are    6 randomized atomic wfcs

     total cpu time spent up to now is        1.6 secs

     per-process dynamical memory:    85.0 Mb

     Self-consistent Calculation

     iteration #  1     ecut=    30.00 Ry     beta=0.40
     CG style diagonalization
     ethr =  1.00E-02,  avg # of iterations =  3.0

     negative rho (up, down):  4.647E-04 0.000E+00

     total cpu time spent up to now is        3.1 secs

     total energy              =     -34.21993123 Ry
     Harris-Foulkes estimate   =     -34.58550946 Ry
     estimated scf accuracy    <       0.67778923 Ry

     iteration #  2     ecut=    30.00 Ry     beta=0.40
     CG style diagonalization
     ethr =  8.47E-03,  avg # of iterations =  3.8

     negative rho (up, down):  2.936E-04 0.000E+00

     add environment contribution to local potential

     total cpu time spent up to now is        4.7 secs

     total energy              =     -34.27779454 Ry
     Harris-Foulkes estimate   =     -34.31760651 Ry
     estimated scf accuracy    <       0.09825697 Ry

     iteration #  3     ecut=    30.00 Ry     beta=0.40
     CG style diagonalization
     ethr =  1.23E-03,  avg # of iterations =  3.0

     negative rho (up, down):  1.260E-03 0.000E+00

     add environment contribution to local potential

     total cpu time spent up to now is        6.2 secs

     total energy              =     -34.26504294 Ry
     Harris-Foulkes estimate   =     -34.28128955 Ry
     estimated scf accuracy    <       0.02868593 Ry

     iteration #  4     ecut=    30.00 Ry     beta=0.40
     CG style diagonalization
     ethr =  3.59E-04,  avg # of iterations =  3.2

     negative rho (up, down):  5.457E-04 0.000E+00

     add environment contribution to local potential

     total cpu time spent up to now is        7.7 secs

     total energy              =     -34.26787497 Ry
     Harris-Foulkes estimate   =     -34.26841186 Ry
     estimated scf accuracy    <       0.00096008 Ry

     iteration #  5     ecut=    30.00 Ry     beta=0.40
     CG style diagonalization
     ethr =  1.20E-05,  avg # of iterations =  4.2

     negative rho (up, down):  7.665E-04 0.000E+00

     add environment contribution to local potential

     total cpu time spent up to now is        9.3 secs

     total energy              =     -34.26827781 Ry
     Harris-Foulkes estimate   =     -34.26825500 Ry
     estimated scf accuracy    <       0.00025891 Ry

     iteration #  6     ecut=    30.00 Ry     beta=0.40
     CG style diagonalization
     ethr =  3.24E-06,  avg # of iterations =  4.0

     negative rho (up, down):  4.543E-04 0.000E+00

     add environment contribution to local potential

     total cpu time spent up to now is       10.8 secs

     total energy              =     -34.26831053 Ry
     Harris-Foulkes estimate   =     -34.26831915 Ry
     estimated scf accuracy    <       0.00002980 Ry

     iteration #  7     ecut=    30.00 Ry     beta=0.40
     CG style diagonalization
     ethr =  3.72E-07,  avg # of iterations =  3.5

     negative rho (up, down):  3.185E-04 0.000E+00

     add environment contribution to local potential

     total cpu time spent up to now is       12.3 secs

     total energy              =     -34.26831202 Ry
     Harris-Foulkes estimate   =     -34.26831435 Ry
     estimated scf accuracy    <       0.00000790 Ry

     iteration #  8     ecut=    30.00 Ry     beta=0.40
     CG style diagonalization
     ethr =  9.87E-08,  avg # of iterations =  3.8

     negative rho (up, down):  2.463E-04 0.000E+00

     add environment contribution to local potential

     total cpu time spent up to now is       13.9 secs

     total energy              =     -34.26831371 Ry
     Harris-Foulkes estimate   =     -34.26831362 Ry
     estimated scf accuracy    <       0.00000039 Ry

     iteration #  9     ecut=    30.00 Ry     beta=0.40
     CG style diagonalization
     ethr =  4.85E-09,  avg # of iterations =  3.0

     negative rho (up, down):  2.241E-04 0.000E+00

     add environment contribution to local potential

     total cpu time spent up to now is       15.4 secs

     total energy              =     -34.26831385 Ry
     Harris-Foulkes estimate   =     -34.26831374 Ry
     estimated scf accuracy    <       0.00000030 Ry

     iteration # 10     ecut=    30.00 Ry     beta=0.40
     CG style diagonalization
     ethr =  3.73E-09,  avg # of iterations =  3.0

     negative rho (up, down):  2.220E-04 0.000E+00

     add environment contribution to local potential

     total cpu time spent up to now is       16.9 secs

     total energy              =     -34.26831374 Ry
     Harris-Foulkes estimate   =     -34.26831387 Ry
     estimated scf accuracy    <       0.00000034 Ry

     iteration # 11     ecut=    30.00 Ry     beta=0.40
     CG style diagonalization
     ethr =  3.73E-09,  avg # of iterations =  3.5

     negative rho (up, down):  2.172E-04 0.000E+00

     add environment contribution to local potential

     total cpu time spent up to now is       18.5 secs

     total energy              =     -34.26831377 Ry
     Harris-Foulkes estimate   =     -34.26831376 Ry
     estimated scf accuracy    <       0.00000006 Ry

     iteration # 12     ecut=    30.00 Ry     beta=0.40
     CG style diagonalization
     ethr =  7.79E-10,  avg # of iterations =  3.0

     negative rho (up, down):  2.155E-04 0.000E+00

     add environment contribution to local potential

     total cpu time spent up to now is       20.0 secs

     total energy              =     -34.26831377 Ry
     Harris-Foulkes estimate   =     -34.26831377 Ry
     estimated scf accuracy    <       0.00000003 Ry

     iteration # 13     ecut=    30.00 Ry     beta=0.40
     CG style diagonalization
     ethr =  3.36E-10,  avg # of iterations =  3.0

     negative rho (up, down):  2.145E-04 0.000E+00

     add environment contribution to local potential

     total cpu time spent up to now is       21.6 secs

     total energy              =     -34.26831377 Ry
     Harris-Foulkes estimate   =     -34.26831377 Ry
     estimated scf accuracy    <       0.00000001 Ry

     iteration # 14     ecut=    30.00 Ry     beta=0.40
     CG style diagonalization
     ethr =  1.42E-10,  avg # of iterations =  3.0

     negative rho (up, down):  2.139E-04 0.000E+00

     total cpu time spent up to now is       22.9 secs

     End of self-consistent calculation

          k = 0.0000 0.0000 0.0000 ( 22119 PWs)   bands (ev):

   -25.0828 -12.9574  -9.1087  -7.0994

     occupation numbers 
     1.0000   1.0000   1.0000   1.0000

     highest occupied level (ev):    -7.0994

!    total energy              =     -34.26831377 Ry
     Harris-Foulkes estimate   =     -34.26831377 Ry
     estimated scf accuracy    <          4.1E-09 Ry

     The total energy is the sum of the following terms:

     one-electron contribution =     -63.77881812 Ry
     hartree contribution      =      33.33883505 Ry
     xc contribution           =      -8.38568844 Ry
     ewald contribution        =       4.55735774 Ry

     charge density inside the Wigner-Seitz cell:    8.00000000

     reference position (x0):        11.84375000   11.77250000   11.50000000 bohr

     Dipole moments (with respect to x0):
     Elect   0.1388  -0.7166   0.0000 au (Ha),   0.3529  -1.8214   0.0000 Debye
     Ionic   0.0000   0.0000   0.0000 au (Ha),   0.0000   0.0000   0.0000 Debye
     Total   0.1388  -0.7166   0.0000 au (Ha),   0.3529  -1.8214   0.0000 Debye

     Electrons quadrupole moment        -20.39969624 a.u. (Ha)
          Ions quadrupole moment          6.25033750 a.u. (Ha)
         Total quadrupole moment        -14.14935874 a.u. (Ha)

     *********    MAKOV-PAYNE CORRECTION    *********

     Makov-Payne correction with Madelung constant =   2.8373

     Makov-Payne correction     0.00000000 Ry =  0.000 eV (1st order, 1/a0)
                                0.00027897 Ry =  0.004 eV (2nd order, 1/a0^3)
                                0.00027897 Ry =  0.004 eV (total)

!    Total+Makov-Payne energy  =     -34.26803480 Ry

     convergence has been achieved in  14 iterations
     The global environment contribution to forces
     atom    1 type  2   force =     0.00000000    0.00000000    0.00000000
     atom    2 type  1   force =     0.00000000    0.00000000    0.00000000
     atom    3 type  1   force =     0.00000000    0.00000000    0.00000000
 

     Forces acting on atoms (Ry/au):

     atom    1 type  2   force =     0.00280077   -0.01469703    0.00000002
     atom    2 type  1   force =    -0.01388137    0.00491047   -0.00000001
     atom    3 type  1   force =     0.01108060    0.00978657   -0.00000001
     The non-local contrib.  to forces
     atom    1 type  2   force =     0.47463835   -2.44923227   -0.00000010
     atom    2 type  1   force =    -0.17605693    0.07930965    0.00000000
     atom    3 type  1   force =     0.13366576    0.13929683    0.00000000
     The ionic contribution  to forces
     atom    1 type  2   force =    -0.80474894    4.15284562    0.00000000
     atom    2 type  1   force =     3.32883149   -1.50955609    0.00000000
     atom    3 type  1   force =    -2.52408255   -2.64328953    0.00000000
     The local contribution  to forces
     atom    1 type  2   force =     0.33295851   -1.71838378   -0.00000007
     atom    2 type  1   force =    -3.16664387    1.43520768   -0.00000002
     atom    3 type  1   force =     2.40153117    2.51383420   -0.00000001
     The core correction contribution to forces
     atom    1 type  2   force =     0.00000000    0.00000000    0.00000000
     atom    2 type  1   force =     0.00000000    0.00000000    0.00000000
     atom    3 type  1   force =     0.00000000    0.00000000    0.00000000
     The Hubbard contrib.    to forces
     atom    1 type  2   force =     0.00000000    0.00000000    0.00000000
     atom    2 type  1   force =     0.00000000    0.00000000    0.00000000
     atom    3 type  1   force =     0.00000000    0.00000000    0.00000000
     The SCF correction term to forces
     atom    1 type  2   force =    -0.00002347    0.00012258    0.00000020
     atom    2 type  1   force =     0.00001164   -0.00000158    0.00000001
     atom    3 type  1   force =    -0.00001008   -0.00000576    0.00000001

     Total force =     0.025675     Total SCF correction =     0.000126

     BFGS Geometry Optimization

     number of scf cycles    =   1
     number of bfgs steps    =   0

     energy   new            =     -34.2683137674 Ry

     new trust radius        =       0.0149615195 bohr
     new conv_thr            =       0.0000000050 Ry


ATOMIC_POSITIONS (bohr)
O       11.792800765  12.035302967  11.500000016
H       13.436118633  11.224910467  11.499999991
H       10.571080602  10.669786566  11.499999993



     Writing output data file h2o_vacuum.save
     Check: negative starting charge=   -0.000775
     NEW-OLD atomic charge density approx. for the potential
     Check: negative starting charge=   -0.000776

     negative rho (up, down):  8.712E-04 0.000E+00

     add environment contribution to local potential

     total cpu time spent up to now is       28.7 secs

     per-process dynamical memory:    78.3 Mb

     Self-consistent Calculation

     iteration #  1     ecut=    30.00 Ry     beta=0.40
     CG style diagonalization
     ethr =  1.00E-06,  avg # of iterations =  4.8

     negative rho (up, down):  5.671E-04 0.000E+00

     add environment contribution to local potential

     total cpu time spent up to now is       30.3 secs

     total energy              =     -34.26828120 Ry
     Harris-Foulkes estimate   =     -34.26861905 Ry
     estimated scf accuracy    <       0.00066662 Ry

     iteration #  2     ecut=    30.00 Ry     beta=0.40
     CG style diagonalization
     ethr =  8.33E-06,  avg # of iterations =  4.0

     negative rho (up, down):  4.170E-04 0.000E+00

     add environment contribution to local potential

     total cpu time spent up to now is       31.8 secs

     total energy              =     -34.26841440 Ry
     Harris-Foulkes estimate   =     -34.26842978 Ry
     estimated scf accuracy    <       0.00004181 Ry

     iteration #  3     ecut=    30.00 Ry     beta=0.40
     CG style diagonalization
     ethr =  5.23E-07,  avg # of iterations =  3.8

     negative rho (up, down):  2.736E-04 0.000E+00

     add environment contribution to local potential

     total cpu time spent up to now is       33.4 secs

     total energy              =     -34.26842028 Ry
     Harris-Foulkes estimate   =     -34.26842288 Ry
     estimated scf accuracy    <       0.00000765 Ry

     iteration #  4     ecut=    30.00 Ry     beta=0.40
     CG style diagonalization
     ethr =  9.56E-08,  avg # of iterations =  3.8

     negative rho (up, down):  2.406E-04 0.000E+00

     add environment contribution to local potential

     total cpu time spent up to now is       34.9 secs

     total energy              =     -34.26842134 Ry
     Harris-Foulkes estimate   =     -34.26842140 Ry
     estimated scf accuracy    <       0.00000037 Ry

     iteration #  5     ecut=    30.00 Ry     beta=0.40
     CG style diagonalization
     ethr =  4.61E-09,  avg # of iterations =  3.5

     negative rho (up, down):  2.239E-04 0.000E+00

     add environment contribution to local potential

     total cpu time spent up to now is       36.4 secs

     total energy              =     -34.26842140 Ry
     Harris-Foulkes estimate   =     -34.26842139 Ry
     estimated scf accuracy    <       0.00000006 Ry

     iteration #  6     ecut=    30.00 Ry     beta=0.40
     CG style diagonalization
     ethr =  7.42E-10,  avg # of iterations =  3.8

     negative rho (up, down):  2.183E-04 0.000E+00

     add environment contribution to local potential

     total cpu time spent up to now is       38.0 secs

     total energy              =     -34.26842141 Ry
     Harris-Foulkes estimate   =     -34.26842141 Ry
     estimated scf accuracy    <       0.00000001 Ry

     iteration #  7     ecut=    30.00 Ry     beta=0.40
     CG style diagonalization
     ethr =  1.68E-10,  avg # of iterations =  3.8

     negative rho (up, down):  2.154E-04 0.000E+00

     total cpu time spent up to now is       39.5 secs

     End of self-consistent calculation

          k = 0.0000 0.0000 0.0000 ( 22119 PWs)   bands (ev):

   -25.2100 -13.1044  -9.0956  -7.1246

     occupation numbers 
     1.0000   1.0000   1.0000   1.0000

     highest occupied level (ev):    -7.1246

!    total energy              =     -34.26842144 Ry
     Harris-Foulkes estimate   =     -34.26842142 Ry
     estimated scf accuracy    <          4.4E-10 Ry

     The total energy is the sum of the following terms:

     one-electron contribution =     -64.06593263 Ry
     hartree contribution      =      33.47605924 Ry
     xc contribution           =      -8.40865727 Ry
     ewald contribution        =       4.73010921 Ry

     charge density inside the Wigner-Seitz cell:    8.00000000

     reference position (x0):        11.84550048   11.76331435   11.50000001 bohr

     Dipole moments (with respect to x0):
     Elect   0.1380  -0.7119   0.0000 au (Ha),   0.3506  -1.8095   0.0000 Debye
     Ionic   0.0000   0.0000   0.0000 au (Ha),   0.0000   0.0000   0.0000 Debye
     Total   0.1380  -0.7119   0.0000 au (Ha),   0.3506  -1.8095   0.0000 Debye

     Electrons quadrupole moment        -20.23102233 a.u. (Ha)
          Ions quadrupole moment          6.10042430 a.u. (Ha)
         Total quadrupole moment        -14.13059804 a.u. (Ha)

     *********    MAKOV-PAYNE CORRECTION    *********

     Makov-Payne correction with Madelung constant =   2.8373

     Makov-Payne correction     0.00000000 Ry =  0.000 eV (1st order, 1/a0)
                                0.00027533 Ry =  0.004 eV (2nd order, 1/a0^3)
                                0.00027533 Ry =  0.004 eV (total)

!    Total+Makov-Payne energy  =     -34.26814612 Ry

     convergence has been achieved in   7 iterations
     The global environment contribution to forces
     atom    1 type  2   force =     0.00000000    0.00000000    0.00000000
     atom    2 type  1   force =     0.00000000    0.00000000    0.00000000
     atom    3 type  1   force =     0.00000000    0.00000000    0.00000000
 

     Forces acting on atoms (Ry/au):

     atom    1 type  2   force =    -0.00250386    0.01355941    0.00000000
     atom    2 type  1   force =     0.00708196   -0.00562701    0.00000000
     atom    3 type  1   force =    -0.00457811   -0.00793240    0.00000000
     The non-local contrib.  to forces
     atom    1 type  2   force =     0.47411950   -2.44572141   -0.00000005
     atom    2 type  1   force =    -0.18367920    0.08153227    0.00000000
     atom    3 type  1   force =     0.13993114    0.14424032    0.00000000
     The ionic contribution  to forces
     atom    1 type  2   force =    -0.81959760    4.23120825    0.00000009
     atom    2 type  1   force =     3.42267923   -1.53179808   -0.00000005
     atom    3 type  1   force =    -2.60308163   -2.69941017   -0.00000004
     The local contribution  to forces
     atom    1 type  2   force =     0.34304965   -1.77198051   -0.00000004
     atom    2 type  1   force =    -3.23185282    1.44464370    0.00000005
     atom    3 type  1   force =     2.45863546    2.54724222    0.00000004
     The core correction contribution to forces
     atom    1 type  2   force =     0.00000000    0.00000000    0.00000000
     atom    2 type  1   force =     0.00000000    0.00000000    0.00000000
     atom    3 type  1   force =     0.00000000    0.00000000    0.00000000
     The Hubbard contrib.    to forces
     atom    1 type  2   force =     0.00000000    0.00000000    0.00000000
     atom    2 type  1   force =     0.00000000    0.00000000    0.00000000
     atom    3 type  1   force =     0.00000000    0.00000000    0.00000000
     The SCF correction term to forces
     atom    1 type  2   force =    -0.00001159    0.00006079    0.00000000
     atom    2 type  1   force =    -0.00000143    0.00000282    0.00000000
     atom    3 type  1   force =     0.00000074    0.00000295    0.00000000

     Total force =     0.018863     Total SCF correction =     0.000062

     number of scf cycles    =   2
     number of bfgs steps    =   1

     energy   old            =     -34.2683137674 Ry
     energy   new            =     -34.2684214442 Ry

     CASE: energy  _new < energy  _old

     new trust radius        =       0.0078496788 bohr
     new conv_thr            =            5.4E-11 Ry


ATOMIC_POSITIONS (bohr)
O       11.791376857  12.043022419  11.500000016
H       13.440039503  11.221685725  11.499999990
H       10.568583640  10.665291856  11.499999993



     Writing output data file h2o_vacuum.save
     Check: negative starting charge=   -0.000776
     NEW-OLD atomic charge density approx. for the potential
     Check: negative starting charge=   -0.000776

     negative rho (up, down):  2.756E-04 0.000E+00

     add environment contribution to local potential

     total cpu time spent up to now is       45.3 secs

     per-process dynamical memory:    78.3 Mb

     Self-consistent Calculation

     iteration #  1     ecut=    30.00 Ry     beta=0.40
     CG style diagonalization
     ethr =  1.00E-06,  avg # of iterations =  4.2

     negative rho (up, down):  2.331E-04 0.000E+00

     add environment contribution to local potential

     total cpu time spent up to now is       46.9 secs

     total energy              =     -34.26849725 Ry
     Harris-Foulkes estimate   =     -34.26855439 Ry
     estimated scf accuracy    <       0.00011365 Ry

     iteration #  2     ecut=    30.00 Ry     beta=0.40
     CG style diagonalization
     ethr =  1.42E-06,  avg # of iterations =  4.0

     negative rho (up, down):  2.171E-04 0.000E+00

     add environment contribution to local potential

     total cpu time spent up to now is       48.6 secs

     total energy              =     -34.26852146 Ry
     Harris-Foulkes estimate   =     -34.26852436 Ry
     estimated scf accuracy    <       0.00000831 Ry

     iteration #  3     ecut=    30.00 Ry     beta=0.40
     CG style diagonalization
     ethr =  1.04E-07,  avg # of iterations =  4.0

     negative rho (up, down):  2.173E-04 0.000E+00

     add environment contribution to local potential

     total cpu time spent up to now is       50.2 secs

     total energy              =     -34.26852295 Ry
     Harris-Foulkes estimate   =     -34.26852325 Ry
     estimated scf accuracy    <       0.00000138 Ry

     iteration #  4     ecut=    30.00 Ry     beta=0.40
     CG style diagonalization
     ethr =  1.73E-08,  avg # of iterations =  4.0

     negative rho (up, down):  2.144E-04 0.000E+00

     add environment contribution to local potential

     total cpu time spent up to now is       51.8 secs

     total energy              =     -34.26852316 Ry
     Harris-Foulkes estimate   =     -34.26852318 Ry
     estimated scf accuracy    <       0.00000009 Ry

     iteration #  5     ecut=    30.00 Ry     beta=0.40
     CG style diagonalization
     ethr =  1.16E-09,  avg # of iterations =  3.2

     negative rho (up, down):  2.163E-04 0.000E+00

     add environment contribution to local potential

     total cpu time spent up to now is       53.4 secs

     total energy              =     -34.26852317 Ry
     Harris-Foulkes estimate   =     -34.26852317 Ry
     estimated scf accuracy    <       0.00000001 Ry

     iteration #  6     ecut=    30.00 Ry     beta=0.40
     CG style diagonalization
     ethr =  1.43E-10,  avg # of iterations =  4.0

     negative rho (up, down):  2.154E-04 0.000E+00

     add environment contribution to local potential

     total cpu time spent up to now is       54.9 secs

     total energy              =     -34.26852317 Ry
     Harris-Foulkes estimate   =     -34.26852317 Ry
     estimated scf accuracy    <          3.2E-09 Ry

     iteration #  7     ecut=    30.00 Ry     beta=0.40
     CG style diagonalization
     ethr =  4.06E-11,  avg # of iterations =  3.8

     negative rho (up, down):  2.149E-04 0.000E+00

     total cpu time spent up to now is       56.3 secs

     End of self-consistent calculation

          k = 0.0000 0.0000 0.0000 ( 22119 PWs)   bands (ev):

   -25.1612 -13.0341  -9.1108  -7.1151

     occupation numbers 
     1.0000   1.0000   1.0000   1.0000

     highest occupied level (ev):    -7.1151

!    total energy              =     -34.26852316 Ry
     Harris-Foulkes estimate   =     -34.26852317 Ry
     estimated scf accuracy    <          4.8E-11 Ry

     The total energy is the sum of the following terms:

     one-electron contribution =     -63.94840836 Ry
     hartree contribution      =      33.41951662 Ry
     xc contribution           =      -8.39918507 Ry
     ewald contribution        =       4.65955364 Ry

     charge density inside the Wigner-Seitz cell:    8.00000000

     reference position (x0):        11.84461054   11.76813901   11.50000001 bohr

     Dipole moments (with respect to x0):
     Elect   0.1385  -0.7150   0.0000 au (Ha),   0.3521  -1.8174   0.0000 Debye
     Ionic   0.0000   0.0000   0.0000 au (Ha),   0.0000   0.0000   0.0000 Debye
     Total   0.1385  -0.7150   0.0000 au (Ha),   0.3521  -1.8174   0.0000 Debye

     Electrons quadrupole moment        -20.29920759 a.u. (Ha)
          Ions quadrupole moment          6.15888955 a.u. (Ha)
         Total quadrupole moment        -14.14031804 a.u. (Ha)

     *********    MAKOV-PAYNE CORRECTION    *********

     Makov-Payne correction with Madelung constant =   2.8373

     Makov-Payne correction     0.00000000 Ry =  0.000 eV (1st order, 1/a0)
                                0.00027773 Ry =  0.004 eV (2nd order, 1/a0^3)
                                0.00027773 Ry =  0.004 eV (total)

!    Total+Makov-Payne energy  =     -34.26824544 Ry

     convergence has been achieved in   7 iterations
     The global environment contribution to forces
     atom    1 type  2   force =     0.00000000    0.00000000    0.00000000
     atom    2 type  1   force =     0.00000000    0.00000000    0.00000000
     atom    3 type  1   force =     0.00000000    0.00000000    0.00000000
 

     Forces acting on atoms (Ry/au):

     atom    1 type  2   force =    -0.00026455    0.00102612    0.00000000
     atom    2 type  1   force =    -0.00125347   -0.00082022    0.00000000
     atom    3 type  1   force =     0.00151802   -0.00020590    0.00000000
     The non-local contrib.  to forces
     atom    1 type  2   force =     0.47487995   -2.45020357   -0.00000005
     atom    2 type  1   force =    -0.18035325    0.08101484    0.00000000
     atom    3 type  1   force =     0.13700687    0.14246566    0.00000000
     The ionic contribution  to forces
     atom    1 type  2   force =    -0.81561551    4.20838184    0.00000009
     atom    2 type  1   force =     3.38175309   -1.52823062   -0.00000005
     atom    3 type  1   force =    -2.56613758   -2.68015122   -0.00000004
     The local contribution  to forces
     atom    1 type  2   force =     0.34051713   -1.75713532   -0.00000004
     atom    2 type  1   force =    -3.20260629    1.44640824    0.00000005
     atom    3 type  1   force =     2.43069526    2.53749215    0.00000004
     The core correction contribution to forces
     atom    1 type  2   force =     0.00000000    0.00000000    0.00000000
     atom    2 type  1   force =     0.00000000    0.00000000    0.00000000
     atom    3 type  1   force =     0.00000000    0.00000000    0.00000000
     The Hubbard contrib.    to forces
     atom    1 type  2   force =     0.00000000    0.00000000    0.00000000
     atom    2 type  1   force =     0.00000000    0.00000000    0.00000000
     atom    3 type  1   force =     0.00000000    0.00000000    0.00000000
     The SCF correction term to forces
     atom    1 type  2   force =     0.00000056   -0.00000394    0.00000000
     atom    2 type  1   force =    -0.00000035    0.00000020    0.00000000
     atom    3 type  1   force =     0.00000016    0.00000040    0.00000000

     Total force =     0.002390     Total SCF correction =     0.000004

     number of scf cycles    =   3
     number of bfgs steps    =   2

     energy   old            =     -34.2684214442 Ry
     energy   new            =     -34.2685231640 Ry

     CASE: energy  _new < energy  _old

     new trust radius        =       0.0015869313 bohr
     new conv_thr            =            5.1E-11 Ry


ATOMIC_POSITIONS (bohr)
O       11.791072703  12.044262736  11.500000017
H       13.438787133  11.220754571  11.499999990
H       10.570140165  10.664982693  11.499999993



     Writing output data file h2o_vacuum.save
     Check: negative starting charge=   -0.000776
     NEW-OLD atomic charge density approx. for the potential
     Check: negative starting charge=   -0.000776

     negative rho (up, down):  2.451E-04 0.000E+00

     add environment contribution to local potential

     total cpu time spent up to now is       62.1 secs

     per-process dynamical memory:    78.3 Mb

     Self-consistent Calculation

     iteration #  1     ecut=    30.00 Ry     beta=0.40
     CG style diagonalization
     ethr =  1.00E-06,  avg # of iterations =  2.8

     Threshold (ethr) on eigenvalues was too large:
     Diagonalizing with lowered threshold

     CG style diagonalization
     ethr =  2.88E-09,  avg # of iterations =  3.2

     negative rho (up, down):  2.296E-04 0.000E+00

     add environment contribution to local potential

     total cpu time spent up to now is       64.3 secs

     total energy              =     -34.26852826 Ry
     Harris-Foulkes estimate   =     -34.26852828 Ry
     estimated scf accuracy    <       0.00000020 Ry

     iteration #  2     ecut=    30.00 Ry     beta=0.40
     CG style diagonalization
     ethr =  2.56E-09,  avg # of iterations =  3.0

     negative rho (up, down):  2.173E-04 0.000E+00

     add environment contribution to local potential

     total cpu time spent up to now is       65.8 secs

     total energy              =     -34.26852826 Ry
     Harris-Foulkes estimate   =     -34.26852826 Ry
     estimated scf accuracy    <       0.00000006 Ry

     iteration #  3     ecut=    30.00 Ry     beta=0.40
     CG style diagonalization
     ethr =  8.09E-10,  avg # of iterations =  3.0

     negative rho (up, down):  2.159E-04 0.000E+00

     add environment contribution to local potential

     total cpu time spent up to now is       67.3 secs

     total energy              =     -34.26852826 Ry
     Harris-Foulkes estimate   =     -34.26852827 Ry
     estimated scf accuracy    <          1.2E-09 Ry

     iteration #  4     ecut=    30.00 Ry     beta=0.40
     CG style diagonalization
     ethr =  1.49E-11,  avg # of iterations =  4.0

     negative rho (up, down):  2.152E-04 0.000E+00

     add environment contribution to local potential

     total cpu time spent up to now is       68.8 secs

     total energy              =     -34.26852826 Ry
     Harris-Foulkes estimate   =     -34.26852826 Ry
     estimated scf accuracy    <          1.5E-10 Ry

     iteration #  5     ecut=    30.00 Ry     beta=0.40
     CG style diagonalization
     ethr =  1.85E-12,  avg # of iterations =  3.2

     negative rho (up, down):  2.149E-04 0.000E+00

     total cpu time spent up to now is       70.2 secs

     End of self-consistent calculation

          k = 0.0000 0.0000 0.0000 ( 22119 PWs)   bands (ev):

   -25.1640 -13.0269  -9.1181  -7.1158

     occupation numbers 
     1.0000   1.0000   1.0000   1.0000

     highest occupied level (ev):    -7.1158

!    total energy              =     -34.26852826 Ry
     Harris-Foulkes estimate   =     -34.26852826 Ry
     estimated scf accuracy    <          2.6E-11 Ry

     The total energy is the sum of the following terms:

     one-electron contribution =     -63.94888025 Ry
     hartree contribution      =      33.41948336 Ry
     xc contribution           =      -8.39918480 Ry
     ewald contribution        =       4.66005343 Ry

     charge density inside the Wigner-Seitz cell:    8.00000000

     reference position (x0):        11.84442044   11.76891421   11.50000001 bohr

     Dipole moments (with respect to x0):
     Elect   0.1387  -0.7159   0.0000 au (Ha),   0.3526  -1.8195   0.0000 Debye
     Ionic   0.0000   0.0000   0.0000 au (Ha),   0.0000   0.0000   0.0000 Debye
     Total   0.1387  -0.7159   0.0000 au (Ha),   0.3526  -1.8195   0.0000 Debye

     Electrons quadrupole moment        -20.29861862 a.u. (Ha)
          Ions quadrupole moment          6.15691590 a.u. (Ha)
         Total quadrupole moment        -14.14170272 a.u. (Ha)

     *********    MAKOV-PAYNE CORRECTION    *********

     Makov-Payne correction with Madelung constant =   2.8373

     Makov-Payne correction     0.00000000 Ry =  0.000 eV (1st order, 1/a0)
                                0.00027839 Ry =  0.004 eV (2nd order, 1/a0^3)
                                0.00027839 Ry =  0.004 eV (total)

!    Total+Makov-Payne energy  =     -34.26824986 Ry

     convergence has been achieved in   5 iterations
     The global environment contribution to forces
     atom    1 type  2   force =     0.00000000    0.00000000    0.00000000
     atom    2 type  1   force =     0.00000000    0.00000000    0.00000000
     atom    3 type  1   force =     0.00000000    0.00000000    0.00000000
 

     Forces acting on atoms (Ry/au):

     atom    1 type  2   force =    -0.00001372    0.00057402    0.00000000
     atom    2 type  1   force =    -0.00102410   -0.00046108    0.00000000
     atom    3 type  1   force =     0.00103782   -0.00011295    0.00000000
     The non-local contrib.  to forces
     atom    1 type  2   force =     0.47523719   -2.45220680   -0.00000006
     atom    2 type  1   force =    -0.18018306    0.08127731    0.00000000
     atom    3 type  1   force =     0.13679008    0.14269756    0.00000000
     The ionic contribution  to forces
     atom    1 type  2   force =    -0.81645221    4.21551235    0.00000010
     atom    2 type  1   force =     3.37977167   -1.53199297   -0.00000005
     atom    3 type  1   force =    -2.56331946   -2.68351938   -0.00000005
     The local contribution  to forces
     atom    1 type  2   force =     0.34124319   -1.76271544   -0.00000004
     atom    2 type  1   force =    -3.20056982    1.45026830    0.00000005
     atom    3 type  1   force =     2.42761158    2.54072286    0.00000004
     The core correction contribution to forces
     atom    1 type  2   force =     0.00000000    0.00000000    0.00000000
     atom    2 type  1   force =     0.00000000    0.00000000    0.00000000
     atom    3 type  1   force =     0.00000000    0.00000000    0.00000000
     The Hubbard contrib.    to forces
     atom    1 type  2   force =     0.00000000    0.00000000    0.00000000
     atom    2 type  1   force =     0.00000000    0.00000000    0.00000000
     atom    3 type  1   force =     0.00000000    0.00000000    0.00000000
     The SCF correction term to forces
     atom    1 type  2   force =     0.00000168   -0.00000228    0.00000000
     atom    2 type  1   force =     0.00000069    0.00000008    0.00000000
     atom    3 type  1   force =    -0.00000081   -0.00000018    0.00000000

     Total force =     0.001637     Total SCF correction =     0.000003

     number of scf cycles    =   4
     number of bfgs steps    =   3

     energy   old            =     -34.2685231640 Ry
     energy   new            =     -34.2685282553 Ry

     CASE: energy  _new < energy  _old

     new trust radius        =       0.0017456245 bohr
     new conv_thr            =            5.0E-11 Ry


ATOMIC_POSITIONS (bohr)
O       11.790984311  12.045477636  11.500000017
H       13.437274750  11.219882846  11.499999990
H       10.571740939  10.664639518  11.499999993



     Writing output data file h2o_vacuum.save
     Check: negative starting charge=   -0.000776
     NEW-OLD atomic charge density approx. for the potential
     Check: negative starting charge=   -0.000776

     negative rho (up, down):  2.490E-04 0.000E+00

     add environment contribution to local potential

     total cpu time spent up to now is       76.0 secs

     per-process dynamical memory:    78.3 Mb

     Self-consistent Calculation

     iteration #  1     ecut=    30.00 Ry     beta=0.40
     CG style diagonalization
     ethr =  1.00E-06,  avg # of iterations =  2.8

     Threshold (ethr) on eigenvalues was too large:
     Diagonalizing with lowered threshold

     CG style diagonalization
     ethr =  3.44E-09,  avg # of iterations =  3.2

     negative rho (up, down):  2.316E-04 0.000E+00

     add environment contribution to local potential

     total cpu time spent up to now is       78.2 secs

     total energy              =     -34.26853146 Ry
     Harris-Foulkes estimate   =     -34.26853153 Ry
     estimated scf accuracy    <       0.00000030 Ry

     iteration #  2     ecut=    30.00 Ry     beta=0.40
     CG style diagonalization
     ethr =  3.79E-09,  avg # of iterations =  3.0

     negative rho (up, down):  2.201E-04 0.000E+00

     add environment contribution to local potential

     total cpu time spent up to now is       79.7 secs

     total energy              =     -34.26853147 Ry
     Harris-Foulkes estimate   =     -34.26853147 Ry
     estimated scf accuracy    <       0.00000007 Ry

     iteration #  3     ecut=    30.00 Ry     beta=0.40
     CG style diagonalization
     ethr =  9.35E-10,  avg # of iterations =  3.0

     negative rho (up, down):  2.162E-04 0.000E+00

     add environment contribution to local potential

     total cpu time spent up to now is       81.3 secs

     total energy              =     -34.26853147 Ry
     Harris-Foulkes estimate   =     -34.26853147 Ry
     estimated scf accuracy    <          6.7E-09 Ry

     iteration #  4     ecut=    30.00 Ry     beta=0.40
     CG style diagonalization
     ethr =  8.35E-11,  avg # of iterations =  3.2

     negative rho (up, down):  2.152E-04 0.000E+00

     add environment contribution to local potential

     total cpu time spent up to now is       82.8 secs

     total energy              =     -34.26853147 Ry
     Harris-Foulkes estimate   =     -34.26853147 Ry
     estimated scf accuracy    <          5.3E-10 Ry

     iteration #  5     ecut=    30.00 Ry     beta=0.40
     CG style diagonalization
     ethr =  6.65E-12,  avg # of iterations =  4.0

     negative rho (up, down):  2.151E-04 0.000E+00

     add environment contribution to local potential

     total cpu time spent up to now is       84.4 secs

     total energy              =     -34.26853147 Ry
     Harris-Foulkes estimate   =     -34.26853147 Ry
     estimated scf accuracy    <          3.6E-10 Ry

     iteration #  6     ecut=    30.00 Ry     beta=0.40
     CG style diagonalization
     ethr =  4.52E-12,  avg # of iterations =  4.0

     negative rho (up, down):  2.150E-04 0.000E+00

     total cpu time spent up to now is       85.8 secs

     End of self-consistent calculation

          k = 0.0000 0.0000 0.0000 ( 22119 PWs)   bands (ev):

   -25.1678 -13.0206  -9.1255  -7.1167

     occupation numbers 
     1.0000   1.0000   1.0000   1.0000

     highest occupied level (ev):    -7.1167

!    total energy              =     -34.26853146 Ry
     Harris-Foulkes estimate   =     -34.26853147 Ry
     estimated scf accuracy    <          7.4E-12 Ry

     The total energy is the sum of the following terms:

     one-electron contribution =     -63.95139990 Ry
     hartree contribution      =      33.42040428 Ry
     xc contribution           =      -8.39934407 Ry
     ewald contribution        =       4.66180823 Ry

     charge density inside the Wigner-Seitz cell:    8.00000000

     reference position (x0):        11.84436519   11.76967352   11.50000001 bohr

     Dipole moments (with respect to x0):
     Elect   0.1388  -0.7167   0.0000 au (Ha),   0.3527  -1.8217   0.0000 Debye
     Ionic   0.0000   0.0000   0.0000 au (Ha),   0.0000   0.0000   0.0000 Debye
     Total   0.1388  -0.7167   0.0000 au (Ha),   0.3527  -1.8217   0.0000 Debye

     Electrons quadrupole moment        -20.29683659 a.u. (Ha)
          Ions quadrupole moment          6.15380786 a.u. (Ha)
         Total quadrupole moment        -14.14302873 a.u. (Ha)

     *********    MAKOV-PAYNE CORRECTION    *********

     Makov-Payne correction with Madelung constant =   2.8373

     Makov-Payne correction     0.00000000 Ry =  0.000 eV (1st order, 1/a0)
                                0.00027905 Ry =  0.004 eV (2nd order, 1/a0^3)
                                0.00027905 Ry =  0.004 eV (total)

!    Total+Makov-Payne energy  =     -34.26825242 Ry

     convergence has been achieved in   6 iterations
     The global environment contribution to forces
     atom    1 type  2   force =     0.00000000    0.00000000    0.00000000
     atom    2 type  1   force =     0.00000000    0.00000000    0.00000000
     atom    3 type  1   force =     0.00000000    0.00000000    0.00000000
 

     Forces acting on atoms (Ry/au):

     atom    1 type  2   force =    -0.00028534    0.00021743    0.00000000
     atom    2 type  1   force =    -0.00035112   -0.00030748    0.00000000
     atom    3 type  1   force =     0.00063646    0.00009005    0.00000000
     The non-local contrib.  to forces
     atom    1 type  2   force =     0.47558159   -2.45426260   -0.00000006
     atom    2 type  1   force =    -0.18014282    0.08162004    0.00000000
     atom    3 type  1   force =     0.13655538    0.14289017    0.00000000
     The ionic contribution  to forces
     atom    1 type  2   force =    -0.81889169    4.22315294    0.00000010
     atom    2 type  1   force =     3.37929476   -1.53675931   -0.00000005
     atom    3 type  1   force =    -2.56040307   -2.68639364   -0.00000005
     The local contribution  to forces
     atom    1 type  2   force =     0.34306779   -1.76865763   -0.00000004
     atom    2 type  1   force =    -3.19946262    1.45484555    0.00000005
     atom    3 type  1   force =     2.42452437    2.54360715    0.00000004
     The core correction contribution to forces
     atom    1 type  2   force =     0.00000000    0.00000000    0.00000000
     atom    2 type  1   force =     0.00000000    0.00000000    0.00000000
     atom    3 type  1   force =     0.00000000    0.00000000    0.00000000
     The Hubbard contrib.    to forces
     atom    1 type  2   force =     0.00000000    0.00000000    0.00000000
     atom    2 type  1   force =     0.00000000    0.00000000    0.00000000
     atom    3 type  1   force =     0.00000000    0.00000000    0.00000000
     The SCF correction term to forces
     atom    1 type  2   force =    -0.00000287   -0.00000126    0.00000000
     atom    2 type  1   force =    -0.00000028    0.00000027    0.00000000
     atom    3 type  1   force =    -0.00000006    0.00000040    0.00000000

     Total force =     0.000872     Total SCF correction =     0.000003

     bfgs converged in   5 scf cycles and   4 bfgs steps
     (criteria: energy <  1.0E-04, force <  1.0E-03)

     End of BFGS Geometry Optimization

     Final energy   =     -34.2685314648 Ry
Begin final coordinates

ATOMIC_POSITIONS (bohr)
O       11.790984311  12.045477636  11.500000017
H       13.437274750  11.219882846  11.499999990
H       10.571740939  10.664639518  11.499999993
End final coordinates



     Writing output data file h2o_vacuum.save
 
     init_run     :      1.36s CPU      1.48s WALL (       1 calls)
     electrons    :     54.62s CPU     67.52s WALL (       5 calls)
     update_pot   :      3.02s CPU      8.07s WALL (       4 calls)
     forces       :      2.33s CPU      2.66s WALL (       5 calls)

     Called by init_run:
     wfcinit      :      0.05s CPU      0.05s WALL (       1 calls)
     potinit      :      0.59s CPU      0.65s WALL (       1 calls)

     Called by electrons:
     c_bands      :      4.81s CPU      5.07s WALL (      41 calls)
     sum_band     :     20.96s CPU     23.57s WALL (      41 calls)
     v_of_rho     :     16.02s CPU     17.94s WALL (      44 calls)
     v_h          :      1.80s CPU      1.90s WALL (      44 calls)
     v_xc         :     14.22s CPU     16.04s WALL (      44 calls)
     newd         :      8.80s CPU     11.02s WALL (      44 calls)
     mix_rho      :      3.54s CPU      3.67s WALL (      41 calls)

     Called by c_bands:
     init_us_2    :      0.13s CPU      0.13s WALL (      83 calls)
     ccgdiagg     :      3.74s CPU      3.90s WALL (      41 calls)
     wfcrot       :      1.04s CPU      1.12s WALL (      35 calls)

     Called by sum_band:
     sum_band:bec :      0.00s CPU      0.00s WALL (      41 calls)
     addusdens    :     15.36s CPU     17.66s WALL (      41 calls)

     Called by *cgdiagg:
     h_psi        :      4.47s CPU      4.70s WALL (     475 calls)
     s_psi        :      0.06s CPU      0.06s WALL (     915 calls)
     cdiaghg      :      0.00s CPU      0.00s WALL (      35 calls)

     Called by h_psi:
     h_psi:vloc   :      4.18s CPU      4.38s WALL (     475 calls)
     h_psi:vnl    :      0.27s CPU      0.30s WALL (     475 calls)
     add_vuspsi   :      0.06s CPU      0.05s WALL (     475 calls)
     h_1psi       :      3.50s CPU      3.65s WALL (     440 calls)

     General routines
     calbec       :      0.30s CPU      0.36s WALL (     976 calls)
     fft          :     20.40s CPU     22.72s WALL (     706 calls)
     ffts         :      0.32s CPU      0.32s WALL (      85 calls)
     fftw         :      2.78s CPU      2.90s WALL (    1328 calls)
     interpolate  :      3.18s CPU      3.39s WALL (      85 calls)
     davcio       :      0.00s CPU      0.00s WALL (       5 calls)
 
     Parallel routines
     fft_scatter  :     13.64s CPU     15.92s WALL (    2119 calls)
 
     Environ routines
 
     PWSCF        :  1m 3.24s CPU     1m29.51s WALL

 
   This run was terminated on:  14:28:37  11Feb2016            

=------------------------------------------------------------------------------=
   JOB DONE.
=------------------------------------------------------------------------------=
