
     Program PWSCF v.6.7MaX starts on  4Mar2021 at 15:46:17 

     This program is part of the open-source Quantum ESPRESSO suite
     for quantum simulation of materials; please cite
         "P. Giannozzi et al., J. Phys.:Condens. Matter 21 395502 (2009);
         "P. Giannozzi et al., J. Phys.:Condens. Matter 29 465901 (2017);
          URL http://www.quantum-espresso.org", 
     in publications or presentations arising from this work. More details at
     http://www.quantum-espresso.org/quote

     Parallel version (MPI), running on     1 processors

     MPI processes distributed on     1 nodes
     Waiting for input...
     Reading input from standard input

     Current dimensions of program PWSCF are:
     Max number of different atomic species (ntypx) = 10
     Max number of k-points (npk) =  40000
     Max angular momentum in pseudopotentials (lmaxx) =  3
     file H.pbe-rrkjus.UPF: wavefunction(s)  1S renormalized
     file O.pbe-rrkjus.UPF: wavefunction(s)  2S renormalized

     gamma-point specific algorithms are used

     Subspace diagonalization in iterative solution of the eigenvalue problem:
     a serial algorithm will be used


     G-vector sticks info
     --------------------
     sticks:   dense  smooth     PW     G-vecs:    dense   smooth      PW
     Sum        2385     949    241                87655    22119    2777



     bravais-lattice index     =            1
     lattice parameter (alat)  =      10.0000  a.u.
     unit-cell volume          =    1000.0000 (a.u.)^3
     number of atoms/cell      =            3
     number of atomic types    =            2
     number of electrons       =         8.00
     number of Kohn-Sham states=            4
     kinetic-energy cutoff     =      30.0000  Ry
     charge density cutoff     =     300.0000  Ry
     scf convergence threshold =      5.0E-03
     mixing beta               =       0.7000
     number of iterations used =            8  plain     mixing
     Exchange-correlation= SLA  PW   PBE  PBE
                           (   1   4   3   4   0   0   0)


     Environ Module
     ==============

     Plese cite
         O. Andreussi, I. Dabo and N. Marzari, J. Chem. Phys. 136, 064102 (2012)         
     in publications or presentations arising from this work.

     compensation onset threshold      =               0.1000E+03 
     static permittivity               =                   100.00 
     epsilon calculation mode          =               electronic 

     Electrostatic Setup
     -------------------
     electrostatic problem to solve    = generalized              
     numerical solver adopted          = cg                       
     type of auxiliary density adopted = none                     
     type of core tool for poisson     = fft                      


     Assuming isolated system, Martyna-Tuckerman method


     celldm(1)=  10.000000  celldm(2)=   0.000000  celldm(3)=   0.000000
     celldm(4)=   0.000000  celldm(5)=   0.000000  celldm(6)=   0.000000

     crystal axes: (cart. coord. in units of alat)
               a(1) = (   1.000000   0.000000   0.000000 )  
               a(2) = (   0.000000   1.000000   0.000000 )  
               a(3) = (   0.000000   0.000000   1.000000 )  

     reciprocal axes: (cart. coord. in units 2 pi/alat)
               b(1) = (  1.000000  0.000000  0.000000 )  
               b(2) = (  0.000000  1.000000  0.000000 )  
               b(3) = (  0.000000  0.000000  1.000000 )  


     PseudoPot. # 1 for H  read from file:
     ../../../pseudo/H.pbe-rrkjus.UPF
     MD5 check sum: 2d52a7f45632fd764c17cc6affed14c8
     Pseudo is Ultrasoft, Zval =  1.0
     Generated by new atomic code, or converted to UPF format
     Using radial grid of 1061 points,  2 beta functions with: 
                l(1) =   0
                l(2) =   0
     Q(r) pseudized with 0 coefficients 


     PseudoPot. # 2 for O  read from file:
     ../../../pseudo/O.pbe-rrkjus.UPF
     MD5 check sum: fadcf19ee70a498d3030e2e79cf929a4
     Pseudo is Ultrasoft, Zval =  6.0
     Generated by new atomic code, or converted to UPF format
     Using radial grid of 1269 points,  4 beta functions with: 
                l(1) =   0
                l(2) =   0
                l(3) =   1
                l(4) =   1
     Q(r) pseudized with 0 coefficients 


     atomic species   valence    mass     pseudopotential
        H              1.00     1.00000     H ( 1.00)
        O              6.00    16.00000     O ( 1.00)

     No symmetry found



   Cartesian axes

     site n.     atom                  positions (alat units)
         1           O   tau(   1) = (   1.1790000   1.2050000   1.1500000  )
         2           H   tau(   2) = (   1.3450000   1.1220000   1.1500000  )
         3           H   tau(   3) = (   1.0560000   1.0660000   1.1500000  )

     number of k points=     1
                       cart. coord. in units 2pi/alat
        k(    1) = (   0.0000000   0.0000000   0.0000000), wk =   2.0000000

     Dense  grid:    43828 G-vectors     FFT dimensions: (  60,  60,  60)

     Smooth grid:    11060 G-vectors     FFT dimensions: (  36,  36,  36)

     Estimated max dynamical RAM per process >      67.04 MB

     Initial potential from superposition of free atoms

     starting charge    7.80759, renormalised to    8.00000
     Starting wfcs are    6 randomized atomic wfcs

     total cpu time spent up to now is        5.9 secs

     Self-consistent Calculation

     iteration #  1     ecut=    30.00 Ry     beta= 0.70
     Davidson diagonalization with overlap
     ethr =  1.00E-02,  avg # of iterations =  2.0

     add environment contribution to local potential
     polarization accuracy = 3.1E-06, # of iterations =  17

     total cpu time spent up to now is       19.1 secs

     total energy              =     -34.06499749 Ry
     estimated scf accuracy    <       0.62922038 Ry
     electrostatic embedding   =       0.00000000 Ry
     correction to one-el term =      -0.00000000 Ry

     iteration #  2     ecut=    30.00 Ry     beta= 0.70
     Davidson diagonalization with overlap
     ethr =  7.87E-03,  avg # of iterations =  2.0

     add environment contribution to local potential
     polarization accuracy = 5.0E-06, # of iterations =  44

     total cpu time spent up to now is       46.7 secs

     total energy              =     -34.25127546 Ry
     estimated scf accuracy    <       0.22612605 Ry
     electrostatic embedding   =      -0.04850817 Ry
     correction to one-el term =      -0.23793534 Ry

     iteration #  3     ecut=    30.00 Ry     beta= 0.70
     Davidson diagonalization with overlap
     ethr =  2.83E-03,  avg # of iterations =  2.0

     add environment contribution to local potential
     polarization accuracy = 5.2E-06, # of iterations =  15

     total cpu time spent up to now is       59.3 secs

     total energy              =     -34.28494558 Ry
     estimated scf accuracy    <       0.00588988 Ry
     electrostatic embedding   =      -0.03710654 Ry
     correction to one-el term =      -0.15455652 Ry

     iteration #  4     ecut=    30.00 Ry     beta= 0.70
     Davidson diagonalization with overlap
     ethr =  7.36E-05,  avg # of iterations =  3.0

     negative rho (up, down):  1.162E-06 0.000E+00

     the potential shift due to the Gaussian-smeared nuclei is    -0.0063 ev

     total cpu time spent up to now is       61.8 secs

     End of self-consistent calculation

          k = 0.0000 0.0000 0.0000 (  1389 PWs)   bands (ev):

   -24.9417 -12.6332  -9.1372  -7.1695

     highest occupied level (ev):    -7.1695

!    total energy              =     -34.28615949 Ry
     estimated scf accuracy    <       0.00433401 Ry

     The total energy is the sum of the following terms:
     one-electron contribution =     -82.20801959 Ry
     hartree contribution      =      42.87503338 Ry
     xc contribution           =      -8.47230762 Ry
     ewald contribution        =      13.61041235 Ry
     electrostatic embedding   =      -0.03423574 Ry
     correction to one-el term =      -0.05704226 Ry

     convergence has been achieved in   4 iterations
 forces lc
       1   -0.0747    0.0815   -0.0181
       2   -0.0000   -0.0000    0.0000
       3   -0.0000   -0.0001    0.0000
 forces mt   2.0000000000000000     
       1    0.0006   -0.0016    0.0000
       2    0.0001   -0.0003    0.0000
       3    0.0001   -0.0003    0.0000

     Forces acting on atoms (cartesian axes, Ry/au):

     atom    1 type  2   force =    -0.07390203    0.18094537   -0.01200504
     atom    2 type  1   force =    -0.01245263   -0.10019684    0.00599677
     atom    3 type  1   force =     0.08635467   -0.08074853    0.00600827

     Total force =     0.250182     Total SCF correction =     0.067040
     SCF correction compared to forces is large: reduce conv_thr to get better values

     Writing output data file ./tmp/pwscf.save/

     init_run     :      5.35s CPU      5.87s WALL (       1 calls)
     electrons    :     52.88s CPU     55.94s WALL (       1 calls)
     forces       :      0.78s CPU      0.84s WALL (       1 calls)

     Called by init_run:
     wfcinit      :      0.00s CPU      0.00s WALL (       1 calls)
     potinit      :      2.27s CPU      2.46s WALL (       1 calls)
     hinit0       :      2.07s CPU      2.17s WALL (       1 calls)

     Called by electrons:
     c_bands      :      0.03s CPU      0.07s WALL (       4 calls)
     sum_band     :      0.16s CPU      0.11s WALL (       4 calls)
     v_of_rho     :      0.33s CPU      0.41s WALL (       5 calls)
     newd         :      0.09s CPU      0.12s WALL (       5 calls)
     mix_rho      :      0.02s CPU      0.03s WALL (       4 calls)

     Called by c_bands:
     init_us_2    :      0.00s CPU      0.00s WALL (       9 calls)
     regterg      :      0.03s CPU      0.07s WALL (       4 calls)

     Called by *egterg:
     rdiaghg      :      0.00s CPU      0.00s WALL (      13 calls)
     h_psi        :      0.02s CPU      0.06s WALL (      14 calls)
     s_psi        :      0.00s CPU      0.00s WALL (      14 calls)
     g_psi        :      0.00s CPU      0.00s WALL (       9 calls)

     Called by h_psi:
     h_psi:calbec :      0.00s CPU      0.00s WALL (      14 calls)
     vloc_psi     :      0.02s CPU      0.02s WALL (      14 calls)
     add_vuspsi   :      0.00s CPU      0.04s WALL (      14 calls)

     General routines
     calbec       :      0.00s CPU      0.00s WALL (      22 calls)
     fft          :     34.27s CPU     35.50s WALL (     281 calls)
     ffts         :      0.00s CPU      0.00s WALL (       9 calls)
     fftw         :      0.02s CPU      0.02s WALL (      66 calls)
     interpolate  :      0.02s CPU      0.03s WALL (       5 calls)

     Parallel routines
     fft_scatt_xy :      3.62s CPU      3.63s WALL (     223 calls)
     fft_scatt_yz :      4.96s CPU      4.97s WALL (     223 calls)

     Environ routines
     calc_eelect  :      0.03s CPU      0.03s WALL (       8 calls)
     calc_velect  :     38.27s CPU     39.90s WALL (       6 calls)
     dielectric   :      0.79s CPU      0.92s WALL (       6 calls)
     calc_felect  :      0.72s CPU      0.78s WALL (       1 calls)

     PWSCF        :     59.06s CPU   1m 2.79s WALL


   This run was terminated on:  15:47:20   4Mar2021            

=------------------------------------------------------------------------------=
   JOB DONE.
=------------------------------------------------------------------------------=
