
     Program PWSCF v.6.7MaX starts on 18Mar2021 at 12:13:43 

     This program is part of the open-source Quantum ESPRESSO suite
     for quantum simulation of materials; please cite
         "P. Giannozzi et al., J. Phys.:Condens. Matter 21 395502 (2009);
         "P. Giannozzi et al., J. Phys.:Condens. Matter 29 465901 (2017);
          URL http://www.quantum-espresso.org", 
     in publications or presentations arising from this work. More details at
     http://www.quantum-espresso.org/quote

     Parallel version (MPI), running on     1 processors

     MPI processes distributed on     1 nodes
     Waiting for input...
     Reading input from standard input

     Current dimensions of program PWSCF are:
     Max number of different atomic species (ntypx) = 10
     Max number of k-points (npk) =  40000
     Max angular momentum in pseudopotentials (lmaxx) =  3
     file C.pbe-rrkjus.UPF: wavefunction(s)  2S 2P renormalized
     file H.pbe-rrkjus.UPF: wavefunction(s)  1S renormalized
     file N.pbe-rrkjus.UPF: wavefunction(s)  2S renormalized
     file O.pbe-rrkjus.UPF: wavefunction(s)  2S renormalized

     gamma-point specific algorithms are used

     Subspace diagonalization in iterative solution of the eigenvalue problem:
     a serial algorithm will be used


     G-vector sticks info
     --------------------
     sticks:   dense  smooth     PW     G-vecs:    dense   smooth      PW
     Sum        2385     949    241                87655    22119    2777



     bravais-lattice index     =            1
     lattice parameter (alat)  =      10.0000  a.u.
     unit-cell volume          =    1000.0000 (a.u.)^3
     number of atoms/cell      =           10
     number of atomic types    =            4
     number of electrons       =        24.00
     number of Kohn-Sham states=           12
     kinetic-energy cutoff     =      30.0000  Ry
     charge density cutoff     =     300.0000  Ry
     scf convergence threshold =      5.0E-06
     mixing beta               =       0.7000
     number of iterations used =            8  plain     mixing
     Exchange-correlation= SLA  PW   PBE  PBE
                           (   1   4   3   4   0   0   0)


     Environ Module
     ==============

     Plese cite
         O. Andreussi, I. Dabo and N. Marzari, J. Chem. Phys. 136, 064102 (2012)         
     in publications or presentations arising from this work.

     compensation onset threshold      =               0.1000E+03 
     static permittivity               =                   100.00 
     epsilon calculation mode          =                     full 

     Electrostatic Setup
     -------------------
     electrostatic problem to solve    = generalized              
     numerical solver adopted          = cg                       
     type of auxiliary density adopted = none                     
     type of core tool for poisson     = fft                      



     celldm(1)=  10.000000  celldm(2)=   0.000000  celldm(3)=   0.000000
     celldm(4)=   0.000000  celldm(5)=   0.000000  celldm(6)=   0.000000

     crystal axes: (cart. coord. in units of alat)
               a(1) = (   1.000000   0.000000   0.000000 )  
               a(2) = (   0.000000   1.000000   0.000000 )  
               a(3) = (   0.000000   0.000000   1.000000 )  

     reciprocal axes: (cart. coord. in units 2 pi/alat)
               b(1) = (  1.000000  0.000000  0.000000 )  
               b(2) = (  0.000000  1.000000  0.000000 )  
               b(3) = (  0.000000  0.000000  1.000000 )  


     PseudoPot. # 1 for C  read from file:
     ../../../pseudo/C.pbe-rrkjus.UPF
     MD5 check sum: c9ac5a99bc85b198593446162950cd17
     Pseudo is Ultrasoft, Zval =  4.0
     Generated by new atomic code, or converted to UPF format
     Using radial grid of  627 points,  4 beta functions with: 
                l(1) =   0
                l(2) =   0
                l(3) =   1
                l(4) =   1
     Q(r) pseudized with 0 coefficients 


     PseudoPot. # 2 for H  read from file:
     ../../../pseudo/H.pbe-rrkjus.UPF
     MD5 check sum: 2d52a7f45632fd764c17cc6affed14c8
     Pseudo is Ultrasoft, Zval =  1.0
     Generated by new atomic code, or converted to UPF format
     Using radial grid of 1061 points,  2 beta functions with: 
                l(1) =   0
                l(2) =   0
     Q(r) pseudized with 0 coefficients 


     PseudoPot. # 3 for N  read from file:
     ../../../pseudo/N.pbe-rrkjus.UPF
     MD5 check sum: 28c76d763763edb36c62a6ca2be9aebd
     Pseudo is Ultrasoft, Zval =  5.0
     Generated by new atomic code, or converted to UPF format
     Using radial grid of 1257 points,  4 beta functions with: 
                l(1) =   0
                l(2) =   0
                l(3) =   1
                l(4) =   1
     Q(r) pseudized with 0 coefficients 


     PseudoPot. # 4 for O  read from file:
     ../../../pseudo/O.pbe-rrkjus.UPF
     MD5 check sum: fadcf19ee70a498d3030e2e79cf929a4
     Pseudo is Ultrasoft, Zval =  6.0
     Generated by new atomic code, or converted to UPF format
     Using radial grid of 1269 points,  4 beta functions with: 
                l(1) =   0
                l(2) =   0
                l(3) =   1
                l(4) =   1
     Q(r) pseudized with 0 coefficients 


     atomic species   valence    mass     pseudopotential
        C              4.00    12.00000     C ( 1.00)
        H              1.00     1.00000     H ( 1.00)
        N              5.00    14.00000     N ( 1.00)
        O              6.00    16.00000     O ( 1.00)

     No symmetry found



   Cartesian axes

     site n.     atom                  positions (alat units)
         1           C   tau(   1) = (   0.0000000   0.0000000   0.0000000  )
         2           C   tau(   2) = (   0.0000000   0.0000000   0.2910178  )
         3           N   tau(   3) = (   0.2341938   0.0000000  -0.1090048  )
         4           H   tau(   4) = (   0.0953235  -0.1650932   0.3584180  )
         5           H   tau(   5) = (  -0.1906366  -0.0000060   0.3584181  )
         6           H   tau(   6) = (   0.0953131   0.1650992   0.3584180  )
         7           O   tau(   7) = (  -0.1968004  -0.0000037  -0.1282619  )
         8           H   tau(   8) = (   0.2526261  -0.0000030  -0.2951095  )
         9           H   tau(   9) = (   0.3889291   0.0000268  -0.0051433  )
        10           H   tau(  10) = (  -0.1540732  -0.0000089  -0.3045722  )

     number of k points=     1
                       cart. coord. in units 2pi/alat
        k(    1) = (   0.0000000   0.0000000   0.0000000), wk =   2.0000000

     Dense  grid:    43828 G-vectors     FFT dimensions: (  60,  60,  60)

     Smooth grid:    11060 G-vectors     FFT dimensions: (  36,  36,  36)

     Estimated max dynamical RAM per process >      79.39 MB

     Initial potential from superposition of free atoms

     starting charge   24.42266, renormalised to   24.00000
     Starting wfcs are   22 randomized atomic wfcs

     total cpu time spent up to now is        1.9 secs

     Self-consistent Calculation

     iteration #  1     ecut=    30.00 Ry     beta= 0.70
     Davidson diagonalization with overlap
     ethr =  1.00E-02,  avg # of iterations =  2.0

     add environment contribution to local potential
 Warning: Polarization charge not converged
     polarization accuracy = 1.0E+03, # of iterations = 201

     total cpu time spent up to now is       10.8 secs

     total energy              =     -80.55593011 Ry
     estimated scf accuracy    <       3.21197354 Ry
     electrostatic embedding   =       0.03926991 Ry
     correction to one-el term =      -0.00000000 Ry

     iteration #  2     ecut=    30.00 Ry     beta= 0.70
     Davidson diagonalization with overlap
     ethr =  1.00E-02,  avg # of iterations =  3.0

     add environment contribution to local potential
 Warning: Polarization charge not converged
     polarization accuracy = 4.4E+02, # of iterations = 201

     total cpu time spent up to now is       19.7 secs

     total energy              =     -81.20954837 Ry
     estimated scf accuracy    <       0.84044781 Ry
     electrostatic embedding   =       0.18525057 Ry
     correction to one-el term =       4.12266313 Ry

     iteration #  3     ecut=    30.00 Ry     beta= 0.70
     Davidson diagonalization with overlap
     ethr =  3.50E-03,  avg # of iterations =  2.0

     add environment contribution to local potential
 Warning: Polarization charge not converged
     polarization accuracy = 5.6E+03, # of iterations = 201

     total cpu time spent up to now is       28.3 secs

     total energy              =     -81.29273202 Ry
     estimated scf accuracy    <       0.03357087 Ry
     electrostatic embedding   =       0.18484283 Ry
     correction to one-el term =       3.77709570 Ry

     iteration #  4     ecut=    30.00 Ry     beta= 0.70
     Davidson diagonalization with overlap
     ethr =  1.40E-04,  avg # of iterations =  5.0

     add environment contribution to local potential
 Warning: Polarization charge not converged
     polarization accuracy = 1.7E+03, # of iterations = 201

     total cpu time spent up to now is       37.0 secs

     total energy              =     -81.30043053 Ry
     estimated scf accuracy    <       0.04253707 Ry
     electrostatic embedding   =       0.18804864 Ry
     correction to one-el term =       3.52397656 Ry

     iteration #  5     ecut=    30.00 Ry     beta= 0.70
     Davidson diagonalization with overlap
     ethr =  1.40E-04,  avg # of iterations =  4.0

     add environment contribution to local potential
 Warning: Polarization charge not converged
     polarization accuracy = 2.1E+03, # of iterations = 201

     total cpu time spent up to now is       45.6 secs

     total energy              =     -81.30821228 Ry
     estimated scf accuracy    <       0.00220859 Ry
     electrostatic embedding   =       0.18812011 Ry
     correction to one-el term =       3.51169910 Ry

     iteration #  6     ecut=    30.00 Ry     beta= 0.70
     Davidson diagonalization with overlap
     ethr =  9.20E-06,  avg # of iterations =  3.0

     add environment contribution to local potential
 Warning: Polarization charge not converged
     polarization accuracy = 5.5E+04, # of iterations = 201

     total cpu time spent up to now is       54.2 secs

     total energy              =     -81.30879220 Ry
     estimated scf accuracy    <       0.00065339 Ry
     electrostatic embedding   =       0.18733352 Ry
     correction to one-el term =       3.49372548 Ry

     iteration #  7     ecut=    30.00 Ry     beta= 0.70
     Davidson diagonalization with overlap
     ethr =  2.72E-06,  avg # of iterations =  5.0

     negative rho (up, down):  1.369E-07 0.000E+00

     add environment contribution to local potential
 Warning: Polarization charge not converged
     polarization accuracy = 8.6E+03, # of iterations = 201

     total cpu time spent up to now is       62.8 secs

     total energy              =     -81.30707770 Ry
     estimated scf accuracy    <       0.00026293 Ry
     electrostatic embedding   =       0.18875849 Ry
     correction to one-el term =       3.53213634 Ry

     iteration #  8     ecut=    30.00 Ry     beta= 0.70
     Davidson diagonalization with overlap
     ethr =  1.10E-06,  avg # of iterations =  4.0

     add environment contribution to local potential
 Warning: Polarization charge not converged
     polarization accuracy = 8.6E+04, # of iterations = 201

     total cpu time spent up to now is       71.4 secs

     total energy              =     -81.30779324 Ry
     estimated scf accuracy    <       0.00003559 Ry
     electrostatic embedding   =       0.18680995 Ry
     correction to one-el term =       3.48582091 Ry

     iteration #  9     ecut=    30.00 Ry     beta= 0.70
     Davidson diagonalization with overlap
     ethr =  1.48E-07,  avg # of iterations =  6.0

     add environment contribution to local potential
 Warning: Polarization charge not converged
     polarization accuracy = 2.4E+04, # of iterations = 201

     total cpu time spent up to now is       80.0 secs

     total energy              =     -81.31155170 Ry
     estimated scf accuracy    <       0.00004330 Ry
     electrostatic embedding   =       0.18355934 Ry
     correction to one-el term =       3.39141503 Ry

     iteration # 10     ecut=    30.00 Ry     beta= 0.70
     Davidson diagonalization with overlap
     ethr =  1.48E-07,  avg # of iterations =  3.0

     the potential shift due to the Gaussian-smeared nuclei is    -0.1781 ev

     total cpu time spent up to now is       80.5 secs

     End of self-consistent calculation

          k = 0.0000 0.0000 0.0000 (  1389 PWs)   bands (ev):

   -27.9763 -21.9134 -17.5247 -15.4808 -13.5877 -12.6134 -10.6618  -9.5324
    -8.8774  -8.5168  -7.8636  -6.1324

     highest occupied level (ev):    -6.1324

!    total energy              =     -81.30755794 Ry
     estimated scf accuracy    <       0.00000418 Ry

     The total energy is the sum of the following terms:
     one-electron contribution =    -120.49730432 Ry
     hartree contribution      =      63.39240971 Ry
     xc contribution           =     -23.03865598 Ry
     ewald contribution        =      -4.85220152 Ry
     electrostatic embedding   =       0.18718572 Ry
     correction to one-el term =       3.50100844 Ry

     convergence has been achieved in  10 iterations
 forces lc
       1   -0.2998    0.0001   -0.0217
       2   -1.2088    0.0001    0.0980
       3   -0.3406    0.6915  -65.6099
       4    1.1815    0.2861   -1.4477
       5   -1.6205    0.0990   -0.3781
       6    1.3848   -0.0780   -1.4186
       731632.0450 4665.393447058.3055
       8   -0.7948    0.0061   -1.8007
       9   19.2331    0.0607    1.3899
      10   -3.1636    0.0403   -1.6027
 WARNING: Unphysical forces due to core electrons are non-negligible 
 atom type   4 is subject to a spurious force of     0.000011 
 WARNING: Unphysical forces due to core electrons are non-negligible 
 atom type   6 is subject to a spurious force of     0.000011 
 WARNING: Unphysical forces due to core electrons are non-negligible 
 atom type   8 is subject to a spurious force of     0.000068 
 WARNING: Unphysical forces due to core electrons are non-negligible 
 atom type   9 is subject to a spurious force of     2.343964 
 WARNING: Unphysical forces due to core electrons are non-negligible 
 atom type  10 is subject to a spurious force of     0.000014 

     Forces acting on atoms (cartesian axes, Ry/au):

     atom    1 type  1   force = -3164.64096336 -466.64972547-4698.64217994
     atom    2 type  1   force = -3165.82229846 -466.64978846-4698.86571430
     atom    3 type  3   force = -3165.20855274 -465.95833205-4764.26433432
     atom    4 type  2   force = -3163.41236166 -466.39082325-4700.22656210
     atom    5 type  2   force = -3166.23386556 -466.55084465-4699.15383096
     atom    6 type  2   force = -3163.20899484 -466.70082542-4700.19742252
     atom    7 type  4   force = 28467.47246323 4198.7434719342359.62279100
     atom    8 type  2   force = -3165.39821283 -466.64381812-4700.55788477
     atom    9 type  2   force = -3145.77357301 -466.58976275-4697.35649504
     atom   10 type  2   force = -3167.77364076 -466.60955176-4700.35836703

     Total force = 53979.088199     Total SCF correction =     0.003313

     Writing output data file ./tmp/pwscf.save/

     init_run     :      1.73s CPU      1.82s WALL (       1 calls)
     electrons    :     76.10s CPU     78.65s WALL (       1 calls)
     forces       :      0.77s CPU      0.81s WALL (       1 calls)

     Called by init_run:
     wfcinit      :      0.01s CPU      0.01s WALL (       1 calls)
     potinit      :      0.32s CPU      0.34s WALL (       1 calls)
     hinit0       :      1.29s CPU      1.32s WALL (       1 calls)

     Called by electrons:
     c_bands      :      0.24s CPU      0.24s WALL (      10 calls)
     sum_band     :      1.07s CPU      0.74s WALL (      10 calls)
     v_of_rho     :      0.77s CPU      0.88s WALL (      11 calls)
     newd         :      0.40s CPU      0.50s WALL (      11 calls)
     mix_rho      :      0.06s CPU      0.08s WALL (      10 calls)

     Called by c_bands:
     init_us_2    :      0.01s CPU      0.01s WALL (      21 calls)
     regterg      :      0.22s CPU      0.23s WALL (      10 calls)

     Called by *egterg:
     rdiaghg      :      0.01s CPU      0.01s WALL (      47 calls)
     h_psi        :      0.18s CPU      0.20s WALL (      48 calls)
     s_psi        :      0.01s CPU      0.00s WALL (      48 calls)
     g_psi        :      0.00s CPU      0.00s WALL (      37 calls)

     Called by h_psi:
     h_psi:calbec :      0.01s CPU      0.01s WALL (      48 calls)
     vloc_psi     :      0.17s CPU      0.17s WALL (      48 calls)
     add_vuspsi   :      0.01s CPU      0.02s WALL (      48 calls)

     General routines
     calbec       :      0.01s CPU      0.01s WALL (      62 calls)
     fft          :     45.56s CPU     45.87s WALL (    3906 calls)
     ffts         :      0.01s CPU      0.01s WALL (      21 calls)
     fftw         :      0.15s CPU      0.15s WALL (     490 calls)
     interpolate  :      0.04s CPU      0.05s WALL (      11 calls)

     Parallel routines
     fft_scatt_xy :      4.45s CPU      4.48s WALL (    3781 calls)
     fft_scatt_yz :      4.91s CPU      4.93s WALL (    3781 calls)

     Environ routines
     calc_eelect  :      0.01s CPU      0.01s WALL (      20 calls)
     calc_velect  :     70.12s CPU     72.44s WALL (      18 calls)
     dielectric   :      0.16s CPU      0.19s WALL (      13 calls)
     calc_felect  :      0.10s CPU      0.11s WALL (       1 calls)

     PWSCF        :   1m18.68s CPU   1m21.39s WALL


   This run was terminated on:  12:15: 5  18Mar2021            

=------------------------------------------------------------------------------=
   JOB DONE.
=------------------------------------------------------------------------------=
