
     Program PWSCF v.6.7MaX starts on 18Mar2021 at 12:15: 5 

     This program is part of the open-source Quantum ESPRESSO suite
     for quantum simulation of materials; please cite
         "P. Giannozzi et al., J. Phys.:Condens. Matter 21 395502 (2009);
         "P. Giannozzi et al., J. Phys.:Condens. Matter 29 465901 (2017);
          URL http://www.quantum-espresso.org", 
     in publications or presentations arising from this work. More details at
     http://www.quantum-espresso.org/quote

     Parallel version (MPI), running on     1 processors

     MPI processes distributed on     1 nodes
     Waiting for input...
     Reading input from standard input

     Current dimensions of program PWSCF are:
     Max number of different atomic species (ntypx) = 10
     Max number of k-points (npk) =  40000
     Max angular momentum in pseudopotentials (lmaxx) =  3
     file C.pbe-rrkjus.UPF: wavefunction(s)  2S 2P renormalized
     file H.pbe-rrkjus.UPF: wavefunction(s)  1S renormalized
     file N.pbe-rrkjus.UPF: wavefunction(s)  2S renormalized
     file O.pbe-rrkjus.UPF: wavefunction(s)  2S renormalized

     gamma-point specific algorithms are used

     Subspace diagonalization in iterative solution of the eigenvalue problem:
     a serial algorithm will be used


     G-vector sticks info
     --------------------
     sticks:   dense  smooth     PW     G-vecs:    dense   smooth      PW
     Sum        2385     949    241                87655    22119    2777



     bravais-lattice index     =            1
     lattice parameter (alat)  =      10.0000  a.u.
     unit-cell volume          =    1000.0000 (a.u.)^3
     number of atoms/cell      =           10
     number of atomic types    =            4
     number of electrons       =        24.00
     number of Kohn-Sham states=           12
     kinetic-energy cutoff     =      30.0000  Ry
     charge density cutoff     =     300.0000  Ry
     scf convergence threshold =      5.0E-06
     mixing beta               =       0.7000
     number of iterations used =            8  plain     mixing
     Exchange-correlation= SLA  PW   PBE  PBE
                           (   1   4   3   4   0   0   0)


     Environ Module
     ==============

     Plese cite
         O. Andreussi, I. Dabo and N. Marzari, J. Chem. Phys. 136, 064102 (2012)         
     in publications or presentations arising from this work.

     compensation onset threshold      =               0.1000E+03 

     Electrostatic Setup
     -------------------
     electrostatic problem to solve    = poisson                  
     numerical solver adopted          = direct                   
     type of auxiliary density adopted = none                     
     type of core tool for poisson     = fft                      



     celldm(1)=  10.000000  celldm(2)=   0.000000  celldm(3)=   0.000000
     celldm(4)=   0.000000  celldm(5)=   0.000000  celldm(6)=   0.000000

     crystal axes: (cart. coord. in units of alat)
               a(1) = (   1.000000   0.000000   0.000000 )  
               a(2) = (   0.000000   1.000000   0.000000 )  
               a(3) = (   0.000000   0.000000   1.000000 )  

     reciprocal axes: (cart. coord. in units 2 pi/alat)
               b(1) = (  1.000000  0.000000  0.000000 )  
               b(2) = (  0.000000  1.000000  0.000000 )  
               b(3) = (  0.000000  0.000000  1.000000 )  


     PseudoPot. # 1 for C  read from file:
     ../../../pseudo/C.pbe-rrkjus.UPF
     MD5 check sum: c9ac5a99bc85b198593446162950cd17
     Pseudo is Ultrasoft, Zval =  4.0
     Generated by new atomic code, or converted to UPF format
     Using radial grid of  627 points,  4 beta functions with: 
                l(1) =   0
                l(2) =   0
                l(3) =   1
                l(4) =   1
     Q(r) pseudized with 0 coefficients 


     PseudoPot. # 2 for H  read from file:
     ../../../pseudo/H.pbe-rrkjus.UPF
     MD5 check sum: 2d52a7f45632fd764c17cc6affed14c8
     Pseudo is Ultrasoft, Zval =  1.0
     Generated by new atomic code, or converted to UPF format
     Using radial grid of 1061 points,  2 beta functions with: 
                l(1) =   0
                l(2) =   0
     Q(r) pseudized with 0 coefficients 


     PseudoPot. # 3 for N  read from file:
     ../../../pseudo/N.pbe-rrkjus.UPF
     MD5 check sum: 28c76d763763edb36c62a6ca2be9aebd
     Pseudo is Ultrasoft, Zval =  5.0
     Generated by new atomic code, or converted to UPF format
     Using radial grid of 1257 points,  4 beta functions with: 
                l(1) =   0
                l(2) =   0
                l(3) =   1
                l(4) =   1
     Q(r) pseudized with 0 coefficients 


     PseudoPot. # 4 for O  read from file:
     ../../../pseudo/O.pbe-rrkjus.UPF
     MD5 check sum: fadcf19ee70a498d3030e2e79cf929a4
     Pseudo is Ultrasoft, Zval =  6.0
     Generated by new atomic code, or converted to UPF format
     Using radial grid of 1269 points,  4 beta functions with: 
                l(1) =   0
                l(2) =   0
                l(3) =   1
                l(4) =   1
     Q(r) pseudized with 0 coefficients 


     atomic species   valence    mass     pseudopotential
        C              4.00    12.00000     C ( 1.00)
        H              1.00     1.00000     H ( 1.00)
        N              5.00    14.00000     N ( 1.00)
        O              6.00    16.00000     O ( 1.00)

     No symmetry found



   Cartesian axes

     site n.     atom                  positions (alat units)
         1           C   tau(   1) = (   0.0000000   0.0000000   0.0000000  )
         2           C   tau(   2) = (   0.0000000   0.0000000   0.2910178  )
         3           N   tau(   3) = (   0.2341938   0.0000000  -0.1090048  )
         4           H   tau(   4) = (   0.0953235  -0.1650932   0.3584180  )
         5           H   tau(   5) = (  -0.1906366  -0.0000060   0.3584181  )
         6           H   tau(   6) = (   0.0953131   0.1650992   0.3584180  )
         7           O   tau(   7) = (  -0.1968004  -0.0000037  -0.1282619  )
         8           H   tau(   8) = (   0.2526261  -0.0000030  -0.2951095  )
         9           H   tau(   9) = (   0.3889291   0.0000268  -0.0051433  )
        10           H   tau(  10) = (  -0.1540732  -0.0000089  -0.3045722  )

     number of k points=     1
                       cart. coord. in units 2pi/alat
        k(    1) = (   0.0000000   0.0000000   0.0000000), wk =   2.0000000

     Dense  grid:    43828 G-vectors     FFT dimensions: (  60,  60,  60)

     Smooth grid:    11060 G-vectors     FFT dimensions: (  36,  36,  36)

     Estimated max dynamical RAM per process >      79.39 MB

     Initial potential from superposition of free atoms

     starting charge   24.42266, renormalised to   24.00000
     Starting wfcs are   22 randomized atomic wfcs

     total cpu time spent up to now is        1.3 secs

     Self-consistent Calculation

     iteration #  1     ecut=    30.00 Ry     beta= 0.70
     Davidson diagonalization with overlap
     ethr =  1.00E-02,  avg # of iterations =  2.0

     add environment contribution to local potential

     total cpu time spent up to now is        1.7 secs

     total energy              =     -80.55593011 Ry
     estimated scf accuracy    <       3.21197354 Ry
     electrostatic embedding   =       0.03926991 Ry
     correction to one-el term =      -0.00000000 Ry

     iteration #  2     ecut=    30.00 Ry     beta= 0.70
     Davidson diagonalization with overlap
     ethr =  1.00E-02,  avg # of iterations =  3.0

     add environment contribution to local potential

     total cpu time spent up to now is        2.0 secs

     total energy              =     -80.97677083 Ry
     estimated scf accuracy    <       0.88492927 Ry
     electrostatic embedding   =       0.42661020 Ry
     correction to one-el term =      11.44936674 Ry

     iteration #  3     ecut=    30.00 Ry     beta= 0.70
     Davidson diagonalization with overlap
     ethr =  3.69E-03,  avg # of iterations =  2.0

     add environment contribution to local potential

     total cpu time spent up to now is        2.4 secs

     total energy              =     -81.07670765 Ry
     estimated scf accuracy    <       0.03350945 Ry
     electrostatic embedding   =       0.40654813 Ry
     correction to one-el term =      11.10366048 Ry

     iteration #  4     ecut=    30.00 Ry     beta= 0.70
     Davidson diagonalization with overlap
     ethr =  1.40E-04,  avg # of iterations =  5.0

     add environment contribution to local potential

     total cpu time spent up to now is        2.7 secs

     total energy              =     -81.09171410 Ry
     estimated scf accuracy    <       0.04317656 Ry
     electrostatic embedding   =       0.39801541 Ry
     correction to one-el term =      10.89825246 Ry

     iteration #  5     ecut=    30.00 Ry     beta= 0.70
     Davidson diagonalization with overlap
     ethr =  1.40E-04,  avg # of iterations =  5.0

     add environment contribution to local potential

     total cpu time spent up to now is        3.0 secs

     total energy              =     -81.09432895 Ry
     estimated scf accuracy    <       0.00524290 Ry
     electrostatic embedding   =       0.39602647 Ry
     correction to one-el term =      10.93551514 Ry

     iteration #  6     ecut=    30.00 Ry     beta= 0.70
     Davidson diagonalization with overlap
     ethr =  2.18E-05,  avg # of iterations =  3.0

     add environment contribution to local potential

     total cpu time spent up to now is        3.4 secs

     total energy              =     -81.09586091 Ry
     estimated scf accuracy    <       0.00114066 Ry
     electrostatic embedding   =       0.39671050 Ry
     correction to one-el term =      10.94465217 Ry

     iteration #  7     ecut=    30.00 Ry     beta= 0.70
     Davidson diagonalization with overlap
     ethr =  4.75E-06,  avg # of iterations =  5.0

     add environment contribution to local potential

     total cpu time spent up to now is        3.7 secs

     total energy              =     -81.09612170 Ry
     estimated scf accuracy    <       0.00007576 Ry
     electrostatic embedding   =       0.39638932 Ry
     correction to one-el term =      10.92306230 Ry

     iteration #  8     ecut=    30.00 Ry     beta= 0.70
     Davidson diagonalization with overlap
     ethr =  3.16E-07,  avg # of iterations =  3.0

     add environment contribution to local potential

     total cpu time spent up to now is        4.1 secs

     total energy              =     -81.09612923 Ry
     estimated scf accuracy    <       0.00000778 Ry
     electrostatic embedding   =       0.39641380 Ry
     correction to one-el term =      10.92665472 Ry

     iteration #  9     ecut=    30.00 Ry     beta= 0.70
     Davidson diagonalization with overlap
     ethr =  3.24E-08,  avg # of iterations =  5.0

     the potential shift due to the Gaussian-smeared nuclei is    -0.1781 ev

     total cpu time spent up to now is        4.3 secs

     End of self-consistent calculation

          k = 0.0000 0.0000 0.0000 (  1389 PWs)   bands (ev):

   -32.1162 -26.4117 -21.8086 -19.6655 -17.9802 -17.1247 -14.9306 -13.7683
   -13.0723 -12.7945 -11.9326 -10.5067

     highest occupied level (ev):   -10.5067

!    total energy              =     -81.09613147 Ry
     estimated scf accuracy    <       0.00000188 Ry

     The total energy is the sum of the following terms:
     one-electron contribution =    -127.79532109 Ry
     hartree contribution      =      63.23965591 Ry
     xc contribution           =     -23.01148121 Ry
     ewald contribution        =      -4.85220152 Ry
     electrostatic embedding   =       0.39634562 Ry
     correction to one-el term =      10.92687081 Ry

     convergence has been achieved in   9 iterations
 forces lc
       1    0.0000    0.0000    0.0056
       2    0.0000    0.0000    0.1032
       3   -0.0000    0.0000   -0.0387
       4   -0.0000   -0.0000    0.0313
       5    0.0000    0.0000    0.0313
       6   -0.0000   -0.0000    0.0313
       7    0.0000    0.0000   -0.0561
       8   -0.0000    0.0000   -0.0233
       9   -0.0000    0.0000    0.0010
      10    0.0000    0.0000   -0.0241

     Forces acting on atoms (cartesian axes, Ry/au):

     atom    1 type  1   force =     0.26184460    0.00000264    0.11214970
     atom    2 type  1   force =     0.01732433    0.00000599   -0.09542296
     atom    3 type  3   force =    -0.27414038    0.00000271    0.07325015
     atom    4 type  2   force =    -0.03416790   -0.03156477    0.00637958
     atom    5 type  2   force =    -0.04579812    0.00000079    0.01594754
     atom    6 type  2   force =    -0.03416652    0.03156921    0.00638103
     atom    7 type  4   force =     0.27799509   -0.00002221   -0.04997683
     atom    8 type  2   force =    -0.05806679    0.00000215   -0.04384840
     atom    9 type  2   force =    -0.07562589    0.00000283    0.02633167
     atom   10 type  2   force =    -0.03519844    0.00000066   -0.05119148

     Total force =     0.522657     Total SCF correction =     0.002171

     Writing output data file ./tmp/pwscf.save/

     init_run     :      1.22s CPU      1.27s WALL (       1 calls)
     electrons    :      3.03s CPU      3.02s WALL (       1 calls)
     forces       :      0.22s CPU      0.24s WALL (       1 calls)

     Called by init_run:
     wfcinit      :      0.01s CPU      0.01s WALL (       1 calls)
     potinit      :      0.16s CPU      0.17s WALL (       1 calls)
     hinit0       :      0.95s CPU      0.97s WALL (       1 calls)

     Called by electrons:
     c_bands      :      0.20s CPU      0.19s WALL (       9 calls)
     sum_band     :      0.94s CPU      0.64s WALL (       9 calls)
     v_of_rho     :      0.72s CPU      0.81s WALL (      10 calls)
     newd         :      0.37s CPU      0.45s WALL (      10 calls)
     mix_rho      :      0.05s CPU      0.07s WALL (       9 calls)

     Called by c_bands:
     init_us_2    :      0.01s CPU      0.01s WALL (      19 calls)
     regterg      :      0.19s CPU      0.18s WALL (       9 calls)

     Called by *egterg:
     rdiaghg      :      0.01s CPU      0.01s WALL (      42 calls)
     h_psi        :      0.15s CPU      0.16s WALL (      43 calls)
     s_psi        :      0.01s CPU      0.01s WALL (      43 calls)
     g_psi        :      0.00s CPU      0.00s WALL (      33 calls)

     Called by h_psi:
     h_psi:calbec :      0.00s CPU      0.00s WALL (      43 calls)
     vloc_psi     :      0.14s CPU      0.14s WALL (      43 calls)
     add_vuspsi   :      0.01s CPU      0.02s WALL (      43 calls)

     General routines
     calbec       :      0.01s CPU      0.01s WALL (      56 calls)
     fft          :      0.56s CPU      0.59s WALL (     151 calls)
     ffts         :      0.01s CPU      0.01s WALL (      19 calls)
     fftw         :      0.13s CPU      0.13s WALL (     410 calls)
     interpolate  :      0.04s CPU      0.04s WALL (      10 calls)

     Parallel routines
     fft_scatt_xy :      0.03s CPU      0.03s WALL (      37 calls)
     fft_scatt_yz :      0.03s CPU      0.03s WALL (      37 calls)

     Environ routines
     calc_eelect  :      0.01s CPU      0.01s WALL (      18 calls)
     calc_velect  :      0.32s CPU      0.38s WALL (      16 calls)
     calc_felect  :      0.10s CPU      0.11s WALL (       1 calls)

     PWSCF        :      4.55s CPU      4.62s WALL


   This run was terminated on:  12:15: 9  18Mar2021            

=------------------------------------------------------------------------------=
   JOB DONE.
=------------------------------------------------------------------------------=
