
     Program PWSCF v.6.7MaX starts on 18Mar2021 at 12:44:45 

     This program is part of the open-source Quantum ESPRESSO suite
     for quantum simulation of materials; please cite
         "P. Giannozzi et al., J. Phys.:Condens. Matter 21 395502 (2009);
         "P. Giannozzi et al., J. Phys.:Condens. Matter 29 465901 (2017);
          URL http://www.quantum-espresso.org", 
     in publications or presentations arising from this work. More details at
     http://www.quantum-espresso.org/quote

     Parallel version (MPI), running on     1 processors

     MPI processes distributed on     1 nodes
     Waiting for input...
     Reading input from standard input

     Current dimensions of program PWSCF are:
     Max number of different atomic species (ntypx) = 10
     Max number of k-points (npk) =  40000
     Max angular momentum in pseudopotentials (lmaxx) =  3
     file C.pbe-rrkjus.UPF: wavefunction(s)  2S 2P renormalized
     file O.pbe-rrkjus.UPF: wavefunction(s)  2S renormalized

     gamma-point specific algorithms are used

     Subspace diagonalization in iterative solution of the eigenvalue problem:
     a serial algorithm will be used


     G-vector sticks info
     --------------------
     sticks:   dense  smooth     PW     G-vecs:    dense   smooth      PW
     Sum        2357    1099    269               185577    58999    7345



     bravais-lattice index     =            8
     lattice parameter (alat)  =      10.6881  a.u.
     unit-cell volume          =    2114.7642 (a.u.)^3
     number of atoms/cell      =           10
     number of atomic types    =            3
     number of electrons       =        89.00
     number of Kohn-Sham states=           80
     kinetic-energy cutoff     =      35.0000  Ry
     charge density cutoff     =     300.0000  Ry
     scf convergence threshold =      5.0E-06
     mixing beta               =       0.7000
     number of iterations used =            8  plain     mixing
     Exchange-correlation= PBE
                           (   1   4   3   4   0   0   0)


     Environ Module
     ==============

     Plese cite
         O. Andreussi, I. Dabo and N. Marzari, J. Chem. Phys. 136, 064102 (2012)         
     in publications or presentations arising from this work.

     compensation onset threshold      =               0.1000E+03 

     Electrostatic Setup
     -------------------
     electrostatic problem to solve    = poisson                  
     numerical solver adopted          = direct                   
     type of auxiliary density adopted = none                     
     type of core tool for poisson     = fft                      



     celldm(1)=  10.688100  celldm(2)=   0.866025  celldm(3)=   2.000000
     celldm(4)=   0.000000  celldm(5)=   0.000000  celldm(6)=   0.000000

     crystal axes: (cart. coord. in units of alat)
               a(1) = (   1.000000   0.000000   0.000000 )  
               a(2) = (   0.000000   0.866025   0.000000 )  
               a(3) = (   0.000000   0.000000   2.000000 )  

     reciprocal axes: (cart. coord. in units 2 pi/alat)
               b(1) = (  1.000000  0.000000  0.000000 )  
               b(2) = (  0.000000  1.154701  0.000000 )  
               b(3) = (  0.000000  0.000000  0.500000 )  


     PseudoPot. # 1 for C  read from file:
     ../../../pseudo/C.pbe-rrkjus.UPF
     MD5 check sum: c9ac5a99bc85b198593446162950cd17
     Pseudo is Ultrasoft, Zval =  4.0
     Generated by new atomic code, or converted to UPF format
     Using radial grid of  627 points,  4 beta functions with: 
                l(1) =   0
                l(2) =   0
                l(3) =   1
                l(4) =   1
     Q(r) pseudized with 0 coefficients 


     PseudoPot. # 2 for O  read from file:
     ../../../pseudo/O.pbe-rrkjus.UPF
     MD5 check sum: fadcf19ee70a498d3030e2e79cf929a4
     Pseudo is Ultrasoft, Zval =  6.0
     Generated by new atomic code, or converted to UPF format
     Using radial grid of 1269 points,  4 beta functions with: 
                l(1) =   0
                l(2) =   0
                l(3) =   1
                l(4) =   1
     Q(r) pseudized with 0 coefficients 


     PseudoPot. # 3 for Pt read from file:
     ../../../pseudo/Pt.pbe-n-rrkjus_psl.0.1.UPF
     MD5 check sum: 957548fe13c2a9232dd96292d902c87c
     Pseudo is Ultrasoft + core correction, Zval = 10.0
     Generated using "atomic" code by A. Dal Corso  v.5.0.2 svn rev. 9415
     Using radial grid of 1277 points,  6 beta functions with: 
                l(1) =   0
                l(2) =   0
                l(3) =   1
                l(4) =   1
                l(5) =   2
                l(6) =   2
     Q(r) pseudized with 0 coefficients 


     atomic species   valence    mass     pseudopotential
        C              4.00     1.00000     C ( 1.00)
        O              6.00     1.00000     O ( 1.00)
        Pt            10.00     1.00000     Pt( 1.00)

     No symmetry found



   Cartesian axes

     site n.     atom                  positions (alat units)
         1           C   tau(   1) = (   0.4991611   0.4347567   0.7762281  )
         2           O   tau(   2) = (   0.4991542   0.4322212   0.9800832  )
         3           Pt  tau(   3) = (   0.7542339   0.0091745   0.4105048  )
         4           Pt  tau(   4) = (   0.2441023   0.0091745   0.4105046  )
         5           Pt  tau(   5) = (   0.0000034   0.4416918   0.4083168  )
         6           Pt  tau(   6) = (   0.4991682   0.4417635   0.4468119  )
         7           Pt  tau(   7) = (   0.0000038   0.7300598   0.0000000  )
         8           Pt  tau(   8) = (   0.4991683   0.7202168   0.0139279  )
         9           Pt  tau(   9) = (   0.2524172   0.2949237   0.0078392  )
        10           Pt  tau(  10) = (   0.7459196   0.2949237   0.0078394  )

     number of k points=     1  Marzari-Vanderbilt smearing, width (Ry)=  0.0300
                       cart. coord. in units 2pi/alat
        k(    1) = (   0.0000000   0.0000000   0.0000000), wk =   2.0000000

     Dense  grid:    92789 G-vectors     FFT dimensions: (  60,  54, 120)

     Smooth grid:    29500 G-vectors     FFT dimensions: (  45,  36,  81)

     Estimated max dynamical RAM per process >     383.41 MB

     Initial potential from superposition of free atoms

     starting charge   89.99859, renormalised to   89.00000

     negative rho (up, down):  1.324E-05 0.000E+00
     Starting wfcs are   80 randomized atomic wfcs

     total cpu time spent up to now is        3.5 secs

     Self-consistent Calculation

     iteration #  1     ecut=    35.00 Ry     beta= 0.70
     Davidson diagonalization with overlap
     ethr =  1.00E-02,  avg # of iterations =  6.0

     negative rho (up, down):  6.609E-05 0.000E+00

     add environment contribution to local potential

     total cpu time spent up to now is        5.1 secs

     total energy              =    -623.83365836 Ry
     estimated scf accuracy    <       1.02525414 Ry
     electrostatic embedding   =       0.06684985 Ry
     correction to one-el term =      -0.00000000 Ry

     iteration #  2     ecut=    35.00 Ry     beta= 0.70
     Davidson diagonalization with overlap
     ethr =  1.15E-03,  avg # of iterations =  7.0

     negative rho (up, down):  3.299E-03 0.000E+00

     add environment contribution to local potential

     total cpu time spent up to now is        6.8 secs

     total energy              =    -619.36441305 Ry
     estimated scf accuracy    <      18.59056854 Ry
     electrostatic embedding   =       5.48024840 Ry
     correction to one-el term =      29.98416368 Ry

     iteration #  3     ecut=    35.00 Ry     beta= 0.70
     Davidson diagonalization with overlap
     ethr =  1.15E-03,  avg # of iterations =  2.0

     negative rho (up, down):  2.464E-03 0.000E+00

     add environment contribution to local potential

     total cpu time spent up to now is        8.4 secs

     total energy              =    -620.33078036 Ry
     estimated scf accuracy    <       3.90824576 Ry
     electrostatic embedding   =       5.11160424 Ry
     correction to one-el term =      29.09418894 Ry

     iteration #  4     ecut=    35.00 Ry     beta= 0.70
     Davidson diagonalization with overlap
     ethr =  1.15E-03,  avg # of iterations =  1.0

     negative rho (up, down):  2.092E-03 0.000E+00

     add environment contribution to local potential

     total cpu time spent up to now is        9.8 secs

     total energy              =    -620.24464167 Ry
     estimated scf accuracy    <       2.07800976 Ry
     electrostatic embedding   =       4.62495085 Ry
     correction to one-el term =      27.47002231 Ry

     iteration #  5     ecut=    35.00 Ry     beta= 0.70
     Davidson diagonalization with overlap
     ethr =  1.15E-03,  avg # of iterations =  1.0

     negative rho (up, down):  1.558E-03 0.000E+00

     add environment contribution to local potential

     total cpu time spent up to now is       11.3 secs

     total energy              =    -620.36581680 Ry
     estimated scf accuracy    <       1.16700822 Ry
     electrostatic embedding   =       4.41523683 Ry
     correction to one-el term =      25.33210437 Ry

     iteration #  6     ecut=    35.00 Ry     beta= 0.70
     Davidson diagonalization with overlap
     ethr =  1.15E-03,  avg # of iterations =  1.0

     negative rho (up, down):  8.632E-04 0.000E+00

     add environment contribution to local potential

     total cpu time spent up to now is       13.0 secs

     total energy              =    -620.24174614 Ry
     estimated scf accuracy    <       1.45068742 Ry
     electrostatic embedding   =       4.12170069 Ry
     correction to one-el term =      24.10818683 Ry

     iteration #  7     ecut=    35.00 Ry     beta= 0.70
     Davidson diagonalization with overlap
     ethr =  1.15E-03,  avg # of iterations =  1.0

     negative rho (up, down):  3.588E-04 0.000E+00

     add environment contribution to local potential

     total cpu time spent up to now is       14.5 secs

     total energy              =    -620.24068171 Ry
     estimated scf accuracy    <       0.86114572 Ry
     electrostatic embedding   =       3.51960924 Ry
     correction to one-el term =      22.03899240 Ry

     iteration #  8     ecut=    35.00 Ry     beta= 0.70
     Davidson diagonalization with overlap
     ethr =  9.68E-04,  avg # of iterations =  1.0

     negative rho (up, down):  1.789E-04 0.000E+00

     add environment contribution to local potential

     total cpu time spent up to now is       15.9 secs

     total energy              =    -620.30026558 Ry
     estimated scf accuracy    <       0.54422674 Ry
     electrostatic embedding   =       3.20541140 Ry
     correction to one-el term =      21.53820496 Ry

     iteration #  9     ecut=    35.00 Ry     beta= 0.70
     Davidson diagonalization with overlap
     ethr =  6.11E-04,  avg # of iterations =  1.0

     negative rho (up, down):  7.829E-05 0.000E+00

     add environment contribution to local potential

     total cpu time spent up to now is       17.4 secs

     total energy              =    -620.31578094 Ry
     estimated scf accuracy    <       0.07987762 Ry
     electrostatic embedding   =       3.20255719 Ry
     correction to one-el term =      21.28599196 Ry

     iteration # 10     ecut=    35.00 Ry     beta= 0.70
     Davidson diagonalization with overlap
     ethr =  8.98E-05,  avg # of iterations =  1.0

     negative rho (up, down):  9.072E-05 0.000E+00

     add environment contribution to local potential

     total cpu time spent up to now is       18.9 secs

     total energy              =    -620.31764047 Ry
     estimated scf accuracy    <       0.05455312 Ry
     electrostatic embedding   =       3.09251879 Ry
     correction to one-el term =      21.10529356 Ry

     iteration # 11     ecut=    35.00 Ry     beta= 0.70
     Davidson diagonalization with overlap
     ethr =  6.13E-05,  avg # of iterations =  2.0

     negative rho (up, down):  8.378E-05 0.000E+00

     add environment contribution to local potential

     total cpu time spent up to now is       20.4 secs

     total energy              =    -620.32071627 Ry
     estimated scf accuracy    <       0.02715121 Ry
     electrostatic embedding   =       3.12142490 Ry
     correction to one-el term =      21.21172287 Ry

     iteration # 12     ecut=    35.00 Ry     beta= 0.70
     Davidson diagonalization with overlap
     ethr =  3.05E-05,  avg # of iterations =  7.0

     negative rho (up, down):  6.601E-05 0.000E+00

     add environment contribution to local potential

     total cpu time spent up to now is       22.0 secs

     total energy              =    -620.32143848 Ry
     estimated scf accuracy    <       0.00388920 Ry
     electrostatic embedding   =       3.11478306 Ry
     correction to one-el term =      21.24282112 Ry

     iteration # 13     ecut=    35.00 Ry     beta= 0.70
     Davidson diagonalization with overlap
     ethr =  4.37E-06,  avg # of iterations =  2.0

     negative rho (up, down):  6.468E-05 0.000E+00

     add environment contribution to local potential

     total cpu time spent up to now is       23.5 secs

     total energy              =    -620.32190321 Ry
     estimated scf accuracy    <       0.00154905 Ry
     electrostatic embedding   =       3.11175157 Ry
     correction to one-el term =      21.33624021 Ry

     iteration # 14     ecut=    35.00 Ry     beta= 0.70
     Davidson diagonalization with overlap
     ethr =  1.74E-06,  avg # of iterations =  2.0

     negative rho (up, down):  6.567E-05 0.000E+00

     add environment contribution to local potential

     total cpu time spent up to now is       25.1 secs

     total energy              =    -620.32187649 Ry
     estimated scf accuracy    <       0.00376360 Ry
     electrostatic embedding   =       3.10265159 Ry
     correction to one-el term =      21.30688845 Ry

     iteration # 15     ecut=    35.00 Ry     beta= 0.70
     Davidson diagonalization with overlap
     ethr =  1.74E-06,  avg # of iterations =  1.0

     negative rho (up, down):  6.510E-05 0.000E+00

     add environment contribution to local potential

     total cpu time spent up to now is       26.6 secs

     total energy              =    -620.32214740 Ry
     estimated scf accuracy    <       0.00013383 Ry
     electrostatic embedding   =       3.10073030 Ry
     correction to one-el term =      21.34363729 Ry

     iteration # 16     ecut=    35.00 Ry     beta= 0.70
     Davidson diagonalization with overlap
     ethr =  1.50E-07,  avg # of iterations =  1.0

     negative rho (up, down):  6.509E-05 0.000E+00

     add environment contribution to local potential

     total cpu time spent up to now is       28.2 secs

     total energy              =    -620.32215704 Ry
     estimated scf accuracy    <       0.00001862 Ry
     electrostatic embedding   =       3.09986906 Ry
     correction to one-el term =      21.34124815 Ry

     iteration # 17     ecut=    35.00 Ry     beta= 0.70
     Davidson diagonalization with overlap
     ethr =  2.09E-08,  avg # of iterations =  2.0

     negative rho (up, down):  6.502E-05 0.000E+00

     add environment contribution to local potential

     total cpu time spent up to now is       29.7 secs

     total energy              =    -620.32215653 Ry
     estimated scf accuracy    <       0.00004962 Ry
     electrostatic embedding   =       3.09954852 Ry
     correction to one-el term =      21.33748360 Ry

     iteration # 18     ecut=    35.00 Ry     beta= 0.70
     Davidson diagonalization with overlap
     ethr =  2.09E-08,  avg # of iterations =  1.0

     negative rho (up, down):  6.509E-05 0.000E+00

     add environment contribution to local potential

     total cpu time spent up to now is       31.3 secs

     total energy              =    -620.32215882 Ry
     estimated scf accuracy    <       0.00002135 Ry
     electrostatic embedding   =       3.09971200 Ry
     correction to one-el term =      21.33804402 Ry

     iteration # 19     ecut=    35.00 Ry     beta= 0.70
     Davidson diagonalization with overlap
     ethr =  2.09E-08,  avg # of iterations =  1.0

     negative rho (up, down):  6.522E-05 0.000E+00

     the potential shift due to the Gaussian-smeared nuclei is    -0.3032 ev

     total cpu time spent up to now is       32.6 secs

     End of self-consistent calculation

          k = 0.0000 0.0000 0.0000 (  3673 PWs)   bands (ev):

   -24.1553 -10.2348  -7.8590  -7.3377  -6.9499  -6.9202  -6.1111  -5.3622
    -5.1083  -4.9902  -4.8890  -4.5721  -4.5167  -4.4747  -4.4511  -4.3024
    -3.7300  -3.6153  -3.6053  -3.3912  -3.3573  -3.3176  -3.2819  -3.1918
    -3.0653  -2.9184  -2.8731  -2.7472  -2.5785  -2.5037  -2.4425  -1.9166
    -1.8166  -1.7246  -1.4754  -1.3976  -1.3344  -1.2587  -0.9939  -0.8030
    -0.6098  -0.5050  -0.3370  -0.2125  -0.0683  -0.0115   0.1887   1.3872
     2.0147   2.3321   2.7373   2.8368   3.8263   3.8506   4.3617   5.0420
     5.3284   5.7860   6.0363   6.7776   7.4768   7.9468   8.2140   8.8373
     9.2084   9.4412   9.8953   9.9570  10.1633  10.5719  10.7515  10.9759
    11.1531  11.2833  11.5708  11.7495  11.9930  12.2938  12.5334  12.7704

     the Fermi energy is    -0.0750 ev

!    total energy              =    -620.32216018 Ry
     estimated scf accuracy    <       0.00000032 Ry
     smearing contrib. (-TS)   =      -0.00489423 Ry
     internal energy E=F+TS    =    -620.31726595 Ry

     The total energy is F=E-TS. E is the sum of the following terms:
     one-electron contribution =    -894.07235668 Ry
     hartree contribution      =     498.94230091 Ry
     xc contribution           =    -263.71319537 Ry
     ewald contribution        =      14.08538298 Ry
     electrostatic embedding   =       3.09958606 Ry
     correction to one-el term =      21.34101616 Ry

     convergence has been achieved in  19 iterations

     negative rho (up, down):  6.522E-05 0.000E+00
 forces lc
       1   -0.0000    0.0000    0.0860
       2   -0.0000    0.0000   -0.0356
       3    0.0000    0.0000    0.1230
       4   -0.0000    0.0000    0.1230
       5    0.0000    0.0000    0.1220
       6   -0.0000    0.0000    0.1383
       7    0.0000    0.0000   -0.0508
       8   -0.0000    0.0000   -0.0450
       9   -0.0000    0.0000   -0.0475
      10    0.0000    0.0000   -0.0475

     Forces acting on atoms (cartesian axes, Ry/au):

     atom    1 type  1   force =    -0.02647756   -0.00569515    0.12114475
     atom    2 type  2   force =     0.03218189    0.00328651   -0.16496675
     atom    3 type  3   force =    -1.39748248    0.17923213    0.67183734
     atom    4 type  3   force =     0.92050330   -0.04173509    0.33614274
     atom    5 type  3   force =     1.04718601    0.19177852    0.61741086
     atom    6 type  3   force =    -0.71922192   -0.02687876    0.46724784
     atom    7 type  3   force =     1.12135590   -0.21173885   -0.69191709
     atom    8 type  3   force =    -0.79049409    0.03021375   -0.34666517
     atom    9 type  3   force =     0.74273009    0.06002675   -0.39998926
     atom   10 type  3   force =    -0.93028114   -0.17848981   -0.61024526

     Total force =     3.194525     Total SCF correction =     0.002082

     Writing output data file ./tmp/pwscf.save/

     init_run     :      3.22s CPU      3.37s WALL (       1 calls)
     electrons    :     34.23s CPU     29.14s WALL (       1 calls)
     forces       :      1.33s CPU      1.40s WALL (       1 calls)

     Called by init_run:
     wfcinit      :      0.14s CPU      0.12s WALL (       1 calls)
     potinit      :      0.54s CPU      0.56s WALL (       1 calls)
     hinit0       :      2.18s CPU      2.23s WALL (       1 calls)

     Called by electrons:
     c_bands      :      7.15s CPU      5.34s WALL (      19 calls)
     sum_band     :     14.96s CPU      9.35s WALL (      19 calls)
     v_of_rho     :      2.79s CPU      3.15s WALL (      20 calls)
     newd         :      5.16s CPU      6.60s WALL (      20 calls)
     mix_rho      :      0.31s CPU      0.38s WALL (      19 calls)

     Called by c_bands:
     init_us_2    :      0.08s CPU      0.08s WALL (      39 calls)
     regterg      :      6.75s CPU      4.94s WALL (      19 calls)

     Called by *egterg:
     rdiaghg      :      0.28s CPU      0.28s WALL (      60 calls)
     h_psi        :      4.58s CPU      4.03s WALL (      61 calls)
     s_psi        :      0.57s CPU      0.06s WALL (      61 calls)
     g_psi        :      0.02s CPU      0.02s WALL (      41 calls)

     Called by h_psi:
     h_psi:calbec :      0.24s CPU      0.21s WALL (      61 calls)
     vloc_psi     :      3.62s CPU      3.64s WALL (      61 calls)
     add_vuspsi   :      0.70s CPU      0.15s WALL (      61 calls)

     General routines
     calbec       :      0.34s CPU      0.32s WALL (      84 calls)
     fft          :      2.65s CPU      2.84s WALL (     306 calls)
     ffts         :      0.07s CPU      0.07s WALL (      39 calls)
     fftw         :      3.78s CPU      3.82s WALL (    4182 calls)
     interpolate  :      0.17s CPU      0.18s WALL (      20 calls)

     Parallel routines
     fft_scatt_xy :      0.14s CPU      0.14s WALL (      76 calls)
     fft_scatt_yz :      0.19s CPU      0.20s WALL (      76 calls)

     Environ routines
     calc_eelect  :      0.04s CPU      0.04s WALL (      38 calls)
     calc_velect  :      1.77s CPU      2.12s WALL (      36 calls)
     calc_felect  :      0.23s CPU      0.24s WALL (       1 calls)

     PWSCF        :     38.90s CPU     34.09s WALL


   This run was terminated on:  12:45:19  18Mar2021            

=------------------------------------------------------------------------------=
   JOB DONE.
=------------------------------------------------------------------------------=
