
     Program PWSCF v.6.7MaX starts on 18Mar2021 at 12:26:34 

     This program is part of the open-source Quantum ESPRESSO suite
     for quantum simulation of materials; please cite
         "P. Giannozzi et al., J. Phys.:Condens. Matter 21 395502 (2009);
         "P. Giannozzi et al., J. Phys.:Condens. Matter 29 465901 (2017);
          URL http://www.quantum-espresso.org", 
     in publications or presentations arising from this work. More details at
     http://www.quantum-espresso.org/quote

     Parallel version (MPI), running on     1 processors

     MPI processes distributed on     1 nodes
     Waiting for input...
     Reading input from standard input

     Current dimensions of program PWSCF are:
     Max number of different atomic species (ntypx) = 10
     Max number of k-points (npk) =  40000
     Max angular momentum in pseudopotentials (lmaxx) =  3
     file C.pbe-rrkjus.UPF: wavefunction(s)  2S 2P renormalized
     file O.pbe-rrkjus.UPF: wavefunction(s)  2S renormalized

     gamma-point specific algorithms are used

     Subspace diagonalization in iterative solution of the eigenvalue problem:
     a serial algorithm will be used


     G-vector sticks info
     --------------------
     sticks:   dense  smooth     PW     G-vecs:    dense   smooth      PW
     Sum        2357    1099    269               185577    58999    7345



     bravais-lattice index     =            8
     lattice parameter (alat)  =      10.6881  a.u.
     unit-cell volume          =    2114.7642 (a.u.)^3
     number of atoms/cell      =           10
     number of atomic types    =            3
     number of electrons       =        89.00
     number of Kohn-Sham states=           80
     kinetic-energy cutoff     =      35.0000  Ry
     charge density cutoff     =     300.0000  Ry
     scf convergence threshold =      5.0E-06
     mixing beta               =       0.7000
     number of iterations used =            8  plain     mixing
     Exchange-correlation= PBE
                           (   1   4   3   4   0   0   0)


     Environ Module
     ==============

     Plese cite
         O. Andreussi, I. Dabo and N. Marzari, J. Chem. Phys. 136, 064102 (2012)         
     in publications or presentations arising from this work.

     compensation onset threshold      =               0.1000E+03 

     Electrostatic Setup
     -------------------
     electrostatic problem to solve    = poisson                  
     numerical solver adopted          = direct                   
     type of auxiliary density adopted = none                     
     type of core tool for poisson     = fft                      



     celldm(1)=  10.688100  celldm(2)=   0.866025  celldm(3)=   2.000000
     celldm(4)=   0.000000  celldm(5)=   0.000000  celldm(6)=   0.000000

     crystal axes: (cart. coord. in units of alat)
               a(1) = (   1.000000   0.000000   0.000000 )  
               a(2) = (   0.000000   0.866025   0.000000 )  
               a(3) = (   0.000000   0.000000   2.000000 )  

     reciprocal axes: (cart. coord. in units 2 pi/alat)
               b(1) = (  1.000000  0.000000  0.000000 )  
               b(2) = (  0.000000  1.154701  0.000000 )  
               b(3) = (  0.000000  0.000000  0.500000 )  


     PseudoPot. # 1 for C  read from file:
     ../../../pseudo/C.pbe-rrkjus.UPF
     MD5 check sum: c9ac5a99bc85b198593446162950cd17
     Pseudo is Ultrasoft, Zval =  4.0
     Generated by new atomic code, or converted to UPF format
     Using radial grid of  627 points,  4 beta functions with: 
                l(1) =   0
                l(2) =   0
                l(3) =   1
                l(4) =   1
     Q(r) pseudized with 0 coefficients 


     PseudoPot. # 2 for O  read from file:
     ../../../pseudo/O.pbe-rrkjus.UPF
     MD5 check sum: fadcf19ee70a498d3030e2e79cf929a4
     Pseudo is Ultrasoft, Zval =  6.0
     Generated by new atomic code, or converted to UPF format
     Using radial grid of 1269 points,  4 beta functions with: 
                l(1) =   0
                l(2) =   0
                l(3) =   1
                l(4) =   1
     Q(r) pseudized with 0 coefficients 


     PseudoPot. # 3 for Pt read from file:
     ../../../pseudo/Pt.pbe-n-rrkjus_psl.0.1.UPF
     MD5 check sum: 957548fe13c2a9232dd96292d902c87c
     Pseudo is Ultrasoft + core correction, Zval = 10.0
     Generated using "atomic" code by A. Dal Corso  v.5.0.2 svn rev. 9415
     Using radial grid of 1277 points,  6 beta functions with: 
                l(1) =   0
                l(2) =   0
                l(3) =   1
                l(4) =   1
                l(5) =   2
                l(6) =   2
     Q(r) pseudized with 0 coefficients 


     atomic species   valence    mass     pseudopotential
        C              4.00     1.00000     C ( 1.00)
        O              6.00     1.00000     O ( 1.00)
        Pt            10.00     1.00000     Pt( 1.00)

     No symmetry found



   Cartesian axes

     site n.     atom                  positions (alat units)
         1           C   tau(   1) = (   0.4991611   0.4347567   0.7762281  )
         2           O   tau(   2) = (   0.4991542   0.4322212   0.9800832  )
         3           Pt  tau(   3) = (   0.7542339   0.0091745   0.4105048  )
         4           Pt  tau(   4) = (   0.2441023   0.0091745   0.4105046  )
         5           Pt  tau(   5) = (   0.0000034   0.4416918   0.4083168  )
         6           Pt  tau(   6) = (   0.4991682   0.4417635   0.4468119  )
         7           Pt  tau(   7) = (   0.0000038   0.7300598   0.0000000  )
         8           Pt  tau(   8) = (   0.4991683   0.7202168   0.0139279  )
         9           Pt  tau(   9) = (   0.2524172   0.2949237   0.0078392  )
        10           Pt  tau(  10) = (   0.7459196   0.2949237   0.0078394  )

     number of k points=     1  Marzari-Vanderbilt smearing, width (Ry)=  0.0300
                       cart. coord. in units 2pi/alat
        k(    1) = (   0.0000000   0.0000000   0.0000000), wk =   2.0000000

     Dense  grid:    92789 G-vectors     FFT dimensions: (  60,  54, 120)

     Smooth grid:    29500 G-vectors     FFT dimensions: (  45,  36,  81)

     Estimated max dynamical RAM per process >     383.41 MB

     Initial potential from superposition of free atoms

     starting charge   89.99859, renormalised to   89.00000

     negative rho (up, down):  1.324E-05 0.000E+00
     Starting wfcs are   80 randomized atomic wfcs

     total cpu time spent up to now is        3.3 secs

     Self-consistent Calculation

     iteration #  1     ecut=    35.00 Ry     beta= 0.70
     Davidson diagonalization with overlap
     ethr =  1.00E-02,  avg # of iterations =  6.0

     negative rho (up, down):  6.609E-05 0.000E+00

     add environment contribution to local potential

     total cpu time spent up to now is        4.8 secs

     total energy              =    -623.83365836 Ry
     estimated scf accuracy    <       1.02525414 Ry
     electrostatic embedding   =       0.06684985 Ry
     correction to one-el term =      -0.00000000 Ry

     iteration #  2     ecut=    35.00 Ry     beta= 0.70
     Davidson diagonalization with overlap
     ethr =  1.15E-03,  avg # of iterations =  9.0

     negative rho (up, down):  3.498E-03 0.000E+00

     add environment contribution to local potential

     total cpu time spent up to now is        6.4 secs

     total energy              =    -618.06165987 Ry
     estimated scf accuracy    <      20.83309917 Ry
     electrostatic embedding   =       6.93749373 Ry
     correction to one-el term =      23.25481172 Ry

     iteration #  3     ecut=    35.00 Ry     beta= 0.70
     Davidson diagonalization with overlap
     ethr =  1.15E-03,  avg # of iterations =  2.0

     negative rho (up, down):  2.558E-03 0.000E+00

     add environment contribution to local potential

     total cpu time spent up to now is        7.9 secs

     total energy              =    -618.88980783 Ry
     estimated scf accuracy    <       3.72743837 Ry
     electrostatic embedding   =       6.57186436 Ry
     correction to one-el term =      22.73232258 Ry

     iteration #  4     ecut=    35.00 Ry     beta= 0.70
     Davidson diagonalization with overlap
     ethr =  1.15E-03,  avg # of iterations =  1.0

     negative rho (up, down):  2.353E-03 0.000E+00

     add environment contribution to local potential

     total cpu time spent up to now is        9.2 secs

     total energy              =    -618.67422196 Ry
     estimated scf accuracy    <       2.60691294 Ry
     electrostatic embedding   =       6.05852083 Ry
     correction to one-el term =      21.46639398 Ry

     iteration #  5     ecut=    35.00 Ry     beta= 0.70
     Davidson diagonalization with overlap
     ethr =  1.15E-03,  avg # of iterations =  1.0

     negative rho (up, down):  1.893E-03 0.000E+00

     add environment contribution to local potential

     total cpu time spent up to now is       10.6 secs

     total energy              =    -618.92844486 Ry
     estimated scf accuracy    <       1.63132382 Ry
     electrostatic embedding   =       5.85266443 Ry
     correction to one-el term =      19.30821686 Ry

     iteration #  6     ecut=    35.00 Ry     beta= 0.70
     Davidson diagonalization with overlap
     ethr =  1.15E-03,  avg # of iterations =  1.0

     negative rho (up, down):  1.517E-03 0.000E+00

     add environment contribution to local potential

     total cpu time spent up to now is       12.0 secs

     total energy              =    -618.73079309 Ry
     estimated scf accuracy    <       2.66251222 Ry
     electrostatic embedding   =       5.52515286 Ry
     correction to one-el term =      17.65754858 Ry

     iteration #  7     ecut=    35.00 Ry     beta= 0.70
     Davidson diagonalization with overlap
     ethr =  1.15E-03,  avg # of iterations =  1.0

     negative rho (up, down):  9.494E-04 0.000E+00

     add environment contribution to local potential

     total cpu time spent up to now is       13.3 secs

     total energy              =    -618.73619162 Ry
     estimated scf accuracy    <       1.38649286 Ry
     electrostatic embedding   =       5.08282750 Ry
     correction to one-el term =      16.49830516 Ry

     iteration #  8     ecut=    35.00 Ry     beta= 0.70
     Davidson diagonalization with overlap
     ethr =  1.15E-03,  avg # of iterations =  1.0

     negative rho (up, down):  6.057E-04 0.000E+00

     add environment contribution to local potential

     total cpu time spent up to now is       14.7 secs

     total energy              =    -618.82893626 Ry
     estimated scf accuracy    <       0.79691853 Ry
     electrostatic embedding   =       4.71206332 Ry
     correction to one-el term =      16.25834179 Ry

     iteration #  9     ecut=    35.00 Ry     beta= 0.70
     Davidson diagonalization with overlap
     ethr =  8.95E-04,  avg # of iterations =  1.0

     negative rho (up, down):  2.908E-04 0.000E+00

     add environment contribution to local potential

     total cpu time spent up to now is       16.1 secs

     total energy              =    -618.85949144 Ry
     estimated scf accuracy    <       0.27353506 Ry
     electrostatic embedding   =       4.68814849 Ry
     correction to one-el term =      15.90291638 Ry

     iteration # 10     ecut=    35.00 Ry     beta= 0.70
     Davidson diagonalization with overlap
     ethr =  3.07E-04,  avg # of iterations =  1.0

     negative rho (up, down):  2.236E-04 0.000E+00

     add environment contribution to local potential

     total cpu time spent up to now is       17.5 secs

     total energy              =    -618.86208087 Ry
     estimated scf accuracy    <       0.08365509 Ry
     electrostatic embedding   =       4.62245977 Ry
     correction to one-el term =      15.82170192 Ry

     iteration # 11     ecut=    35.00 Ry     beta= 0.70
     Davidson diagonalization with overlap
     ethr =  9.40E-05,  avg # of iterations =  1.0

     negative rho (up, down):  2.261E-04 0.000E+00

     add environment contribution to local potential

     total cpu time spent up to now is       18.9 secs

     total energy              =    -618.86287282 Ry
     estimated scf accuracy    <       0.03271617 Ry
     electrostatic embedding   =       4.59097768 Ry
     correction to one-el term =      15.82005312 Ry

     iteration # 12     ecut=    35.00 Ry     beta= 0.70
     Davidson diagonalization with overlap
     ethr =  3.68E-05,  avg # of iterations =  2.0

     negative rho (up, down):  2.418E-04 0.000E+00

     add environment contribution to local potential

     total cpu time spent up to now is       20.3 secs

     total energy              =    -618.86303727 Ry
     estimated scf accuracy    <       0.02520183 Ry
     electrostatic embedding   =       4.57218458 Ry
     correction to one-el term =      15.78765556 Ry

     iteration # 13     ecut=    35.00 Ry     beta= 0.70
     Davidson diagonalization with overlap
     ethr =  2.83E-05,  avg # of iterations =  1.0

     negative rho (up, down):  2.016E-04 0.000E+00

     add environment contribution to local potential

     total cpu time spent up to now is       21.7 secs

     total energy              =    -618.86539016 Ry
     estimated scf accuracy    <       0.00552458 Ry
     electrostatic embedding   =       4.57748101 Ry
     correction to one-el term =      15.85235044 Ry

     iteration # 14     ecut=    35.00 Ry     beta= 0.70
     Davidson diagonalization with overlap
     ethr =  6.21E-06,  avg # of iterations = 10.0

     negative rho (up, down):  2.039E-04 0.000E+00

     add environment contribution to local potential

     total cpu time spent up to now is       23.1 secs

     total energy              =    -618.86541053 Ry
     estimated scf accuracy    <       0.00458675 Ry
     electrostatic embedding   =       4.56857615 Ry
     correction to one-el term =      15.87248834 Ry

     iteration # 15     ecut=    35.00 Ry     beta= 0.70
     Davidson diagonalization with overlap
     ethr =  5.15E-06,  avg # of iterations =  1.0

     negative rho (up, down):  2.006E-04 0.000E+00

     add environment contribution to local potential

     total cpu time spent up to now is       24.5 secs

     total energy              =    -618.86579883 Ry
     estimated scf accuracy    <       0.00016203 Ry
     electrostatic embedding   =       4.56344442 Ry
     correction to one-el term =      15.86892138 Ry

     iteration # 16     ecut=    35.00 Ry     beta= 0.70
     Davidson diagonalization with overlap
     ethr =  1.82E-07,  avg # of iterations =  2.0

     negative rho (up, down):  2.011E-04 0.000E+00

     add environment contribution to local potential

     total cpu time spent up to now is       25.9 secs

     total energy              =    -618.86580163 Ry
     estimated scf accuracy    <       0.00014291 Ry
     electrostatic embedding   =       4.56267807 Ry
     correction to one-el term =      15.85933805 Ry

     iteration # 17     ecut=    35.00 Ry     beta= 0.70
     Davidson diagonalization with overlap
     ethr =  1.61E-07,  avg # of iterations =  1.0

     negative rho (up, down):  2.010E-04 0.000E+00

     add environment contribution to local potential

     total cpu time spent up to now is       27.3 secs

     total energy              =    -618.86581628 Ry
     estimated scf accuracy    <       0.00015189 Ry
     electrostatic embedding   =       4.56214483 Ry
     correction to one-el term =      15.88658166 Ry

     iteration # 18     ecut=    35.00 Ry     beta= 0.70
     Davidson diagonalization with overlap
     ethr =  1.61E-07,  avg # of iterations =  1.0

     negative rho (up, down):  2.014E-04 0.000E+00

     add environment contribution to local potential

     total cpu time spent up to now is       28.7 secs

     total energy              =    -618.86582510 Ry
     estimated scf accuracy    <       0.00003395 Ry
     electrostatic embedding   =       4.56217656 Ry
     correction to one-el term =      15.87799378 Ry

     iteration # 19     ecut=    35.00 Ry     beta= 0.70
     Davidson diagonalization with overlap
     ethr =  3.81E-08,  avg # of iterations =  1.0

     negative rho (up, down):  2.014E-04 0.000E+00

     add environment contribution to local potential

     total cpu time spent up to now is       30.0 secs

     total energy              =    -618.86582790 Ry
     estimated scf accuracy    <       0.00001703 Ry
     electrostatic embedding   =       4.56190993 Ry
     correction to one-el term =      15.87255431 Ry

     iteration # 20     ecut=    35.00 Ry     beta= 0.70
     Davidson diagonalization with overlap
     ethr =  1.91E-08,  avg # of iterations =  1.0

     negative rho (up, down):  2.015E-04 0.000E+00

     add environment contribution to local potential

     total cpu time spent up to now is       31.4 secs

     total energy              =    -618.86582952 Ry
     estimated scf accuracy    <       0.00000505 Ry
     electrostatic embedding   =       4.56168343 Ry
     correction to one-el term =      15.87497876 Ry

     iteration # 21     ecut=    35.00 Ry     beta= 0.70
     Davidson diagonalization with overlap
     ethr =  5.67E-09,  avg # of iterations =  1.0

     negative rho (up, down):  2.015E-04 0.000E+00

     the potential shift due to the Gaussian-smeared nuclei is    -0.3032 ev

     total cpu time spent up to now is       32.7 secs

     End of self-consistent calculation

          k = 0.0000 0.0000 0.0000 (  3673 PWs)   bands (ev):

   -23.1188  -9.1938  -6.8157  -6.2814  -5.9036  -5.8741  -5.0150  -4.2721
    -4.0128  -3.9074  -3.7988  -3.4750  -3.4090  -3.3816  -3.3528  -3.2068
    -2.6409  -2.5183  -2.4980  -2.2988  -2.2549  -2.2220  -2.1759  -2.0847
    -1.9509  -1.8092  -1.7641  -1.6508  -1.4820  -1.3892  -1.3201  -0.8434
    -0.7083  -0.6328  -0.3743  -0.2919  -0.1755  -0.1267   0.1110   0.3217
     0.5218   0.6292   0.8250   0.9085   1.0399   1.1010   1.3524   2.4725
     3.1308   3.4227   3.8533   3.9243   4.9051   4.9194   5.5100   6.1977
     6.5630   6.9298   7.3819   7.8308   8.7392   9.0683   9.4135   9.9360
    10.3535  10.5381  11.2190  11.4787  11.5763  11.7774  12.1353  12.4199
    12.5017  12.5931  12.7741  13.1208  13.3415  13.6609  13.8262  14.2991

     the Fermi energy is     1.0547 ev

!    total energy              =    -618.86582927 Ry
     estimated scf accuracy    <       0.00000090 Ry
     smearing contrib. (-TS)   =      -0.00651835 Ry
     internal energy E=F+TS    =    -618.85931092 Ry

     The total energy is F=E-TS. E is the sum of the following terms:
     one-electron contribution =    -890.24749247 Ry
     hartree contribution      =     500.67677733 Ry
     xc contribution           =    -263.80820289 Ry
     ewald contribution        =      14.08538298 Ry
     electrostatic embedding   =       4.56158039 Ry
     correction to one-el term =      15.87264374 Ry

     convergence has been achieved in  21 iterations

     negative rho (up, down):  2.015E-04 0.000E+00
 forces lc
       1   -0.0000    0.0000   -0.0000
       2    0.0000   -0.0000   -0.0000
       3    0.0000   -0.0000    0.0000
       4   -0.6957   -0.0756    0.0647
       5    0.2287   -0.0830    0.4178
       6   -0.0001   -0.0000    0.0000
       7    0.1436    0.2106   -0.2853
       8   -0.0000    0.0000   -0.0000
       9   -0.0690    0.0126   -0.0026
      10    0.0000    0.0000   -0.0000

     Forces acting on atoms (cartesian axes, Ry/au):

     atom    1 type  1   force =     0.05100615   -0.00888243   -0.04195485
     atom    2 type  2   force =     0.23026076   -0.00282645   -0.19661819
     atom    3 type  3   force =    -1.33395607    0.17414571    0.52028109
     atom    4 type  3   force =     0.22777828   -0.12118507    0.22308867
     atom    5 type  3   force =     1.14051041    0.10157986    0.84760306
     atom    6 type  3   force =    -0.61459884   -0.03604128    0.28949296
     atom    7 type  3   force =     1.08052329   -0.04524372   -0.64714003
     atom    8 type  3   force =    -0.62974378    0.01385934   -0.24402996
     atom    9 type  3   force =     0.74919109    0.09178619   -0.20143257
     atom   10 type  3   force =    -0.90097127   -0.16719214   -0.54929016

     Total force =     2.929449     Total SCF correction =     0.002331

     Writing output data file ./tmp/pwscf.save/

     init_run     :      3.05s CPU      3.17s WALL (       1 calls)
     electrons    :     36.75s CPU     29.43s WALL (       1 calls)
     forces       :      1.23s CPU      1.32s WALL (       1 calls)

     Called by init_run:
     wfcinit      :      0.14s CPU      0.12s WALL (       1 calls)
     potinit      :      0.56s CPU      0.58s WALL (       1 calls)
     hinit0       :      2.01s CPU      2.05s WALL (       1 calls)

     Called by electrons:
     c_bands      :      7.35s CPU      5.37s WALL (      21 calls)
     sum_band     :     17.06s CPU      9.45s WALL (      21 calls)
     v_of_rho     :      2.80s CPU      3.16s WALL (      22 calls)
     newd         :      5.31s CPU      6.75s WALL (      22 calls)
     mix_rho      :      0.33s CPU      0.40s WALL (      21 calls)

     Called by c_bands:
     init_us_2    :      0.09s CPU      0.09s WALL (      43 calls)
     regterg      :      6.92s CPU      4.94s WALL (      21 calls)

     Called by *egterg:
     rdiaghg      :      0.30s CPU      0.30s WALL (      67 calls)
     h_psi        :      4.66s CPU      4.01s WALL (      68 calls)
     s_psi        :      0.62s CPU      0.05s WALL (      68 calls)
     g_psi        :      0.03s CPU      0.03s WALL (      46 calls)

     Called by h_psi:
     h_psi:calbec :      0.23s CPU      0.20s WALL (      68 calls)
     vloc_psi     :      3.61s CPU      3.63s WALL (      68 calls)
     add_vuspsi   :      0.80s CPU      0.16s WALL (      68 calls)

     General routines
     calbec       :      0.33s CPU      0.31s WALL (      93 calls)
     fft          :      2.60s CPU      2.76s WALL (     336 calls)
     ffts         :      0.07s CPU      0.07s WALL (      43 calls)
     fftw         :      3.79s CPU      3.80s WALL (    4588 calls)
     interpolate  :      0.16s CPU      0.18s WALL (      22 calls)

     Parallel routines
     fft_scatt_xy :      0.13s CPU      0.13s WALL (      84 calls)
     fft_scatt_yz :      0.19s CPU      0.19s WALL (      84 calls)

     Environ routines
     calc_eelect  :      0.04s CPU      0.04s WALL (      42 calls)
     calc_velect  :      1.76s CPU      2.06s WALL (      40 calls)
     calc_felect  :      0.20s CPU      0.22s WALL (       1 calls)

     PWSCF        :     41.15s CPU     34.07s WALL


   This run was terminated on:  12:27: 8  18Mar2021            

=------------------------------------------------------------------------------=
   JOB DONE.
=------------------------------------------------------------------------------=
