
     Program PWSCF v.6.1 (svn rev. 13369) starts on  4Oct2017 at 12:38:23 

     This program is part of the open-source Quantum ESPRESSO suite
     for quantum simulation of materials; please cite
         "P. Giannozzi et al., J. Phys.:Condens. Matter 21 395502 (2009);
          URL http://www.quantum-espresso.org", 
     in publications or presentations arising from this work. More details at
     http://www.quantum-espresso.org/quote

     Serial version
     Reading input from neutral.in

     Current dimensions of program PWSCF are:
     Max number of different atomic species (ntypx) = 10
     Max number of k-points (npk) =  40000
     Max angular momentum in pseudopotentials (lmaxx) =  3
               file H.pbe-rrkjus.UPF: wavefunction(s)  1S renormalized
               file O.pbe-rrkjus.UPF: wavefunction(s)  2S renormalized

     gamma-point specific algorithms are used

     G-vector sticks info
     --------------------
     sticks:   dense  smooth     PW     G-vecs:    dense   smooth      PW
     Sum        9549    3809    949               701475   177509   22119



     bravais-lattice index     =            1
     lattice parameter (alat)  =      20.0000  a.u.
     unit-cell volume          =    8000.0000 (a.u.)^3
     number of atoms/cell      =            3
     number of atomic types    =            2
     number of electrons       =         8.00
     number of Kohn-Sham states=            4
     kinetic-energy cutoff     =      30.0000  Ry
     charge density cutoff     =     300.0000  Ry
     convergence threshold     =      5.0E-03
     mixing beta               =       0.7000
     number of iterations used =            8  plain     mixing
     Exchange-correlation      =  SLA  PW   PBE  PBE ( 1  4  3  4 0 0)


     Environ Module
     ==============

     Plese cite
         O. Andreussi, I. Dabo and N. Marzari, J. Chem. Phys. 136, 064102 (2012)         
     in publications or presentations arising from this work.

     compensation onset threshold      =               0.1000E+03 
     static permittivity               =                   100.00 
     epsilon calculation mode          =               electronic 

     Electrostatic Setup
     -------------------
     electrostatic problem to solve    = generalized              
     numerical solver adopted          = cg                       
     type of auxiliary density adopted = none                     
     type of core tool for poisson     = fft                      
     type of core tool for s(r) deriv  = analytic                 



     celldm(1)=  20.000000  celldm(2)=   0.000000  celldm(3)=   0.000000
     celldm(4)=   0.000000  celldm(5)=   0.000000  celldm(6)=   0.000000

     crystal axes: (cart. coord. in units of alat)
               a(1) = (   1.000000   0.000000   0.000000 )  
               a(2) = (   0.000000   1.000000   0.000000 )  
               a(3) = (   0.000000   0.000000   1.000000 )  

     reciprocal axes: (cart. coord. in units 2 pi/alat)
               b(1) = (  1.000000  0.000000  0.000000 )  
               b(2) = (  0.000000  1.000000  0.000000 )  
               b(3) = (  0.000000  0.000000  1.000000 )  


     PseudoPot. # 1 for H  read from file:
     /Users/oliviero/PWSCF/espresso-6.1-Environ-1.0/Environ/tests/../..//pseudo/H.pbe-rrkjus.UPF
     MD5 check sum: 7cc9d459525c9a0585f487a71c3c9563
     Pseudo is Ultrasoft, Zval =  1.0
     Generated by new atomic code, or converted to UPF format
     Using radial grid of 1061 points,  2 beta functions with: 
                l(1) =   0
                l(2) =   0
     Q(r) pseudized with 0 coefficients 


     PseudoPot. # 2 for O  read from file:
     /Users/oliviero/PWSCF/espresso-6.1-Environ-1.0/Environ/tests/../..//pseudo/O.pbe-rrkjus.UPF
     MD5 check sum: 390ba29e75625707450f3bd3f0eb6be9
     Pseudo is Ultrasoft, Zval =  6.0
     Generated by new atomic code, or converted to UPF format
     Using radial grid of 1269 points,  4 beta functions with: 
                l(1) =   0
                l(2) =   0
                l(3) =   1
                l(4) =   1
     Q(r) pseudized with 0 coefficients 


     atomic species   valence    mass     pseudopotential
        H              1.00     1.00000     H ( 1.00)
        O              6.00    16.00000     O ( 1.00)

     No symmetry found



   Cartesian axes

     site n.     atom                  positions (alat units)
         1           O   tau(   1) = (   0.5895000   0.6025000   0.5750000  )
         2           H   tau(   2) = (   0.6725000   0.5610000   0.5750000  )
         3           H   tau(   3) = (   0.5280000   0.5330000   0.5750000  )

     number of k points=     1
                       cart. coord. in units 2pi/alat
        k(    1) = (   0.0000000   0.0000000   0.0000000), wk =   2.0000000

     Dense  grid:   350738 G-vectors     FFT dimensions: ( 120, 120, 120)

     Smooth grid:    88755 G-vectors     FFT dimensions: (  72,  72,  72)

     Estimated max dynamical RAM per process >     270.62MB

     Initial potential from superposition of free atoms
     Check: negative starting charge=   -0.000775

     starting charge    7.80759, renormalised to    8.00000

     negative rho (up, down):  7.936E-04 0.000E+00
     Starting wfc are    6 randomized atomic wfcs

     total cpu time spent up to now is       12.6 secs

     Self-consistent Calculation

     iteration #  1     ecut=    30.00 Ry     beta=0.70
     Davidson diagonalization with overlap
     ethr =  1.00E-02,  avg # of iterations =  2.0

     negative rho (up, down):  2.595E-04 0.000E+00

     add environment contribution to local potential
     polarization accuracy = 1.7E-05, # of iterations =  11

     total cpu time spent up to now is       33.2 secs

     total energy              =     -34.06236055 Ry
     Harris-Foulkes estimate   =     -34.58697711 Ry
     estimated scf accuracy    <       0.68458994 Ry
     electrostatic embedding   =       0.00000000 Ry
     correction to one-el term =       0.00000000 Ry

     iteration #  2     ecut=    30.00 Ry     beta=0.70
     Davidson diagonalization with overlap
     ethr =  8.56E-03,  avg # of iterations =  2.0

     negative rho (up, down):  2.656E-03 0.000E+00

     add environment contribution to local potential
     polarization accuracy = 8.0E-05, # of iterations =  11

     total cpu time spent up to now is       56.6 secs

     total energy              =     -34.21519700 Ry
     Harris-Foulkes estimate   =     -34.01912714 Ry
     estimated scf accuracy    <       0.35510953 Ry
     electrostatic embedding   =      -0.03411509 Ry
     correction to one-el term =      -0.34498399 Ry

     iteration #  3     ecut=    30.00 Ry     beta=0.70
     Davidson diagonalization with overlap
     ethr =  4.44E-03,  avg # of iterations =  2.0

     negative rho (up, down):  2.207E-04 0.000E+00

     add environment contribution to local potential
     polarization accuracy = 5.9E-05, # of iterations =  11

     total cpu time spent up to now is       79.4 secs

     total energy              =     -34.28765410 Ry
     Harris-Foulkes estimate   =     -34.04879842 Ry
     estimated scf accuracy    <       0.01535046 Ry
     electrostatic embedding   =      -0.02910746 Ry
     correction to one-el term =      -0.21838318 Ry

     iteration #  4     ecut=    30.00 Ry     beta=0.70
     Davidson diagonalization with overlap
     ethr =  1.92E-04,  avg # of iterations =  2.0

     negative rho (up, down):  2.142E-04 0.000E+00

     total cpu time spent up to now is       83.6 secs

     End of self-consistent calculation

          k = 0.0000 0.0000 0.0000 ( 11060 PWs)   bands (ev):

   -24.6222 -12.3957  -8.8496  -6.8799

     highest occupied level (ev):    -6.8799

!    total energy              =     -34.29561104 Ry
     Harris-Foulkes estimate   =     -34.21932253 Ry
     estimated scf accuracy    <       0.00017532 Ry

     The total energy is the sum of the following terms:

     one-electron contribution =     -63.83961451 Ry
     hartree contribution      =      33.45960993 Ry
     xc contribution           =      -8.39663627 Ry
     ewald contribution        =       4.55735774 Ry
     electrostatic embedding   =      -0.03348342 Ry
     correction to one-el term =      -0.04284452 Ry

     convergence has been achieved in   4 iterations

     Forces acting on atoms (cartesian axes, Ry/au):

     atom    1 type  2   force =     0.00177590   -0.00927416   -0.00001159
     atom    2 type  1   force =    -0.00842366    0.00315610    0.00000551
     atom    3 type  1   force =     0.00664777    0.00611806    0.00000608

     Total force =     0.015865     Total SCF correction =     0.023121
     SCF correction compared to forces is large: reduce conv_thr to get better values

     Writing output data file pwscf.save

     init_run     :     11.77s CPU     12.47s WALL (       1 calls)
     electrons    :     65.76s CPU     71.24s WALL (       1 calls)
     forces       :      2.92s CPU      3.17s WALL (       1 calls)

     Called by init_run:
     wfcinit      :      0.08s CPU      0.09s WALL (       1 calls)
     potinit      :      1.78s CPU      1.96s WALL (       1 calls)

     Called by electrons:
     c_bands      :      0.59s CPU      0.66s WALL (       4 calls)
     sum_band     :      3.23s CPU      3.57s WALL (       4 calls)
     v_of_rho     :      6.74s CPU      7.55s WALL (       5 calls)
     newd         :      1.72s CPU      2.44s WALL (       5 calls)
     mix_rho      :      0.55s CPU      0.64s WALL (       4 calls)

     Called by c_bands:
     init_us_2    :      0.04s CPU      0.06s WALL (       9 calls)
     regterg      :      0.56s CPU      0.60s WALL (       4 calls)

     Called by sum_band:
     sum_band:bec :      0.00s CPU      0.00s WALL (       4 calls)
     addusdens    :      2.06s CPU      2.33s WALL (       4 calls)

     Called by *egterg:
     h_psi        :      0.56s CPU      0.59s WALL (      13 calls)
     s_psi        :      0.01s CPU      0.01s WALL (      13 calls)
     g_psi        :      0.01s CPU      0.01s WALL (       8 calls)
     rdiaghg      :      0.00s CPU      0.00s WALL (      12 calls)

     Called by h_psi:
     h_psi:pot    :      0.56s CPU      0.58s WALL (      13 calls)
     h_psi:calbec :      0.01s CPU      0.01s WALL (      13 calls)
     vloc_psi     :      0.54s CPU      0.57s WALL (      13 calls)
     add_vuspsi   :      0.01s CPU      0.01s WALL (      13 calls)

     General routines
     calbec       :      0.01s CPU      0.01s WALL (      21 calls)
     fft          :     12.76s CPU     13.29s WALL (     195 calls)
     ffts         :      0.10s CPU      0.10s WALL (       9 calls)
     fftw         :      0.44s CPU      0.46s WALL (      62 calls)
     interpolate  :      0.82s CPU      0.92s WALL (       9 calls)
     davcio       :      0.00s CPU      0.00s WALL (       1 calls)


     Environ routines
     calc_eelect  :      0.02s CPU      0.02s WALL (       8 calls)
     calc_velect  :     48.08s CPU     50.92s WALL (       6 calls)
     dielectric   :      0.44s CPU      0.56s WALL (       5 calls)
     calc_felect  :      1.72s CPU      1.80s WALL (       1 calls)

     PWSCF        :  1m20.65s CPU     1m27.81s WALL


   This run was terminated on:  12:39:51   4Oct2017            

=------------------------------------------------------------------------------=
   JOB DONE.
=------------------------------------------------------------------------------=

%%%% IONS %%%%%%%%%%%%%%%%%%%%%%%%%%%%%%%%%%%%%%%%%%%%%%%%%%%%%%%%%%%%%%%%%%%%%%
 number of ions             =          3
 ionic center of charge     =      0.5921875     0.5886250     0.5750000
 total ionic charge         =     -8.0000000
 ionic dipole               =      0.0000000     0.0000000     0.0000000
 ionic quadrupole (pc)      =     -4.2453875    -2.0049500     0.0000000
 ionic quadrupole (gauss)   =     -5.2453875    -3.0049500    -1.0000000
 ion   1 type =  2 coordinates =     11.7900000    12.0500000    11.5000000
 ion   2 type =  1 coordinates =     13.4500000    11.2200000    11.5000000
 ion   3 type =  1 coordinates =     10.5600000    10.6600000    11.5000000

%%%% SYSTEM %%%%%%%%%%%%%%%%%%%%%%%%%%%%%%%%%%%%%%%%%%%%%%%%%%%%%%%%%%%%%%%%%%%%
 system is built from all present ionic types
 system defined dimension   =  0 
 system defined axis        =  3 
 system center              =      0.5921875     0.5886250     0.5750000 
 system width               =      0.1209428 

%%%% ELECTRONS %%%%%%%%%%%%%%%%%%%%%%%%%%%%%%%%%%%%%%%%%%%%%%%%%%%%%%%%%%%%%%%%%
 number of electrons        =          8
 total electronic charge    =      8.0000000
 number of spin components  =  1

%%%% BOUNDARY %%%%%%%%%%%%%%%%%%%%%%%%%%%%%%%%%%%%%%%%%%%%%%%%%%%%%%%%%%%%%%%%%%
 boundary mode              = electronic           
 boundary is built as a function of a smooth density
 function type              =  2 
 using the modified SCCS function with parameters 
 rhomax                     =      0.0050000 
 rhomin                     =      0.0001000 

%%%% DIELECTRIC %%%%%%%%%%%%%%%%%%%%%%%%%%%%%%%%%%%%%%%%%%%%%%%%%%%%%%%%%%%%%%%%%
 dielectric build on homogeneous background
 environment bulk permitt.  =    100.0000000 
 dielectric flags
 need gradient              =  F 
 need factor depend. sqrt   =  T 
 need gradient of logarithm =  T 

%%%% COMPUTE ELECTROSTATIC POTENTIAL %%%%%%%%%%%%%%%%%%%%%%%%%%%%%%%%%%%%%%%%%%%
 Iteration #          1
  pAp =  27.330520814641222  rzold =  26.186963186836945  alpha =  0.9581582204173854
 delta_qm =   0.131445E-01 delta_en =   0.298560E+03 tol =   0.100000E-03
 Iteration #          2
  pAp =  203.0054646792788  rzold =  13.22296277619147  alpha =  0.06513599423090391
 delta_qm =   0.495900E-02 delta_en =   0.424945E+02 tol =   0.100000E-03
 Iteration #          3
  pAp =  4.922454793481071  rzold =  0.7579893537644041  alpha =  0.15398604671153673
 delta_qm =   0.919245E-03 delta_en =   0.146018E+01 tol =   0.100000E-03
 Iteration #          4
  pAp =  0.0541668921632132  rzold =  0.014046861425654993  alpha =  0.2593255928977729
 delta_qm =   0.439442E-03 delta_en =   0.333693E+00 tol =   0.100000E-03
 Iteration #          5
  pAp =  0.0013531842185862046  rzold =  0.0008059416156455005  alpha =  0.5955889852806158
 delta_qm =   0.111637E-03 delta_en =   0.215357E-01 tol =   0.100000E-03
 Iteration #          6
  pAp =  0.00027091139694702027  rzold =  0.00010255951816926388  alpha =  0.3785721801483329
 delta_qm =   0.483799E-04 delta_en =   0.404459E-02 tol =   0.100000E-03
 Iteration #          7
  pAp =  0.0000048880747431066756  rzold =  0.0000040903768874096585  alpha =  0.8368073530745501
 delta_qm =   0.313395E-04 delta_en =   0.169718E-02 tol =   0.100000E-03
 Iteration #          8
  pAp =  0.000007416636172241948  rzold =  0.000003366083773817312  alpha =  0.4538558580526663
 delta_qm =   0.240126E-04 delta_en =   0.996373E-03 tol =   0.100000E-03
 Iteration #          9
  pAp =  0.000006964145249401521  rzold =  0.000002897747611598841  alpha =  0.41609522889372036
 delta_qm =   0.182038E-04 delta_en =   0.572620E-03 tol =   0.100000E-03
 Iteration #         10
  pAp =  0.000002663457123838377  rzold =  0.0000010687024049408493  alpha =  0.4012463333371459
 delta_qm =   0.114022E-04 delta_en =   0.224658E-03 tol =   0.100000E-03
 Iteration #         11
  pAp =  3.846969099095346E-7  rzold =  2.653564041193694E-7  alpha =  0.6897804408716739
 delta_qm =   0.317659E-05 delta_en =   0.174368E-04 tol =   0.100000E-03
 Charges are converged, exit!

%%%% ELECTRONS %%%%%%%%%%%%%%%%%%%%%%%%%%%%%%%%%%%%%%%%%%%%%%%%%%%%%%%%%%%%%%%%%
 number of electrons        =          8
 total electronic charge    =      8.0000000
 number of spin components  =  1

%%%% BOUNDARY %%%%%%%%%%%%%%%%%%%%%%%%%%%%%%%%%%%%%%%%%%%%%%%%%%%%%%%%%%%%%%%%%%
 boundary mode              = electronic           
 boundary is built as a function of a smooth density
 function type              =  2 
 using the modified SCCS function with parameters 
 rhomax                     =      0.0050000 
 rhomin                     =      0.0001000 

%%%% DIELECTRIC %%%%%%%%%%%%%%%%%%%%%%%%%%%%%%%%%%%%%%%%%%%%%%%%%%%%%%%%%%%%%%%%%
 dielectric build on homogeneous background
 environment bulk permitt.  =    100.0000000 
 dielectric flags
 need gradient              =  F 
 need factor depend. sqrt   =  T 
 need gradient of logarithm =  T 

%%%% COMPUTE ELECTROSTATIC POTENTIAL %%%%%%%%%%%%%%%%%%%%%%%%%%%%%%%%%%%%%%%%%%%
 Warning: bad guess with residual norm =   0.179118E+03, reset to no guess
 Iteration #          1
  pAp =  29.353402445786138  rzold =  28.544830197640707  alpha =  0.9724538833397998
 delta_qm =   0.167272E-01 delta_en =   0.483493E+03 tol =   0.100000E-03
 Iteration #          2
  pAp =  153.59101557873103  rzold =  9.674213989123725  alpha =  0.06298684823894993
 delta_qm =   0.599096E-02 delta_en =   0.620207E+02 tol =   0.100000E-03
 Iteration #          3
  pAp =  4.037261897436308  rzold =  0.6074385164476532  alpha =  0.1504580410880407
 delta_qm =   0.115981E-02 delta_en =   0.232443E+01 tol =   0.100000E-03
 Iteration #          4
  pAp =  0.052872358808739126  rzold =  0.012993420972976275  alpha =  0.24575073376201684
 delta_qm =   0.519366E-03 delta_en =   0.466112E+00 tol =   0.100000E-03
 Iteration #          5
  pAp =  0.0010854671051961874  rzold =  0.000658290174331573  alpha =  0.6064579674319965
 delta_qm =   0.134790E-03 delta_en =   0.313951E-01 tol =   0.100000E-03
 Iteration #          6
  pAp =  0.00023524994582314163  rzold =  0.00008126444229427923  alpha =  0.34543872905022033
 delta_qm =   0.830721E-04 delta_en =   0.119249E-01 tol =   0.100000E-03
 Iteration #          7
  pAp =  0.000008466080266428254  rzold =  0.000004558998193157867  alpha =  0.5385016500772273
 delta_qm =   0.597549E-04 delta_en =   0.617009E-02 tol =   0.100000E-03
 Iteration #          8
  pAp =  0.0000038077744325691144  rzold =  0.000002619586877087828  alpha =  0.6879574731847723
 delta_qm =   0.320935E-04 delta_en =   0.177983E-02 tol =   0.100000E-03
 Iteration #          9
  pAp =  0.0000033379802840749765  rzold =  0.0000014085496337932191  alpha =  0.42197661876950165
 delta_qm =   0.242730E-04 delta_en =   0.101810E-02 tol =   0.100000E-03
 Iteration #         10
  pAp =  0.0000035047088767223862  rzold =  0.0000011540275853075237  alpha =  0.32927915724251927
 delta_qm =   0.177262E-04 delta_en =   0.542970E-03 tol =   0.100000E-03
 Iteration #         11
  pAp =  2.608402716010397E-7  rzold =  2.1323069145811547E-7  alpha =  0.8174761134440773
 delta_qm =   0.681488E-05 delta_en =   0.802527E-04 tol =   0.100000E-03
 Charges are converged, exit!

%%%% ELECTRONS %%%%%%%%%%%%%%%%%%%%%%%%%%%%%%%%%%%%%%%%%%%%%%%%%%%%%%%%%%%%%%%%%
 number of electrons        =          8
 total electronic charge    =      8.0000000
 number of spin components  =  1

%%%% BOUNDARY %%%%%%%%%%%%%%%%%%%%%%%%%%%%%%%%%%%%%%%%%%%%%%%%%%%%%%%%%%%%%%%%%%
 boundary mode              = electronic           
 boundary is built as a function of a smooth density
 function type              =  2 
 using the modified SCCS function with parameters 
 rhomax                     =      0.0050000 
 rhomin                     =      0.0001000 

%%%% DIELECTRIC %%%%%%%%%%%%%%%%%%%%%%%%%%%%%%%%%%%%%%%%%%%%%%%%%%%%%%%%%%%%%%%%%
 dielectric build on homogeneous background
 environment bulk permitt.  =    100.0000000 
 dielectric flags
 need gradient              =  F 
 need factor depend. sqrt   =  T 
 need gradient of logarithm =  T 

%%%% COMPUTE ELECTROSTATIC POTENTIAL %%%%%%%%%%%%%%%%%%%%%%%%%%%%%%%%%%%%%%%%%%%
 Warning: bad guess with residual norm =   0.807623E+03, reset to no guess
 Iteration #          1
  pAp =  28.99008468427512  rzold =  28.410050464513407  alpha =  0.9799919791170414
 delta_qm =   0.131699E-01 delta_en =   0.299715E+03 tol =   0.100000E-03
 Iteration #          2
  pAp =  80.81247091892227  rzold =  5.501927167341043  alpha =  0.06808264992739832
 delta_qm =   0.602093E-02 delta_en =   0.626428E+02 tol =   0.100000E-03
 Iteration #          3
  pAp =  8.987911826007371  rzold =  1.0147512084507  alpha =  0.112901776084899
 delta_qm =   0.117248E-02 delta_en =   0.237550E+01 tol =   0.100000E-03
 Iteration #          4
  pAp =  0.09188425895537237  rzold =  0.019942676519064794  alpha =  0.21704127285556965
 delta_qm =   0.509216E-03 delta_en =   0.448073E+00 tol =   0.100000E-03
 Iteration #          5
  pAp =  0.0013779326041134109  rzold =  0.0007881141255022713  alpha =  0.5719540441597719
 delta_qm =   0.160197E-03 delta_en =   0.443456E-01 tol =   0.100000E-03
 Iteration #          6
  pAp =  0.0005497058850838465  rzold =  0.00017861443838636866  alpha =  0.3249272806295764
 delta_qm =   0.945346E-04 delta_en =   0.154428E-01 tol =   0.100000E-03
 Iteration #          7
  pAp =  0.00002377618384020917  rzold =  0.000009838300597347303  alpha =  0.41378804367710303
 delta_qm =   0.731647E-04 delta_en =   0.925010E-02 tol =   0.100000E-03
 Iteration #          8
  pAp =  0.00000584367241225581  rzold =  0.0000042400614885563045  alpha =  0.7255816530139017
 delta_qm =   0.341080E-04 delta_en =   0.201028E-02 tol =   0.100000E-03
 Iteration #          9
  pAp =  0.00001253265649105301  rzold =  0.000003554229184734956  alpha =  0.2835974310212922
 delta_qm =   0.222336E-04 delta_en =   0.854211E-03 tol =   0.100000E-03
 Iteration #         10
  pAp =  0.000005309183290259403  rzold =  0.0000019589671214855975  alpha =  0.36897711274720063
 delta_qm =   0.145918E-04 delta_en =   0.367929E-03 tol =   0.100000E-03
 Iteration #         11
  pAp =  2.9856214504383395E-7  rzold =  2.3474414598333622E-7  alpha =  0.7862488593417355
 delta_qm =   0.585684E-05 delta_en =   0.592748E-04 tol =   0.100000E-03
 Charges are converged, exit!

%%%% ELECTRONS %%%%%%%%%%%%%%%%%%%%%%%%%%%%%%%%%%%%%%%%%%%%%%%%%%%%%%%%%%%%%%%%%
 number of electrons        =          8
 total electronic charge    =      8.0000000
 number of spin components  =  1

%%%% BOUNDARY %%%%%%%%%%%%%%%%%%%%%%%%%%%%%%%%%%%%%%%%%%%%%%%%%%%%%%%%%%%%%%%%%%
 boundary mode              = electronic           
 boundary is built as a function of a smooth density
 function type              =  2 
 using the modified SCCS function with parameters 
 rhomax                     =      0.0050000 
 rhomin                     =      0.0001000 

%%%% DIELECTRIC %%%%%%%%%%%%%%%%%%%%%%%%%%%%%%%%%%%%%%%%%%%%%%%%%%%%%%%%%%%%%%%%%
 dielectric build on homogeneous background
 environment bulk permitt.  =    100.0000000 
 dielectric flags
 need gradient              =  F 
 need factor depend. sqrt   =  T 
 need gradient of logarithm =  T 
