
     Program PWSCF v.6.1 (svn rev. 13369) starts on 29Sep2017 at 16:23: 8 

     This program is part of the open-source Quantum ESPRESSO suite
     for quantum simulation of materials; please cite
         "P. Giannozzi et al., J. Phys.:Condens. Matter 21 395502 (2009);
          URL http://www.quantum-espresso.org", 
     in publications or presentations arising from this work. More details at
     http://www.quantum-espresso.org/quote

     Serial version
     Reading input from charged.in

     Current dimensions of program PWSCF are:
     Max number of different atomic species (ntypx) = 10
     Max number of k-points (npk) =  40000
     Max angular momentum in pseudopotentials (lmaxx) =  3
     Message from routine  environ_checkin    :
      use some old legacy code for environ
               file C.pbe-rrkjus.UPF: wavefunction(s)  2S 2P renormalized
               file H.pbe-rrkjus.UPF: wavefunction(s)  1S renormalized
               file N.pbe-rrkjus.UPF: wavefunction(s)  2S renormalized
               file O.pbe-rrkjus.UPF: wavefunction(s)  2S renormalized

     gamma-point specific algorithms are used

     G-vector sticks info
     --------------------
     sticks:   dense  smooth     PW     G-vecs:    dense   smooth      PW
     Sum        9549    3809    949               701475   177509   22119



     bravais-lattice index     =            1
     lattice parameter (alat)  =      20.0000  a.u.
     unit-cell volume          =    8000.0000 (a.u.)^3
     number of atoms/cell      =           10
     number of atomic types    =            4
     number of electrons       =        24.00
     number of Kohn-Sham states=           12
     kinetic-energy cutoff     =      30.0000  Ry
     charge density cutoff     =     300.0000  Ry
     convergence threshold     =      5.0E-03
     mixing beta               =       0.7000
     number of iterations used =            8  plain     mixing
     Exchange-correlation      =  SLA  PW   PBE  PBE ( 1  4  3  4 0 0)


     Environ Module
     ==============

     Plese cite
         O. Andreussi, I. Dabo and N. Marzari, J. Chem. Phys. 136, 064102 (2012)         
     in publications or presentations arising from this work.

     compensation onset threshold      =               0.1000E+03 
     switching function adopted        =                     SCCS 
     density limit for vacuum region   =               0.5000E-02 
     density limit for bulk solvent    =               0.1000E-03 
     static permittivity               =                   100.00 
     epsilon calculation mode          =               electronic 

     Electrostatic Setup
     -------------------
     electrostatic problem to solve    = generalized              
     numerical solver adopted          = iterative                
     type of auxiliary density adopted = full                     
     type of core tool for poisson     = fft                      
     type of core tool for s(r) deriv  = fd                       
     type of numerical differentiator  =            central diff. 
     number of points in num. diff.    =                        2 



     celldm(1)=  20.000000  celldm(2)=   0.000000  celldm(3)=   0.000000
     celldm(4)=   0.000000  celldm(5)=   0.000000  celldm(6)=   0.000000

     crystal axes: (cart. coord. in units of alat)
               a(1) = (   1.000000   0.000000   0.000000 )  
               a(2) = (   0.000000   1.000000   0.000000 )  
               a(3) = (   0.000000   0.000000   1.000000 )  

     reciprocal axes: (cart. coord. in units 2 pi/alat)
               b(1) = (  1.000000  0.000000  0.000000 )  
               b(2) = (  0.000000  1.000000  0.000000 )  
               b(3) = (  0.000000  0.000000  1.000000 )  


     PseudoPot. # 1 for C  read from file:
     /Users/oliviero/PWSCF/espresso-6.1-Environ-1.0/Environ/tests/../..//pseudo/C.pbe-rrkjus.UPF
     MD5 check sum: 00fb224312de0c5b6853bd333518df6f
     Pseudo is Ultrasoft, Zval =  4.0
     Generated by new atomic code, or converted to UPF format
     Using radial grid of  627 points,  4 beta functions with: 
                l(1) =   0
                l(2) =   0
                l(3) =   1
                l(4) =   1
     Q(r) pseudized with 0 coefficients 


     PseudoPot. # 2 for H  read from file:
     /Users/oliviero/PWSCF/espresso-6.1-Environ-1.0/Environ/tests/../..//pseudo/H.pbe-rrkjus.UPF
     MD5 check sum: 7cc9d459525c9a0585f487a71c3c9563
     Pseudo is Ultrasoft, Zval =  1.0
     Generated by new atomic code, or converted to UPF format
     Using radial grid of 1061 points,  2 beta functions with: 
                l(1) =   0
                l(2) =   0
     Q(r) pseudized with 0 coefficients 


     PseudoPot. # 3 for N  read from file:
     /Users/oliviero/PWSCF/espresso-6.1-Environ-1.0/Environ/tests/../..//pseudo/N.pbe-rrkjus.UPF
     MD5 check sum: 0c3fbe5807a93f9ba59d5a7019aa238b
     Pseudo is Ultrasoft, Zval =  5.0
     Generated by new atomic code, or converted to UPF format
     Using radial grid of 1257 points,  4 beta functions with: 
                l(1) =   0
                l(2) =   0
                l(3) =   1
                l(4) =   1
     Q(r) pseudized with 0 coefficients 


     PseudoPot. # 4 for O  read from file:
     /Users/oliviero/PWSCF/espresso-6.1-Environ-1.0/Environ/tests/../..//pseudo/O.pbe-rrkjus.UPF
     MD5 check sum: 390ba29e75625707450f3bd3f0eb6be9
     Pseudo is Ultrasoft, Zval =  6.0
     Generated by new atomic code, or converted to UPF format
     Using radial grid of 1269 points,  4 beta functions with: 
                l(1) =   0
                l(2) =   0
                l(3) =   1
                l(4) =   1
     Q(r) pseudized with 0 coefficients 


     atomic species   valence    mass     pseudopotential
        C              4.00    12.00000     C ( 1.00)
        H              1.00     1.00000     H ( 1.00)
        N              5.00    14.00000     N ( 1.00)
        O              6.00    16.00000     O ( 1.00)

     No symmetry found



   Cartesian axes

     site n.     atom                  positions (alat units)
         1           C   tau(   1) = (   0.0000000   0.0000000   0.0000000  )
         2           C   tau(   2) = (   0.0000000   0.0000000   0.1455089  )
         3           N   tau(   3) = (   0.1170969   0.0000000  -0.0545024  )
         4           H   tau(   4) = (   0.0476617  -0.0825466   0.1792090  )
         5           H   tau(   5) = (  -0.0953183  -0.0000030   0.1792090  )
         6           H   tau(   6) = (   0.0476566   0.0825496   0.1792090  )
         7           O   tau(   7) = (  -0.0984002  -0.0000019  -0.0641310  )
         8           H   tau(   8) = (   0.1263131  -0.0000015  -0.1475548  )
         9           H   tau(   9) = (   0.1944645   0.0000134  -0.0025716  )
        10           H   tau(  10) = (  -0.0770366  -0.0000045  -0.1522861  )

     number of k points=     1
                       cart. coord. in units 2pi/alat
        k(    1) = (   0.0000000   0.0000000   0.0000000), wk =   2.0000000

     Dense  grid:   350738 G-vectors     FFT dimensions: ( 120, 120, 120)

     Smooth grid:    88755 G-vectors     FFT dimensions: (  72,  72,  72)

     Estimated max dynamical RAM per process >     298.98MB

     Initial potential from superposition of free atoms
     Check: negative starting charge=   -0.000452

     starting charge   24.42266, renormalised to   24.00000

     negative rho (up, down):  4.438E-04 0.000E+00
     Starting wfc are   22 randomized atomic wfcs

     total cpu time spent up to now is       30.8 secs

     Self-consistent Calculation

     iteration #  1     ecut=    30.00 Ry     beta=0.70
     Davidson diagonalization with overlap
     ethr =  1.00E-02,  avg # of iterations =  2.0

     negative rho (up, down):  1.277E-04 0.000E+00

     add environment contribution to local potential
     polarization accuracy = 7.0E-08, # of iterations =   7

     total cpu time spent up to now is       49.1 secs

     total energy              =     -80.23412306 Ry
     Harris-Foulkes estimate   =     -83.01879009 Ry
     estimated scf accuracy    <       3.73442311 Ry
     electrostatic embedding   =       0.00490874 Ry
     correction to one-el term =       0.00000000 Ry

     iteration #  2     ecut=    30.00 Ry     beta=0.70
     Davidson diagonalization with overlap
     ethr =  1.00E-02,  avg # of iterations =  4.0

     negative rho (up, down):  6.927E-04 0.000E+00

     add environment contribution to local potential
     polarization accuracy = 7.8E-08, # of iterations =   6

     total cpu time spent up to now is       67.1 secs

     total energy              =     -80.97081262 Ry
     Harris-Foulkes estimate   =     -77.20316243 Ry
     estimated scf accuracy    <       1.54464012 Ry
     electrostatic embedding   =      -0.14639515 Ry
     correction to one-el term =      -4.44842761 Ry

     iteration #  3     ecut=    30.00 Ry     beta=0.70
     Davidson diagonalization with overlap
     ethr =  6.44E-03,  avg # of iterations =  3.0

     negative rho (up, down):  3.277E-04 0.000E+00

     add environment contribution to local potential
     polarization accuracy = 7.6E-08, # of iterations =   5

     total cpu time spent up to now is       82.6 secs

     total energy              =     -81.30990746 Ry
     Harris-Foulkes estimate   =     -77.79945840 Ry
     estimated scf accuracy    <       0.24671522 Ry
     electrostatic embedding   =      -0.11603177 Ry
     correction to one-el term =      -3.52563780 Ry

     iteration #  4     ecut=    30.00 Ry     beta=0.70
     Davidson diagonalization with overlap
     ethr =  1.03E-03,  avg # of iterations =  4.0

     negative rho (up, down):  8.851E-05 0.000E+00

     add environment contribution to local potential
     polarization accuracy = 8.2E-08, # of iterations =   5

     total cpu time spent up to now is       98.2 secs

     total energy              =     -81.36043845 Ry
     Harris-Foulkes estimate   =     -77.93156593 Ry
     estimated scf accuracy    <       0.02154219 Ry
     electrostatic embedding   =      -0.10419173 Ry
     correction to one-el term =      -3.33561030 Ry

     iteration #  5     ecut=    30.00 Ry     beta=0.70
     Davidson diagonalization with overlap
     ethr =  8.98E-05,  avg # of iterations =  4.0

     negative rho (up, down):  2.765E-04 0.000E+00

     total cpu time spent up to now is      104.2 secs

     End of self-consistent calculation

          k = 0.0000 0.0000 0.0000 ( 11060 PWs)   bands (ev):

   -29.3039 -23.5877 -19.0614 -16.3848 -15.1011 -13.8345 -12.0769 -11.3357
    -9.9850  -9.9709  -9.7231  -7.8223

     highest occupied level (ev):    -7.8223

!    total energy              =     -81.36480690 Ry
     Harris-Foulkes estimate   =     -78.13759294 Ry
     estimated scf accuracy    <       0.00268081 Ry

     The total energy is the sum of the following terms:

     one-electron contribution =    -242.65294450 Ry
     hartree contribution      =     123.15789496 Ry
     xc contribution           =     -22.94836340 Ry
     ewald contribution        =      64.30784006 Ry
     electrostatic embedding   =      -0.10352566 Ry
     correction to one-el term =      -3.12570836 Ry

     convergence has been achieved in   5 iterations

     Forces acting on atoms (cartesian axes, Ry/au):

     atom    1 type  1   force =     0.21380510    0.00001146    0.10053102
     atom    2 type  1   force =    -0.03583578   -0.00000471   -0.06849329
     atom    3 type  3   force =    -0.13160879    0.00000045    0.04149872
     atom    4 type  2   force =     0.02005126   -0.02996425    0.00949595
     atom    5 type  2   force =    -0.03316476   -0.00000285    0.01294535
     atom    6 type  2   force =     0.02005528    0.02997054    0.00949764
     atom    7 type  4   force =    -0.09671491   -0.00002969   -0.01422067
     atom    8 type  2   force =     0.00964512    0.00000547   -0.05156628
     atom    9 type  2   force =     0.04313728    0.00000958    0.03568896
     atom   10 type  2   force =    -0.00936979    0.00000400   -0.07537740

     Total force =     0.325727     Total SCF correction =     0.122277
     SCF correction compared to forces is large: reduce conv_thr to get better values

     Writing output data file pwscf.save

     init_run     :     28.35s CPU     30.45s WALL (       1 calls)
     electrons    :     67.46s CPU     73.59s WALL (       1 calls)
     forces       :      4.18s CPU      4.68s WALL (       1 calls)

     Called by init_run:
     wfcinit      :      0.26s CPU      0.25s WALL (       1 calls)
     potinit      :      1.93s CPU      2.07s WALL (       1 calls)

     Called by electrons:
     c_bands      :      2.32s CPU      2.23s WALL (       5 calls)
     sum_band     :      7.23s CPU      7.50s WALL (       5 calls)
     v_of_rho     :      7.97s CPU      8.76s WALL (       6 calls)
     newd         :      4.12s CPU      6.30s WALL (       6 calls)
     mix_rho      :      0.63s CPU      0.72s WALL (       5 calls)

     Called by c_bands:
     init_us_2    :      0.09s CPU      0.13s WALL (      11 calls)
     regterg      :      2.19s CPU      2.07s WALL (       5 calls)

     Called by sum_band:
     sum_band:bec :      0.00s CPU      0.00s WALL (       5 calls)
     addusdens    :      5.71s CPU      5.90s WALL (       5 calls)

     Called by *egterg:
     h_psi        :      2.02s CPU      1.99s WALL (      23 calls)
     s_psi        :      0.11s CPU      0.04s WALL (      23 calls)
     g_psi        :      0.02s CPU      0.02s WALL (      17 calls)
     rdiaghg      :      0.01s CPU      0.01s WALL (      22 calls)

     Called by h_psi:
     h_psi:pot    :      2.00s CPU      1.97s WALL (      23 calls)
     h_psi:calbec :      0.05s CPU      0.05s WALL (      23 calls)
     vloc_psi     :      1.82s CPU      1.87s WALL (      23 calls)
     add_vuspsi   :      0.12s CPU      0.04s WALL (      23 calls)

     General routines
     calbec       :      0.08s CPU      0.08s WALL (      32 calls)
     fft          :     14.24s CPU     14.68s WALL (     239 calls)
     ffts         :      0.11s CPU      0.12s WALL (      11 calls)
     fftw         :      1.50s CPU      1.54s WALL (     244 calls)
     interpolate  :      0.90s CPU      0.99s WALL (      11 calls)
     davcio       :      0.01s CPU      0.01s WALL (       1 calls)


     Environ routines
     calc_eelect  :      0.02s CPU      0.02s WALL (      10 calls)
     calc_velect  :     37.68s CPU     40.24s WALL (       8 calls)
     dielectric   :      0.75s CPU      0.84s WALL (       6 calls)
     calc_felect  :      1.64s CPU      1.71s WALL (       1 calls)

     PWSCF        :  1m40.32s CPU     1m49.29s WALL


   This run was terminated on:  16:24:58  29Sep2017            

=------------------------------------------------------------------------------=
   JOB DONE.
=------------------------------------------------------------------------------=

%%%% IONS %%%%%%%%%%%%%%%%%%%%%%%%%%%%%%%%%%%%%%%%%%%%%%%%%%%%%%%%%%%%%%%%%%%%%%
 number of ions             =         10
 ionic center of charge     =      0.0095530    -0.0000002     0.0063981
 total ionic charge         =    -25.0000000
 ionic dipole               =      0.0000000     0.0000000     0.0000000
 ionic quadrupole (pc)      =    -79.0828058    -5.4513517  -105.8059629
 ionic quadrupole (gauss)   =    -82.2078058    -8.5763517  -108.9309629
 ion   1 type =  1 coordinates =      0.0000000     0.0000000     0.0000000
 ion   2 type =  1 coordinates =      0.0000000     0.0000000     2.9101782
 ion   3 type =  3 coordinates =      2.3419379     0.0000000    -1.0900479
 ion   4 type =  2 coordinates =      0.9532347    -1.6509323     3.5841800
 ion   5 type =  2 coordinates =     -1.9063663    -0.0000596     3.5841809
 ion   6 type =  2 coordinates =      0.9531315     1.6509919     3.5841800
 ion   7 type =  4 coordinates =     -1.9680045    -0.0000375    -1.2826193
 ion   8 type =  2 coordinates =      2.5262613    -0.0000303    -2.9510950
 ion   9 type =  2 coordinates =      3.8892907     0.0002681    -0.0514326
 ion  10 type =  2 coordinates =     -1.5407317    -0.0000890    -3.0457220

%%%% SYSTEM %%%%%%%%%%%%%%%%%%%%%%%%%%%%%%%%%%%%%%%%%%%%%%%%%%%%%%%%%%%%%%%%%%%%
 system is built from all present ionic types
 system defined dimension   =  0 
 system defined axis        =  3 
 system center              =      0.0095530    -0.0000002     0.0063981 
 system width               =      0.5223840 

%%%% ELECTRONS %%%%%%%%%%%%%%%%%%%%%%%%%%%%%%%%%%%%%%%%%%%%%%%%%%%%%%%%%%%%%%%%%
 number of electrons        =         24
 total electronic charge    =     24.0000000
 number of spin components  =  1

%%%% BOUNDARY %%%%%%%%%%%%%%%%%%%%%%%%%%%%%%%%%%%%%%%%%%%%%%%%%%%%%%%%%%%%%%%%%%
 boundary mode              = electronic           
 boundary is built as a function of a smooth density
 function type              =  1 
 using the optimal SCCS function with parameters 
 rhomax                     =      0.0050000 
 rhomin                     =      0.0001000 

%%%% DIELECTRIC %%%%%%%%%%%%%%%%%%%%%%%%%%%%%%%%%%%%%%%%%%%%%%%%%%%%%%%%%%%%%%%%%
 dielectric build on homogeneous background
 environment bulk permitt.  =    100.0000000 
 dielectric flags
 need gradient              =  F 
 need factor depend. sqrt   =  F 
 need gradient of logarithm =  T 

%%%% COMPUTE ELECTROSTATIC POTENTIAL %%%%%%%%%%%%%%%%%%%%%%%%%%%%%%%%%%%%%%%%%%%
 Starting from polarization: rhoiter =      0.000000
 Iteration #          1
 delta_qm =   0.390415E-02 delta_en =   0.296999E-05 tol =   0.100000E-06
 Iteration #          2
 delta_qm =   0.267124E-02 delta_en =   0.203208E-05 tol =   0.100000E-06
 Iteration #          3
 delta_qm =   0.798371E-03 delta_en =   0.607341E-06 tol =   0.100000E-06
 Iteration #          4
 delta_qm =   0.517613E-03 delta_en =   0.393762E-06 tol =   0.100000E-06
 Iteration #          5
 delta_qm =   0.266007E-03 delta_en =   0.202358E-06 tol =   0.100000E-06
 Iteration #          6
 delta_qm =   0.139707E-03 delta_en =   0.106279E-06 tol =   0.100000E-06
 Iteration #          7
 delta_qm =   0.925777E-04 delta_en =   0.704262E-07 tol =   0.100000E-06
 Charges are converged, exit!

%%%% ELECTRONS %%%%%%%%%%%%%%%%%%%%%%%%%%%%%%%%%%%%%%%%%%%%%%%%%%%%%%%%%%%%%%%%%
 number of electrons        =         24
 total electronic charge    =     24.0000000
 number of spin components  =  1

%%%% BOUNDARY %%%%%%%%%%%%%%%%%%%%%%%%%%%%%%%%%%%%%%%%%%%%%%%%%%%%%%%%%%%%%%%%%%
 boundary mode              = electronic           
 boundary is built as a function of a smooth density
 function type              =  1 
 using the optimal SCCS function with parameters 
 rhomax                     =      0.0050000 
 rhomin                     =      0.0001000 

%%%% DIELECTRIC %%%%%%%%%%%%%%%%%%%%%%%%%%%%%%%%%%%%%%%%%%%%%%%%%%%%%%%%%%%%%%%%%
 dielectric build on homogeneous background
 environment bulk permitt.  =    100.0000000 
 dielectric flags
 need gradient              =  F 
 need factor depend. sqrt   =  F 
 need gradient of logarithm =  T 

%%%% COMPUTE ELECTROSTATIC POTENTIAL %%%%%%%%%%%%%%%%%%%%%%%%%%%%%%%%%%%%%%%%%%%
 Starting from polarization: rhoiter =      1.790446
 Iteration #          1
 delta_qm =   0.903692E-03 delta_en =   0.687462E-06 tol =   0.100000E-06
 Iteration #          2
 delta_qm =   0.645251E-03 delta_en =   0.490859E-06 tol =   0.100000E-06
 Iteration #          3
 delta_qm =   0.369212E-03 delta_en =   0.280869E-06 tol =   0.100000E-06
 Iteration #          4
 delta_qm =   0.234756E-03 delta_en =   0.178585E-06 tol =   0.100000E-06
 Iteration #          5
 delta_qm =   0.150625E-03 delta_en =   0.114584E-06 tol =   0.100000E-06
 Iteration #          6
 delta_qm =   0.102287E-03 delta_en =   0.778124E-07 tol =   0.100000E-06
 Charges are converged, exit!

%%%% ELECTRONS %%%%%%%%%%%%%%%%%%%%%%%%%%%%%%%%%%%%%%%%%%%%%%%%%%%%%%%%%%%%%%%%%
 number of electrons        =         24
 total electronic charge    =     24.0000000
 number of spin components  =  1

%%%% BOUNDARY %%%%%%%%%%%%%%%%%%%%%%%%%%%%%%%%%%%%%%%%%%%%%%%%%%%%%%%%%%%%%%%%%%
 boundary mode              = electronic           
 boundary is built as a function of a smooth density
 function type              =  1 
 using the optimal SCCS function with parameters 
 rhomax                     =      0.0050000 
 rhomin                     =      0.0001000 

%%%% DIELECTRIC %%%%%%%%%%%%%%%%%%%%%%%%%%%%%%%%%%%%%%%%%%%%%%%%%%%%%%%%%%%%%%%%%
 dielectric build on homogeneous background
 environment bulk permitt.  =    100.0000000 
 dielectric flags
 need gradient              =  F 
 need factor depend. sqrt   =  F 
 need gradient of logarithm =  T 

%%%% COMPUTE ELECTROSTATIC POTENTIAL %%%%%%%%%%%%%%%%%%%%%%%%%%%%%%%%%%%%%%%%%%%
 Starting from polarization: rhoiter =      1.551055
 Iteration #          1
 delta_qm =   0.543674E-03 delta_en =   0.413587E-06 tol =   0.100000E-06
 Iteration #          2
 delta_qm =   0.322393E-03 delta_en =   0.245253E-06 tol =   0.100000E-06
 Iteration #          3
 delta_qm =   0.224154E-03 delta_en =   0.170519E-06 tol =   0.100000E-06
 Iteration #          4
 delta_qm =   0.150066E-03 delta_en =   0.114159E-06 tol =   0.100000E-06
 Iteration #          5
 delta_qm =   0.100151E-03 delta_en =   0.761878E-07 tol =   0.100000E-06
 Charges are converged, exit!

%%%% ELECTRONS %%%%%%%%%%%%%%%%%%%%%%%%%%%%%%%%%%%%%%%%%%%%%%%%%%%%%%%%%%%%%%%%%
 number of electrons        =         24
 total electronic charge    =     24.0000000
 number of spin components  =  1

%%%% BOUNDARY %%%%%%%%%%%%%%%%%%%%%%%%%%%%%%%%%%%%%%%%%%%%%%%%%%%%%%%%%%%%%%%%%%
 boundary mode              = electronic           
 boundary is built as a function of a smooth density
 function type              =  1 
 using the optimal SCCS function with parameters 
 rhomax                     =      0.0050000 
 rhomin                     =      0.0001000 

%%%% DIELECTRIC %%%%%%%%%%%%%%%%%%%%%%%%%%%%%%%%%%%%%%%%%%%%%%%%%%%%%%%%%%%%%%%%%
 dielectric build on homogeneous background
 environment bulk permitt.  =    100.0000000 
 dielectric flags
 need gradient              =  F 
 need factor depend. sqrt   =  F 
 need gradient of logarithm =  T 

%%%% COMPUTE ELECTROSTATIC POTENTIAL %%%%%%%%%%%%%%%%%%%%%%%%%%%%%%%%%%%%%%%%%%%
 Starting from polarization: rhoiter =      1.399521
 Iteration #          1
 delta_qm =   0.458790E-03 delta_en =   0.349014E-06 tol =   0.100000E-06
 Iteration #          2
 delta_qm =   0.287547E-03 delta_en =   0.218744E-06 tol =   0.100000E-06
 Iteration #          3
 delta_qm =   0.228024E-03 delta_en =   0.173463E-06 tol =   0.100000E-06
 Iteration #          4
 delta_qm =   0.151987E-03 delta_en =   0.115621E-06 tol =   0.100000E-06
 Iteration #          5
 delta_qm =   0.107576E-03 delta_en =   0.818360E-07 tol =   0.100000E-06
 Charges are converged, exit!

%%%% ELECTRONS %%%%%%%%%%%%%%%%%%%%%%%%%%%%%%%%%%%%%%%%%%%%%%%%%%%%%%%%%%%%%%%%%
 number of electrons        =         24
 total electronic charge    =     24.0000000
 number of spin components  =  1

%%%% BOUNDARY %%%%%%%%%%%%%%%%%%%%%%%%%%%%%%%%%%%%%%%%%%%%%%%%%%%%%%%%%%%%%%%%%%
 boundary mode              = electronic           
 boundary is built as a function of a smooth density
 function type              =  1 
 using the optimal SCCS function with parameters 
 rhomax                     =      0.0050000 
 rhomin                     =      0.0001000 

%%%% DIELECTRIC %%%%%%%%%%%%%%%%%%%%%%%%%%%%%%%%%%%%%%%%%%%%%%%%%%%%%%%%%%%%%%%%%
 dielectric build on homogeneous background
 environment bulk permitt.  =    100.0000000 
 dielectric flags
 need gradient              =  F 
 need factor depend. sqrt   =  F 
 need gradient of logarithm =  T 
