
     Program PWSCF v.6.7MaX starts on  5Mar2021 at  9:56:13 

     This program is part of the open-source Quantum ESPRESSO suite
     for quantum simulation of materials; please cite
         "P. Giannozzi et al., J. Phys.:Condens. Matter 21 395502 (2009);
         "P. Giannozzi et al., J. Phys.:Condens. Matter 29 465901 (2017);
          URL http://www.quantum-espresso.org", 
     in publications or presentations arising from this work. More details at
     http://www.quantum-espresso.org/quote

     Parallel version (MPI), running on     1 processors

     MPI processes distributed on     1 nodes
     Waiting for input...
     Reading input from standard input

     Current dimensions of program PWSCF are:
     Max number of different atomic species (ntypx) = 10
     Max number of k-points (npk) =  40000
     Max angular momentum in pseudopotentials (lmaxx) =  3
     file C.pbe-rrkjus.UPF: wavefunction(s)  2S 2P renormalized
     file H.pbe-rrkjus.UPF: wavefunction(s)  1S renormalized
     file N.pbe-rrkjus.UPF: wavefunction(s)  2S renormalized
     file O.pbe-rrkjus.UPF: wavefunction(s)  2S renormalized

     gamma-point specific algorithms are used

     Subspace diagonalization in iterative solution of the eigenvalue problem:
     a serial algorithm will be used


     G-vector sticks info
     --------------------
     sticks:   dense  smooth     PW     G-vecs:    dense   smooth      PW
     Sum        2385     949    241                87655    22119    2777



     bravais-lattice index     =            1
     lattice parameter (alat)  =      10.0000  a.u.
     unit-cell volume          =    1000.0000 (a.u.)^3
     number of atoms/cell      =           10
     number of atomic types    =            4
     number of electrons       =        24.00
     number of Kohn-Sham states=           12
     kinetic-energy cutoff     =      30.0000  Ry
     charge density cutoff     =     300.0000  Ry
     scf convergence threshold =      5.0E-03
     mixing beta               =       0.7000
     number of iterations used =            8  plain     mixing
     Exchange-correlation= SLA  PW   PBE  PBE
                           (   1   4   3   4   0   0   0)


     Environ Module
     ==============

     Plese cite
         O. Andreussi, I. Dabo and N. Marzari, J. Chem. Phys. 136, 064102 (2012)         
     in publications or presentations arising from this work.

     compensation onset threshold      =               0.1000E+03 

     Electrostatic Setup
     -------------------
     electrostatic problem to solve    = poisson                  
     numerical solver adopted          = direct                   
     type of auxiliary density adopted = none                     
     type of core tool for poisson     = fft                      



     celldm(1)=  10.000000  celldm(2)=   0.000000  celldm(3)=   0.000000
     celldm(4)=   0.000000  celldm(5)=   0.000000  celldm(6)=   0.000000

     crystal axes: (cart. coord. in units of alat)
               a(1) = (   1.000000   0.000000   0.000000 )  
               a(2) = (   0.000000   1.000000   0.000000 )  
               a(3) = (   0.000000   0.000000   1.000000 )  

     reciprocal axes: (cart. coord. in units 2 pi/alat)
               b(1) = (  1.000000  0.000000  0.000000 )  
               b(2) = (  0.000000  1.000000  0.000000 )  
               b(3) = (  0.000000  0.000000  1.000000 )  


     PseudoPot. # 1 for C  read from file:
     ../../../pseudo/C.pbe-rrkjus.UPF
     MD5 check sum: c9ac5a99bc85b198593446162950cd17
     Pseudo is Ultrasoft, Zval =  4.0
     Generated by new atomic code, or converted to UPF format
     Using radial grid of  627 points,  4 beta functions with: 
                l(1) =   0
                l(2) =   0
                l(3) =   1
                l(4) =   1
     Q(r) pseudized with 0 coefficients 


     PseudoPot. # 2 for H  read from file:
     ../../../pseudo/H.pbe-rrkjus.UPF
     MD5 check sum: 2d52a7f45632fd764c17cc6affed14c8
     Pseudo is Ultrasoft, Zval =  1.0
     Generated by new atomic code, or converted to UPF format
     Using radial grid of 1061 points,  2 beta functions with: 
                l(1) =   0
                l(2) =   0
     Q(r) pseudized with 0 coefficients 


     PseudoPot. # 3 for N  read from file:
     ../../../pseudo/N.pbe-rrkjus.UPF
     MD5 check sum: 28c76d763763edb36c62a6ca2be9aebd
     Pseudo is Ultrasoft, Zval =  5.0
     Generated by new atomic code, or converted to UPF format
     Using radial grid of 1257 points,  4 beta functions with: 
                l(1) =   0
                l(2) =   0
                l(3) =   1
                l(4) =   1
     Q(r) pseudized with 0 coefficients 


     PseudoPot. # 4 for O  read from file:
     ../../../pseudo/O.pbe-rrkjus.UPF
     MD5 check sum: fadcf19ee70a498d3030e2e79cf929a4
     Pseudo is Ultrasoft, Zval =  6.0
     Generated by new atomic code, or converted to UPF format
     Using radial grid of 1269 points,  4 beta functions with: 
                l(1) =   0
                l(2) =   0
                l(3) =   1
                l(4) =   1
     Q(r) pseudized with 0 coefficients 


     atomic species   valence    mass     pseudopotential
        C              4.00    12.00000     C ( 1.00)
        H              1.00     1.00000     H ( 1.00)
        N              5.00    14.00000     N ( 1.00)
        O              6.00    16.00000     O ( 1.00)

     No symmetry found



   Cartesian axes

     site n.     atom                  positions (alat units)
         1           C   tau(   1) = (   0.0000000   0.0000000   0.0000000  )
         2           C   tau(   2) = (   0.0000000   0.0000000   0.2910178  )
         3           N   tau(   3) = (   0.2341938   0.0000000  -0.1090048  )
         4           H   tau(   4) = (   0.0953235  -0.1650932   0.3584180  )
         5           H   tau(   5) = (  -0.1906366  -0.0000060   0.3584181  )
         6           H   tau(   6) = (   0.0953131   0.1650992   0.3584180  )
         7           O   tau(   7) = (  -0.1968004  -0.0000037  -0.1282619  )
         8           H   tau(   8) = (   0.2526261  -0.0000030  -0.2951095  )
         9           H   tau(   9) = (   0.3889291   0.0000268  -0.0051433  )
        10           H   tau(  10) = (  -0.1540732  -0.0000089  -0.3045722  )

     number of k points=     1
                       cart. coord. in units 2pi/alat
        k(    1) = (   0.0000000   0.0000000   0.0000000), wk =   2.0000000

     Dense  grid:    43828 G-vectors     FFT dimensions: (  60,  60,  60)

     Smooth grid:    11060 G-vectors     FFT dimensions: (  36,  36,  36)

     Estimated max dynamical RAM per process >      79.39 MB

     Initial potential from superposition of free atoms

     starting charge   24.42266, renormalised to   24.00000
     Starting wfcs are   22 randomized atomic wfcs

     total cpu time spent up to now is        5.7 secs

     Self-consistent Calculation

     iteration #  1     ecut=    30.00 Ry     beta= 0.70
     Davidson diagonalization with overlap
     ethr =  1.00E-02,  avg # of iterations =  2.0

     add environment contribution to local potential

     total cpu time spent up to now is        7.2 secs

     total energy              =     -80.55593011 Ry
     estimated scf accuracy    <       3.21197354 Ry
     electrostatic embedding   =       0.03926991 Ry
     correction to one-el term =      -0.00000000 Ry

     iteration #  2     ecut=    30.00 Ry     beta= 0.70
     Davidson diagonalization with overlap
     ethr =  1.00E-02,  avg # of iterations =  3.0

     add environment contribution to local potential

     total cpu time spent up to now is        8.8 secs

     total energy              =     -80.77289969 Ry
     estimated scf accuracy    <       0.82967811 Ry
     electrostatic embedding   =       0.63588090 Ry
     correction to one-el term =      24.28487526 Ry

     iteration #  3     ecut=    30.00 Ry     beta= 0.70
     Davidson diagonalization with overlap
     ethr =  3.46E-03,  avg # of iterations =  2.0

     add environment contribution to local potential

     total cpu time spent up to now is       10.3 secs

     total energy              =     -80.85971461 Ry
     estimated scf accuracy    <       0.03418025 Ry
     electrostatic embedding   =       0.62305225 Ry
     correction to one-el term =      24.02278266 Ry

     iteration #  4     ecut=    30.00 Ry     beta= 0.70
     Davidson diagonalization with overlap
     ethr =  1.42E-04,  avg # of iterations =  5.0

     add environment contribution to local potential

     total cpu time spent up to now is       11.9 secs

     total energy              =     -80.87550304 Ry
     estimated scf accuracy    <       0.04087568 Ry
     electrostatic embedding   =       0.61559034 Ry
     correction to one-el term =      23.84096123 Ry

     iteration #  5     ecut=    30.00 Ry     beta= 0.70
     Davidson diagonalization with overlap
     ethr =  1.42E-04,  avg # of iterations =  4.0

     the potential shift due to the Gaussian-smeared nuclei is    -0.0198 ev

     total cpu time spent up to now is       12.5 secs

     End of self-consistent calculation

          k = 0.0000 0.0000 0.0000 (  1389 PWs)   bands (ev):

   -39.5953 -33.7775 -29.2100 -27.0862 -25.4264 -24.4893 -22.3255 -21.2472
   -20.4958 -20.2085 -19.4580 -17.9102

     highest occupied level (ev):   -17.9102

!    total energy              =     -80.87687219 Ry
     estimated scf accuracy    <       0.00475288 Ry

     The total energy is the sum of the following terms:
     one-electron contribution =    -140.87958668 Ry
     hartree contribution      =      63.45356591 Ry
     xc contribution           =     -23.06748837 Ry
     ewald contribution        =      -4.85220152 Ry
     electrostatic embedding   =       0.61467832 Ry
     correction to one-el term =      23.85416015 Ry

     WARNING: you are using the parabolic pbc correction;
              the potential shift above must be added to 
              band and Fermi energies.

     convergence has been achieved in   5 iterations
 forces lc
       1    0.0000    0.0000    0.0000
       2    0.0000    0.0000    0.0000
       3    0.0000    0.0000    0.0000
       4    0.0000    0.0000    0.0000
       5    0.0000    0.0000    0.0000
       6    0.0000    0.0000    0.0000
       7    0.0000    0.0000    0.0000
       8    0.0000    0.0000    0.0000
       9    0.0000    0.0000    0.0000
      10    0.0000    0.0000    0.0000

     Forces acting on atoms (cartesian axes, Ry/au):

     atom    1 type  1   force =     0.26337902    0.00004839    0.13578574
     atom    2 type  1   force =     0.00620081    0.00004766   -0.25278501
     atom    3 type  3   force =    -0.15004580    0.00008568    0.14718113
     atom    4 type  2   force =    -0.02866411   -0.02218289   -0.04029810
     atom    5 type  2   force =    -0.04392024   -0.00007153   -0.04387699
     atom    6 type  2   force =    -0.02862544    0.02212478   -0.04024808
     atom    7 type  4   force =     0.09897234    0.00009934    0.07837396
     atom    8 type  2   force =    -0.01699225   -0.00009431    0.00155901
     atom    9 type  2   force =    -0.04945785   -0.00002808    0.01821371
     atom   10 type  2   force =    -0.05084648   -0.00002903   -0.00390537

     Total force =     0.476707     Total SCF correction =     0.106734
     SCF correction compared to forces is large: reduce conv_thr to get better values

     Writing output data file ./tmp/pwscf.save/

     init_run     :      5.39s CPU      5.62s WALL (       1 calls)
     electrons    :      6.47s CPU      6.85s WALL (       1 calls)
     forces       :      1.56s CPU      1.70s WALL (       1 calls)

     Called by init_run:
     wfcinit      :      0.01s CPU      0.01s WALL (       1 calls)
     potinit      :      0.47s CPU      0.50s WALL (       1 calls)
     hinit0       :      4.24s CPU      4.38s WALL (       1 calls)

     Called by electrons:
     c_bands      :      0.11s CPU      0.14s WALL (       5 calls)
     sum_band     :      0.57s CPU      0.35s WALL (       5 calls)
     v_of_rho     :      0.40s CPU      0.45s WALL (       6 calls)
     newd         :      0.20s CPU      0.24s WALL (       6 calls)
     mix_rho      :      0.03s CPU      0.03s WALL (       5 calls)

     Called by c_bands:
     init_us_2    :      0.00s CPU      0.00s WALL (      11 calls)
     regterg      :      0.10s CPU      0.14s WALL (       5 calls)

     Called by *egterg:
     rdiaghg      :      0.00s CPU      0.00s WALL (      21 calls)
     h_psi        :      0.09s CPU      0.12s WALL (      22 calls)
     s_psi        :      0.01s CPU      0.00s WALL (      22 calls)
     g_psi        :      0.00s CPU      0.00s WALL (      16 calls)

     Called by h_psi:
     h_psi:calbec :      0.00s CPU      0.00s WALL (      22 calls)
     vloc_psi     :      0.08s CPU      0.08s WALL (      22 calls)
     add_vuspsi   :      0.01s CPU      0.04s WALL (      22 calls)

     General routines
     calbec       :      0.00s CPU      0.00s WALL (      31 calls)
     fft          :      2.23s CPU      2.40s WALL (      91 calls)
     ffts         :      0.01s CPU      0.01s WALL (      11 calls)
     fftw         :      0.07s CPU      0.07s WALL (     236 calls)
     interpolate  :      0.02s CPU      0.02s WALL (       6 calls)

     Parallel routines
     fft_scatt_xy :      0.22s CPU      0.22s WALL (      21 calls)
     fft_scatt_yz :      0.28s CPU      0.28s WALL (      21 calls)

     Environ routines
     calc_eelect  :      0.03s CPU      0.03s WALL (      10 calls)
     calc_velect  :      3.17s CPU      3.45s WALL (       8 calls)
     calc_felect  :      1.45s CPU      1.58s WALL (       1 calls)

     PWSCF        :     13.50s CPU     14.31s WALL


   This run was terminated on:   9:56:27   5Mar2021            

=------------------------------------------------------------------------------=
   JOB DONE.
=------------------------------------------------------------------------------=
