
     Program PWSCF v.7.0 starts on 22Apr2022 at 20:38:51 

     This program is part of the open-source Quantum ESPRESSO suite
     for quantum simulation of materials; please cite
         "P. Giannozzi et al., J. Phys.:Condens. Matter 21 395502 (2009);
         "P. Giannozzi et al., J. Phys.:Condens. Matter 29 465901 (2017);
         "P. Giannozzi et al., J. Chem. Phys. 152 154105 (2020);
          URL http://www.quantum-espresso.org", 
     in publications or presentations arising from this work. More details at
     http://www.quantum-espresso.org/quote

     Parallel version (MPI), running on     1 processors

     MPI processes distributed on     1 nodes
     22860 MiB available memory on the printing compute node when the environment starts
 
     Reading input from charged.in

     Current dimensions of program PWSCF are:
     Max number of different atomic species (ntypx) = 10
     Max number of k-points (npk) =  40000
     Max angular momentum in pseudopotentials (lmaxx) =  4
 
     Reading input from environ.in:
     * using electronic solvent mode
     * setting boundary derivatives method to SCCS default
     
     file C.pbe-rrkjus.UPF: wavefunction(s)  2S 2P renormalized
     file H.pbe-rrkjus.UPF: wavefunction(s)  1S renormalized
     file N.pbe-rrkjus.UPF: wavefunction(s)  2S renormalized
     file O.pbe-rrkjus.UPF: wavefunction(s)  2S renormalized

     gamma-point specific algorithms are used

     Subspace diagonalization in iterative solution of the eigenvalue problem:
     a serial algorithm will be used

 
     G-vector sticks info
     --------------------
     sticks:   dense  smooth     PW     G-vecs:    dense   smooth      PW
     Sum        9549    3809    949               701475   177509   22119
 
     Using Slab Decomposition
 


     bravais-lattice index     =            1
     lattice parameter (alat)  =      20.0000  a.u.
     unit-cell volume          =    8000.0000 (a.u.)^3
     number of atoms/cell      =           10
     number of atomic types    =            4
     number of electrons       =        24.00
     number of Kohn-Sham states=           12
     kinetic-energy cutoff     =      30.0000  Ry
     charge density cutoff     =     300.0000  Ry
     scf convergence threshold =      5.0E-06
     mixing beta               =       0.7000
     number of iterations used =            8  plain     mixing
     Exchange-correlation= SLA  PW   PBE  PBE
                           (   1   4   3   4   0   0   0)

     ================================================================================
 
                                  Environ Setup Summary

     ================================================================================
 
     Please cite

          O. Andreussi, I. Dabo and N. Marzari, J. Chem. Phys. 136, 064102 (2012)

     in publications or presentations arising from this work.

     ================================================================================
 
     Parameters
     ==========

     compensation onset threshold      =               0.1000E+03
     static permittivity               =                   100.00

     Solvent Boundary
     ================

     solvent mode                      =               electronic
     derivatives method                =                    chain
     numerical core for derivatives    =                      fft
     switching function adopted        =                     SCCS
     density limit for vacuum region   =               0.5000E-02
     density limit for bulk solvent    =               0.1000E-03

     Electrostatic Setup
     ===================

     electrostatic problem to solve    =              generalized
     numerical solver adopted          =                       cg
     type of auxiliary density adopted =                     none
     numerical core for poisson        =                      fft
     type of pbc corrections           =                parabolic
     numerical core for corrections    =                      1da

     ================================================================================
 

     celldm(1)=  20.000000  celldm(2)=   0.000000  celldm(3)=   0.000000
     celldm(4)=   0.000000  celldm(5)=   0.000000  celldm(6)=   0.000000

     crystal axes: (cart. coord. in units of alat)
               a(1) = (   1.000000   0.000000   0.000000 )  
               a(2) = (   0.000000   1.000000   0.000000 )  
               a(3) = (   0.000000   0.000000   1.000000 )  

     reciprocal axes: (cart. coord. in units 2 pi/alat)
               b(1) = (  1.000000  0.000000  0.000000 )  
               b(2) = (  0.000000  1.000000  0.000000 )  
               b(3) = (  0.000000  0.000000  1.000000 )  


     PseudoPot. # 1 for C  read from file:
     MD5 check sum: c9ac5a99bc85b198593446162950cd17
     Pseudo is Ultrasoft, Zval =  4.0
     Generated by new atomic code, or converted to UPF format
     Using radial grid of  627 points,  4 beta functions with: 
                l(1) =   0
                l(2) =   0
                l(3) =   1
                l(4) =   1
     Q(r) pseudized with 0 coefficients 


     PseudoPot. # 2 for H  read from file:
     MD5 check sum: 2d52a7f45632fd764c17cc6affed14c8
     Pseudo is Ultrasoft, Zval =  1.0
     Generated by new atomic code, or converted to UPF format
     Using radial grid of 1061 points,  2 beta functions with: 
                l(1) =   0
                l(2) =   0
     Q(r) pseudized with 0 coefficients 


     PseudoPot. # 3 for N  read from file:
     MD5 check sum: 28c76d763763edb36c62a6ca2be9aebd
     Pseudo is Ultrasoft, Zval =  5.0
     Generated by new atomic code, or converted to UPF format
     Using radial grid of 1257 points,  4 beta functions with: 
                l(1) =   0
                l(2) =   0
                l(3) =   1
                l(4) =   1
     Q(r) pseudized with 0 coefficients 


     PseudoPot. # 4 for O  read from file:
     MD5 check sum: fadcf19ee70a498d3030e2e79cf929a4
     Pseudo is Ultrasoft, Zval =  6.0
     Generated by new atomic code, or converted to UPF format
     Using radial grid of 1269 points,  4 beta functions with: 
                l(1) =   0
                l(2) =   0
                l(3) =   1
                l(4) =   1
     Q(r) pseudized with 0 coefficients 


     atomic species   valence    mass     pseudopotential
        C              4.00    12.00000     C ( 1.00)
        H              1.00     1.00000     H ( 1.00)
        N              5.00    14.00000     N ( 1.00)
        O              6.00    16.00000     O ( 1.00)

     No symmetry found



   Cartesian axes

     site n.     atom                  positions (alat units)
         1           C   tau(   1) = (   0.0000000   0.0000000   0.0000000  )
         2           C   tau(   2) = (   0.0000000   0.0000000   0.1455089  )
         3           N   tau(   3) = (   0.1170969   0.0000000  -0.0545024  )
         4           H   tau(   4) = (   0.0476617  -0.0825466   0.1792090  )
         5           H   tau(   5) = (  -0.0953183  -0.0000030   0.1792090  )
         6           H   tau(   6) = (   0.0476566   0.0825496   0.1792090  )
         7           O   tau(   7) = (  -0.0984002  -0.0000019  -0.0641310  )
         8           H   tau(   8) = (   0.1263131  -0.0000015  -0.1475548  )
         9           H   tau(   9) = (   0.1944645   0.0000134  -0.0025716  )
        10           H   tau(  10) = (  -0.0770366  -0.0000045  -0.1522861  )

     number of k points=     1
                       cart. coord. in units 2pi/alat
        k(    1) = (   0.0000000   0.0000000   0.0000000), wk =   2.0000000

     Dense  grid:   350738 G-vectors     FFT dimensions: ( 120, 120, 120)

     Smooth grid:    88755 G-vectors     FFT dimensions: (  72,  72,  72)

     Estimated max dynamical RAM per process >     624.11 MB

     Initial potential from superposition of free atoms

     starting charge      24.4227, renormalised to      24.0000

     negative rho (up, down):  4.438E-04 0.000E+00
     Starting wfcs are   22 randomized atomic wfcs

     total cpu time spent up to now is        3.5 secs

     Self-consistent Calculation

     iteration #  1     ecut=    30.00 Ry     beta= 0.70
     Davidson diagonalization with overlap
     ethr =  1.00E-02,  avg # of iterations =  2.0

     negative rho (up, down):  1.234E-04 0.000E+00

     add environment contribution to local potential
     Polarization accuracy = 9.1E-06, # of iterations =  14

     total cpu time spent up to now is        8.4 secs

     total energy              =     -80.29071716 Ry
     estimated scf accuracy    <       3.64924908 Ry
     electrostatic embedding   =       0.00490874 Ry
     correction to one-el term =       0.00000000 Ry

     iteration #  2     ecut=    30.00 Ry     beta= 0.70
     Davidson diagonalization with overlap
     ethr =  1.00E-02,  avg # of iterations =  4.0

     negative rho (up, down):  4.931E-04 0.000E+00

     add environment contribution to local potential
     Polarization accuracy = 8.5E-06, # of iterations =  18

     total cpu time spent up to now is       13.8 secs

     total energy              =     -81.15268019 Ry
     estimated scf accuracy    <       1.04168594 Ry
     electrostatic embedding   =      -0.16541355 Ry
     correction to one-el term =      -4.24543488 Ry

     iteration #  3     ecut=    30.00 Ry     beta= 0.70
     Davidson diagonalization with overlap
     ethr =  4.34E-03,  avg # of iterations =  4.0

     negative rho (up, down):  2.221E-04 0.000E+00

     add environment contribution to local potential
     Polarization accuracy = 4.6E-06, # of iterations =  21

     total cpu time spent up to now is       18.6 secs

     total energy              =     -81.33044693 Ry
     estimated scf accuracy    <       0.11303854 Ry
     electrostatic embedding   =      -0.13117830 Ry
     correction to one-el term =      -3.51974687 Ry

     iteration #  4     ecut=    30.00 Ry     beta= 0.70
     Davidson diagonalization with overlap
     ethr =  4.71E-04,  avg # of iterations =  5.0

     negative rho (up, down):  1.285E-04 0.000E+00

     add environment contribution to local potential
     Polarization accuracy = 8.0E-06, # of iterations =  22

     total cpu time spent up to now is       24.6 secs

     total energy              =     -81.36216435 Ry
     estimated scf accuracy    <       0.01961521 Ry
     electrostatic embedding   =      -0.10905361 Ry
     correction to one-el term =      -3.28471932 Ry

     iteration #  5     ecut=    30.00 Ry     beta= 0.70
     Davidson diagonalization with overlap
     ethr =  8.17E-05,  avg # of iterations =  4.0

     negative rho (up, down):  7.687E-05 0.000E+00

     add environment contribution to local potential
     Polarization accuracy = 9.3E-06, # of iterations =  22

     total cpu time spent up to now is       30.2 secs

     total energy              =     -81.36722931 Ry
     estimated scf accuracy    <       0.00175210 Ry
     electrostatic embedding   =      -0.10374114 Ry
     correction to one-el term =      -3.08271850 Ry

     iteration #  6     ecut=    30.00 Ry     beta= 0.70
     Davidson diagonalization with overlap
     ethr =  7.30E-06,  avg # of iterations =  2.0

     negative rho (up, down):  1.017E-04 0.000E+00

     add environment contribution to local potential
     Polarization accuracy = 2.5E-06, # of iterations =  23

     total cpu time spent up to now is       35.3 secs

     total energy              =     -81.36774831 Ry
     estimated scf accuracy    <       0.00024275 Ry
     electrostatic embedding   =      -0.10458541 Ry
     correction to one-el term =      -3.06253266 Ry

     iteration #  7     ecut=    30.00 Ry     beta= 0.70
     Davidson diagonalization with overlap
     ethr =  1.01E-06,  avg # of iterations =  5.0

     negative rho (up, down):  3.222E-04 0.000E+00

     add environment contribution to local potential
     Polarization accuracy = 2.9E-06, # of iterations =  23

     total cpu time spent up to now is       40.4 secs

     total energy              =     -81.36796187 Ry
     estimated scf accuracy    <       0.00004783 Ry
     electrostatic embedding   =      -0.10609060 Ry
     correction to one-el term =      -3.05775849 Ry

     iteration #  8     ecut=    30.00 Ry     beta= 0.70
     Davidson diagonalization with overlap
     ethr =  1.99E-07,  avg # of iterations =  5.0

     negative rho (up, down):  3.862E-04 0.000E+00

     add environment contribution to local potential
     Polarization accuracy = 3.0E-06, # of iterations =  23

     total cpu time spent up to now is       46.6 secs

     total energy              =     -81.36808286 Ry
     estimated scf accuracy    <       0.00001330 Ry
     electrostatic embedding   =      -0.10781236 Ry
     correction to one-el term =      -3.05818006 Ry

     iteration #  9     ecut=    30.00 Ry     beta= 0.70
     Davidson diagonalization with overlap
     ethr =  5.54E-08,  avg # of iterations =  3.0

     negative rho (up, down):  3.025E-04 0.000E+00

     add environment contribution to local potential
     Polarization accuracy = 3.3E-06, # of iterations =  23

     total cpu time spent up to now is       52.4 secs

     total energy              =     -81.36812372 Ry
     estimated scf accuracy    <       0.00000714 Ry
     electrostatic embedding   =      -0.10878794 Ry
     correction to one-el term =      -3.06301930 Ry

     iteration # 10     ecut=    30.00 Ry     beta= 0.70
     Davidson diagonalization with overlap
     ethr =  2.97E-08,  avg # of iterations =  5.0

     negative rho (up, down):  2.792E-04 0.000E+00

     the potential shift due to the Gaussian-smeared nuclei is    -0.0668 ev

     total cpu time spent up to now is       54.2 secs

     End of self-consistent calculation

          k = 0.0000 0.0000 0.0000 ( 11060 PWs)   bands (ev):

   -29.3064 -23.4758 -19.0311 -16.3883 -15.0150 -13.7733 -12.0660 -11.3428
   -10.0251 -10.0182  -9.7057  -7.7668

     highest occupied level (ev):    -7.7668

!    total energy              =     -81.36818268 Ry
     estimated scf accuracy    <       0.00000307 Ry

     The total energy is the sum of the following terms:
     one-electron contribution =    -242.69657125 Ry
     hartree contribution      =     123.17540039 Ry
     xc contribution           =     -22.96552694 Ry
     ewald contribution        =      64.30784069 Ry
     electrostatic embedding   =      -0.11138066 Ry
     correction to one-el term =      -3.07794491 Ry

     WARNING: you are using the parabolic pbc correction;
              the potential shift above must be added to 
              band and Fermi energies.

     convergence has been achieved in  10 iterations

     Forces acting on atoms (cartesian axes, Ry/au):

     atom    1 type  1   force =     0.21746395    0.00000252    0.09518510
     atom    2 type  1   force =    -0.03057229    0.00000154   -0.08017327
     atom    3 type  3   force =    -0.13947548   -0.00000240    0.04331328
     atom    4 type  2   force =     0.01854462   -0.02809351    0.00852295
     atom    5 type  2   force =    -0.03096013   -0.00000050    0.01126929
     atom    6 type  2   force =     0.01854315    0.02809526    0.00852430
     atom    7 type  4   force =    -0.09239146   -0.00000589   -0.00009264
     atom    8 type  2   force =     0.00690209    0.00000059   -0.05290369
     atom    9 type  2   force =     0.04324830    0.00000249    0.03725532
     atom   10 type  2   force =    -0.01130276   -0.00000009   -0.07090065

     Total force =     0.329144     Total SCF correction =     0.002246

 
     init_run     :      3.23s CPU      3.47s WALL (       1 calls)
     electrons    :     47.13s CPU     50.63s WALL (       1 calls)
     forces       :      0.68s CPU      0.79s WALL (       1 calls)

     Called by init_run:
     wfcinit      :      0.10s CPU      0.10s WALL (       1 calls)
     potinit      :      0.91s CPU      0.99s WALL (       1 calls)
     hinit0       :      1.81s CPU      1.83s WALL (       1 calls)

     Called by electrons:
     c_bands      :      1.97s CPU      2.13s WALL (      10 calls)
     sum_band     :      3.99s CPU      4.60s WALL (      10 calls)
     v_of_rho     :      3.99s CPU      4.45s WALL (      11 calls)
     newd         :      2.61s CPU      3.37s WALL (      11 calls)
     mix_rho      :      0.54s CPU      0.55s WALL (      10 calls)

     Called by c_bands:
     init_us_2    :      0.06s CPU      0.08s WALL (      21 calls)
     init_us_2:cp :      0.06s CPU      0.08s WALL (      21 calls)
     regterg      :      1.86s CPU      1.99s WALL (      10 calls)

     Called by *egterg:
     rdiaghg      :      0.01s CPU      0.01s WALL (      49 calls)
     h_psi        :      1.76s CPU      1.88s WALL (      50 calls)
     s_psi        :      0.05s CPU      0.05s WALL (      50 calls)
     g_psi        :      0.01s CPU      0.01s WALL (      39 calls)

     Called by h_psi:
     h_psi:calbec :      0.04s CPU      0.04s WALL (      50 calls)
     vloc_psi     :      1.66s CPU      1.79s WALL (      50 calls)
     add_vuspsi   :      0.05s CPU      0.05s WALL (      50 calls)

     General routines
     calbec       :      0.06s CPU      0.06s WALL (      64 calls)
     fft          :      1.96s CPU      2.02s WALL (     121 calls)
     ffts         :      0.06s CPU      0.06s WALL (      21 calls)
     fftw         :      1.37s CPU      1.48s WALL (     476 calls)
     interpolate  :      0.26s CPU      0.27s WALL (      11 calls)
 
     Parallel routines
 
     Environ routines
 
     PWSCF        :     51.12s CPU     54.99s WALL

 
   This run was terminated on:  20:39:46  22Apr2022            

=------------------------------------------------------------------------------=
   JOB DONE.
=------------------------------------------------------------------------------=

%%%% CELL %%%%%%%%%%%%%%%%%%%%%%%%%%%%%%%%%%%%%%%%%%%%%%%%%%%%%%%%%%%%%%%%%%%%%%

 cell label                 = system         

 cell volume                =    8000.000000

%%%% IONS %%%%%%%%%%%%%%%%%%%%%%%%%%%%%%%%%%%%%%%%%%%%%%%%%%%%%%%%%%%%%%%%%%%%%%

 total charge               =    -25.0000000
 center of charge           =      0.1036944    -0.0000075     0.0650154
 dipole                     =      0.0000000     0.0000000     0.0000000
 quadrupole (pc)            =    -79.2736207    -5.4513517  -105.9050187
 quadrupole (gauss)         =    -82.3986207    -8.5763517  -109.0300187

   i | type | coordinates
 -----------------------------------------------------------------------
   1 |    1 |                      0.0000000     0.0000000     0.0000000
   2 |    1 |                      0.0000000     0.0000000     2.9101782
   3 |    3 |                      2.3419379     0.0000000    -1.0900479
   4 |    2 |                      0.9532347    -1.6509323     3.5841800
   5 |    2 |                     -1.9063663    -0.0000596     3.5841809
   6 |    2 |                      0.9531315     1.6509919     3.5841800
   7 |    4 |                     -1.9680045    -0.0000375    -1.2826193
   8 |    2 |                      2.5262613    -0.0000303    -2.9510950
   9 |    2 |                      3.8892907     0.0002681    -0.0514326
  10 |    2 |                     -1.5407317    -0.0000890    -3.0457220

%%%% SYSTEM %%%%%%%%%%%%%%%%%%%%%%%%%%%%%%%%%%%%%%%%%%%%%%%%%%%%%%%%%%%%%%%%%%%%

 system is built from all present ionic types

 system defined dimension   =              0
 system defined axis        =              3

 system center              =      0.1036944    -0.0000075     0.0650154
 system width               =      4.0527608

%%%% IONS %%%%%%%%%%%%%%%%%%%%%%%%%%%%%%%%%%%%%%%%%%%%%%%%%%%%%%%%%%%%%%%%%%%%%%

 total charge               =    -25.0000000
 center of charge           =      0.1036944    -0.0000075     0.0650154
 dipole                     =      0.0000000     0.0000000     0.0000000
 quadrupole (pc)            =    -79.2736207    -5.4513517  -105.9050187
 quadrupole (gauss)         =    -82.3986207    -8.5763517  -109.0300187

   i | type | coordinates
 -----------------------------------------------------------------------
   1 |    1 |                      0.0000000     0.0000000     0.0000000
   2 |    1 |                      0.0000000     0.0000000     2.9101782
   3 |    3 |                      2.3419379     0.0000000    -1.0900479
   4 |    2 |                      0.9532347    -1.6509323     3.5841800
   5 |    2 |                     -1.9063663    -0.0000596     3.5841809
   6 |    2 |                      0.9531315     1.6509919     3.5841800
   7 |    4 |                     -1.9680045    -0.0000375    -1.2826193
   8 |    2 |                      2.5262613    -0.0000303    -2.9510950
   9 |    2 |                      3.8892907     0.0002681    -0.0514326
  10 |    2 |                     -1.5407317    -0.0000890    -3.0457220

%%%% SYSTEM %%%%%%%%%%%%%%%%%%%%%%%%%%%%%%%%%%%%%%%%%%%%%%%%%%%%%%%%%%%%%%%%%%%%

 system is built from all present ionic types

 system defined dimension   =              0
 system defined axis        =              3

 system center              =      0.1036944    -0.0000075     0.0650154
 system width               =      4.0527608

%%%% CHARGES %%%%%%%%%%%%%%%%%%%%%%%%%%%%%%%%%%%%%%%%%%%%%%%%%%%%%%%%%%%%%%%%%%%

 total number of charges    =             10

 total charge               =    -25.0000000

%%%% CHARGES %%%%%%%%%%%%%%%%%%%%%%%%%%%%%%%%%%%%%%%%%%%%%%%%%%%%%%%%%%%%%%%%%%%

 total number of charges    =             10

 total charge               =    -25.0000000

%%%% CELL %%%%%%%%%%%%%%%%%%%%%%%%%%%%%%%%%%%%%%%%%%%%%%%%%%%%%%%%%%%%%%%%%%%%%%

 cell label                 = system         

 cell volume                =    8000.000000

%%%% ELECTRONS %%%%%%%%%%%%%%%%%%%%%%%%%%%%%%%%%%%%%%%%%%%%%%%%%%%%%%%%%%%%%%%%%

 number of electrons        =             24

 total electronic charge    =     24.0000000

%%%% ELECTRONS %%%%%%%%%%%%%%%%%%%%%%%%%%%%%%%%%%%%%%%%%%%%%%%%%%%%%%%%%%%%%%%%%

 number of electrons        =             24

 total electronic charge    =     24.0000000

%%%% CHARGES %%%%%%%%%%%%%%%%%%%%%%%%%%%%%%%%%%%%%%%%%%%%%%%%%%%%%%%%%%%%%%%%%%%

 total number of charges    =             34

 total charge               =     -1.0000000

%%%% CHARGES %%%%%%%%%%%%%%%%%%%%%%%%%%%%%%%%%%%%%%%%%%%%%%%%%%%%%%%%%%%%%%%%%%%

 total number of charges    =             34

 total charge               =     -1.0000000

%%%% BOUNDARY %%%%%%%%%%%%%%%%%%%%%%%%%%%%%%%%%%%%%%%%%%%%%%%%%%%%%%%%%%%%%%%%%%

 boundary label             = solvent             
 boundary mode              = electronic          

 using the optimal SCCS function:
 rhomax                     =      0.0050000
 rhomin                     =      0.0001000

 volume of the QM region    =   1611.6286938

 surface of the QM region   =    641.7174084

%%%% DENSITY %%%%%%%%%%%%%%%%%%%%%%%%%%%%%%%%%%%%%%%%%%%%%%%%%%%%%%%%%%%%%%%%%%%

 density label              = dvtot                                             

 integral of density        =    0.000000000    

%%%% DENSITY %%%%%%%%%%%%%%%%%%%%%%%%%%%%%%%%%%%%%%%%%%%%%%%%%%%%%%%%%%%%%%%%%%%

 density label              = vreference                                        

 integral of density        =    0.000000000    

%%%% DENSITY %%%%%%%%%%%%%%%%%%%%%%%%%%%%%%%%%%%%%%%%%%%%%%%%%%%%%%%%%%%%%%%%%%%

 density label              = velectrostatic                                    

 integral of density        =    0.000000000    

%%%% CHARGES %%%%%%%%%%%%%%%%%%%%%%%%%%%%%%%%%%%%%%%%%%%%%%%%%%%%%%%%%%%%%%%%%%%

 total number of charges    =             34

 total charge               =     -1.0000000

%%%% DENSITY %%%%%%%%%%%%%%%%%%%%%%%%%%%%%%%%%%%%%%%%%%%%%%%%%%%%%%%%%%%%%%%%%%%

 density label              = vsoftcavity                                       

 integral of density        =    0.000000000    

%%%% ELECTRONS %%%%%%%%%%%%%%%%%%%%%%%%%%%%%%%%%%%%%%%%%%%%%%%%%%%%%%%%%%%%%%%%%

 number of electrons        =             24

 total electronic charge    =     24.0000000

%%%% ELECTRONS %%%%%%%%%%%%%%%%%%%%%%%%%%%%%%%%%%%%%%%%%%%%%%%%%%%%%%%%%%%%%%%%%

 number of electrons        =             24

 total electronic charge    =     24.0000000

%%%% CHARGES %%%%%%%%%%%%%%%%%%%%%%%%%%%%%%%%%%%%%%%%%%%%%%%%%%%%%%%%%%%%%%%%%%%

 total number of charges    =             34

 total charge               =     -1.0000000

%%%% CHARGES %%%%%%%%%%%%%%%%%%%%%%%%%%%%%%%%%%%%%%%%%%%%%%%%%%%%%%%%%%%%%%%%%%%

 total number of charges    =             34

 total charge               =     -1.0000000

%%%% BOUNDARY %%%%%%%%%%%%%%%%%%%%%%%%%%%%%%%%%%%%%%%%%%%%%%%%%%%%%%%%%%%%%%%%%%

 boundary label             = solvent             
 boundary mode              = electronic          

 using the optimal SCCS function:
 rhomax                     =      0.0050000
 rhomin                     =      0.0001000

 volume of the QM region    =    687.4669158

 surface of the QM region   =    391.9317725

%%%% DENSITY %%%%%%%%%%%%%%%%%%%%%%%%%%%%%%%%%%%%%%%%%%%%%%%%%%%%%%%%%%%%%%%%%%%

 density label              = vreference                                        

 integral of density        =  -0.6883053798E-12

%%%% COMPUTE ELECTROSTATIC POTENTIAL %%%%%%%%%%%%%%%%%%%%%%%%%%%%%%%%%%%%%%%%%%%

   i |      alpha     |       pAp      |      rzold     |    delta_qm    |    delta_en    |       tol
 ---------------------------------------------------------------------------------------------------------
   1 |   0.806249E+00 |   0.111917E+03 |   0.902333E+02 |   0.443548E-01 |   0.339958E+04 |   0.100000E-04
   2 |   0.645368E-01 |   0.387861E+04 |   0.250313E+03 |   0.408504E-02 |   0.288361E+02 |   0.100000E-04
   3 |   0.190956E+00 |   0.302815E+01 |   0.578241E+00 |   0.137781E-02 |   0.328037E+01 |   0.100000E-04
   4 |   0.200720E+00 |   0.322444E+00 |   0.647210E-01 |   0.737684E-03 |   0.940338E+00 |   0.100000E-04
   5 |   0.323860E+00 |   0.202051E-01 |   0.654363E-02 |   0.340405E-03 |   0.200233E+00 |   0.100000E-04
   6 |   0.419027E+00 |   0.334169E-02 |   0.140026E-02 |   0.160751E-03 |   0.446533E-01 |   0.100000E-04
   7 |   0.206422E+00 |   0.153533E-02 |   0.316925E-03 |   0.118979E-03 |   0.244616E-01 |   0.100000E-04
   8 |   0.338795E+00 |   0.258403E-03 |   0.875456E-04 |   0.109734E-03 |   0.208079E-01 |   0.100000E-04
   9 |   0.735490E+00 |   0.354510E-04 |   0.260738E-04 |   0.673001E-04 |   0.782663E-02 |   0.100000E-04
  10 |   0.769557E+00 |   0.278500E-04 |   0.214321E-04 |   0.274145E-04 |   0.129868E-02 |   0.100000E-04
  11 |   0.527480E+00 |   0.109367E-04 |   0.576891E-05 |   0.141643E-04 |   0.346686E-03 |   0.100000E-04
  12 |   0.482394E+00 |   0.173320E-05 |   0.836086E-06 |   0.703252E-05 |   0.854604E-04 |   0.100000E-04
  13 |   0.391326E+00 |   0.496227E-06 |   0.194186E-06 |   0.361791E-05 |   0.226182E-04 |   0.100000E-04
  14 |   0.338717E+00 |   0.176735E-06 |   0.598631E-07 |   0.229636E-05 |   0.911222E-05 |   0.100000E-04

 Charges are converged, EXIT

%%%% DENSITY %%%%%%%%%%%%%%%%%%%%%%%%%%%%%%%%%%%%%%%%%%%%%%%%%%%%%%%%%%%%%%%%%%%

 density label              = velectrostatic                                    

 integral of density        =   -240.6866078    

%%%% CHARGES %%%%%%%%%%%%%%%%%%%%%%%%%%%%%%%%%%%%%%%%%%%%%%%%%%%%%%%%%%%%%%%%%%%

 total number of charges    =             34

 total charge               =     -1.0000000

%%%% DENSITY %%%%%%%%%%%%%%%%%%%%%%%%%%%%%%%%%%%%%%%%%%%%%%%%%%%%%%%%%%%%%%%%%%%

 density label              = vsoftcavity                                       

 integral of density        =    72.23276466    

%%%% DENSITY %%%%%%%%%%%%%%%%%%%%%%%%%%%%%%%%%%%%%%%%%%%%%%%%%%%%%%%%%%%%%%%%%%%

 density label              = dvtot                                             

 integral of density        =   -168.4538431    

%%%% ELECTRONS %%%%%%%%%%%%%%%%%%%%%%%%%%%%%%%%%%%%%%%%%%%%%%%%%%%%%%%%%%%%%%%%%

 number of electrons        =             24

 total electronic charge    =     24.0000000

%%%% ELECTRONS %%%%%%%%%%%%%%%%%%%%%%%%%%%%%%%%%%%%%%%%%%%%%%%%%%%%%%%%%%%%%%%%%

 number of electrons        =             24

 total electronic charge    =     24.0000000

%%%% CHARGES %%%%%%%%%%%%%%%%%%%%%%%%%%%%%%%%%%%%%%%%%%%%%%%%%%%%%%%%%%%%%%%%%%%

 total number of charges    =             34

 total charge               =     -1.0000000

%%%% CHARGES %%%%%%%%%%%%%%%%%%%%%%%%%%%%%%%%%%%%%%%%%%%%%%%%%%%%%%%%%%%%%%%%%%%

 total number of charges    =             34

 total charge               =     -1.0000000

%%%% BOUNDARY %%%%%%%%%%%%%%%%%%%%%%%%%%%%%%%%%%%%%%%%%%%%%%%%%%%%%%%%%%%%%%%%%%

 boundary label             = solvent             
 boundary mode              = electronic          

 using the optimal SCCS function:
 rhomax                     =      0.0050000
 rhomin                     =      0.0001000

 volume of the QM region    =    635.8688563

 surface of the QM region   =    379.1305432

%%%% DENSITY %%%%%%%%%%%%%%%%%%%%%%%%%%%%%%%%%%%%%%%%%%%%%%%%%%%%%%%%%%%%%%%%%%%

 density label              = vreference                                        

 integral of density        =  -0.1154171409E-11

%%%% COMPUTE ELECTROSTATIC POTENTIAL %%%%%%%%%%%%%%%%%%%%%%%%%%%%%%%%%%%%%%%%%%%

 Warning: Bad guess with residual norm =   0.867525E+04, reset to no guess

   i |      alpha     |       pAp      |      rzold     |    delta_qm    |    delta_en    |       tol
 ---------------------------------------------------------------------------------------------------------
   1 |   0.822235E+00 |   0.113426E+03 |   0.932629E+02 |   0.595201E-01 |   0.612169E+04 |   0.100000E-04
   2 |   0.522576E-01 |   0.564293E+04 |   0.294886E+03 |   0.716179E-02 |   0.886313E+02 |   0.100000E-04
   3 |   0.128952E+00 |   0.122901E+02 |   0.158484E+01 |   0.211623E-02 |   0.773870E+01 |   0.100000E-04
   4 |   0.192037E+00 |   0.515937E+00 |   0.990790E-01 |   0.916635E-03 |   0.145190E+01 |   0.100000E-04
   5 |   0.291795E+00 |   0.247125E-01 |   0.721100E-02 |   0.501560E-03 |   0.434700E+00 |   0.100000E-04
   6 |   0.260518E+00 |   0.101011E-01 |   0.263151E-02 |   0.360136E-03 |   0.224118E+00 |   0.100000E-04
   7 |   0.225371E+00 |   0.578753E-02 |   0.130434E-02 |   0.307044E-03 |   0.162909E+00 |   0.100000E-04
   8 |   0.436888E+00 |   0.501904E-03 |   0.219276E-03 |   0.287988E-03 |   0.143315E+00 |   0.100000E-04
   9 |   0.824343E+00 |   0.152112E-03 |   0.125393E-03 |   0.192964E-03 |   0.643424E-01 |   0.100000E-04
  10 |   0.687796E+00 |   0.204333E-03 |   0.140539E-03 |   0.784478E-04 |   0.106342E-01 |   0.100000E-04
  11 |   0.428301E+00 |   0.837589E-04 |   0.358740E-04 |   0.497722E-04 |   0.428072E-02 |   0.100000E-04
  12 |   0.375358E+00 |   0.222687E-04 |   0.835874E-05 |   0.336858E-04 |   0.196082E-02 |   0.100000E-04
  13 |   0.456214E+00 |   0.514919E-05 |   0.234913E-05 |   0.208205E-04 |   0.749073E-03 |   0.100000E-04
  14 |   0.431111E+00 |   0.253846E-05 |   0.109436E-05 |   0.145469E-04 |   0.365666E-03 |   0.100000E-04
  15 |   0.404761E+00 |   0.126257E-05 |   0.511039E-06 |   0.912065E-05 |   0.143746E-03 |   0.100000E-04
  16 |   0.702016E-01 |   0.120535E-04 |   0.846171E-06 |   0.871296E-05 |   0.131182E-03 |   0.100000E-04
  17 |   0.404854E+00 |   0.728543E-06 |   0.294954E-06 |   0.373573E-05 |   0.241155E-04 |   0.100000E-04
  18 |   0.323108E+00 |   0.205573E-06 |   0.664223E-07 |   0.222044E-05 |   0.851969E-05 |   0.100000E-04

 Charges are converged, EXIT

%%%% DENSITY %%%%%%%%%%%%%%%%%%%%%%%%%%%%%%%%%%%%%%%%%%%%%%%%%%%%%%%%%%%%%%%%%%%

 density label              = velectrostatic                                    

 integral of density        =   -242.4632112    

%%%% CHARGES %%%%%%%%%%%%%%%%%%%%%%%%%%%%%%%%%%%%%%%%%%%%%%%%%%%%%%%%%%%%%%%%%%%

 total number of charges    =             34

 total charge               =     -1.0000000

%%%% DENSITY %%%%%%%%%%%%%%%%%%%%%%%%%%%%%%%%%%%%%%%%%%%%%%%%%%%%%%%%%%%%%%%%%%%

 density label              = vsoftcavity                                       

 integral of density        =    48.87429449    

%%%% DENSITY %%%%%%%%%%%%%%%%%%%%%%%%%%%%%%%%%%%%%%%%%%%%%%%%%%%%%%%%%%%%%%%%%%%

 density label              = dvtot                                             

 integral of density        =   -193.5889167    

%%%% ELECTRONS %%%%%%%%%%%%%%%%%%%%%%%%%%%%%%%%%%%%%%%%%%%%%%%%%%%%%%%%%%%%%%%%%

 number of electrons        =             24

 total electronic charge    =     24.0000000

%%%% ELECTRONS %%%%%%%%%%%%%%%%%%%%%%%%%%%%%%%%%%%%%%%%%%%%%%%%%%%%%%%%%%%%%%%%%

 number of electrons        =             24

 total electronic charge    =     24.0000000

%%%% CHARGES %%%%%%%%%%%%%%%%%%%%%%%%%%%%%%%%%%%%%%%%%%%%%%%%%%%%%%%%%%%%%%%%%%%

 total number of charges    =             34

 total charge               =     -1.0000000

%%%% CHARGES %%%%%%%%%%%%%%%%%%%%%%%%%%%%%%%%%%%%%%%%%%%%%%%%%%%%%%%%%%%%%%%%%%%

 total number of charges    =             34

 total charge               =     -1.0000000

%%%% BOUNDARY %%%%%%%%%%%%%%%%%%%%%%%%%%%%%%%%%%%%%%%%%%%%%%%%%%%%%%%%%%%%%%%%%%

 boundary label             = solvent             
 boundary mode              = electronic          

 using the optimal SCCS function:
 rhomax                     =      0.0050000
 rhomin                     =      0.0001000

 volume of the QM region    =    608.0091115

 surface of the QM region   =    371.9083124

%%%% DENSITY %%%%%%%%%%%%%%%%%%%%%%%%%%%%%%%%%%%%%%%%%%%%%%%%%%%%%%%%%%%%%%%%%%%

 density label              = vreference                                        

 integral of density        =   0.2544137740E-12

%%%% COMPUTE ELECTROSTATIC POTENTIAL %%%%%%%%%%%%%%%%%%%%%%%%%%%%%%%%%%%%%%%%%%%

 Warning: Bad guess with residual norm =   0.109859E+05, reset to no guess

   i |      alpha     |       pAp      |      rzold     |    delta_qm    |    delta_en    |       tol
 ---------------------------------------------------------------------------------------------------------
   1 |   0.832117E+00 |   0.112961E+03 |   0.939966E+02 |   0.673464E-01 |   0.783740E+04 |   0.100000E-04
   2 |   0.456790E-01 |   0.708152E+04 |   0.323477E+03 |   0.811947E-02 |   0.113920E+03 |   0.100000E-04
   3 |   0.120067E+00 |   0.132484E+02 |   0.159070E+01 |   0.246042E-02 |   0.104607E+02 |   0.100000E-04
   4 |   0.164806E+00 |   0.805458E+00 |   0.132744E+00 |   0.105464E-02 |   0.192199E+01 |   0.100000E-04
   5 |   0.251020E+00 |   0.374237E-01 |   0.939411E-02 |   0.627327E-03 |   0.680036E+00 |   0.100000E-04
   6 |   0.252472E+00 |   0.121075E-01 |   0.305682E-02 |   0.468753E-03 |   0.379693E+00 |   0.100000E-04
   7 |   0.217362E+00 |   0.809709E-02 |   0.176000E-02 |   0.415178E-03 |   0.297860E+00 |   0.100000E-04
   8 |   0.384888E+00 |   0.106573E-02 |   0.410186E-03 |   0.418710E-03 |   0.302949E+00 |   0.100000E-04
   9 |   0.739457E+00 |   0.294017E-03 |   0.217413E-03 |   0.331973E-03 |   0.190436E+00 |   0.100000E-04
  10 |   0.746131E+00 |   0.373354E-03 |   0.278571E-03 |   0.143379E-03 |   0.355236E-01 |   0.100000E-04
  11 |   0.353994E+00 |   0.394056E-03 |   0.139493E-03 |   0.957659E-04 |   0.158477E-01 |   0.100000E-04
  12 |   0.293420E+00 |   0.152629E-03 |   0.447846E-04 |   0.694786E-04 |   0.834154E-02 |   0.100000E-04
  13 |   0.394836E+00 |   0.242667E-04 |   0.958135E-05 |   0.496688E-04 |   0.426296E-02 |   0.100000E-04
  14 |   0.471095E+00 |   0.922465E-05 |   0.434569E-05 |   0.339973E-04 |   0.199725E-02 |   0.100000E-04
  15 |   0.336207E+00 |   0.628352E-05 |   0.211256E-05 |   0.241152E-04 |   0.100491E-02 |   0.100000E-04
  16 |   0.690181E-01 |   0.890367E-04 |   0.614514E-05 |   0.226757E-04 |   0.888520E-03 |   0.100000E-04
  17 |   0.428197E+00 |   0.294755E-05 |   0.126213E-05 |   0.130397E-04 |   0.293819E-03 |   0.100000E-04
  18 |   0.256327E+00 |   0.254094E-05 |   0.651312E-06 |   0.860361E-05 |   0.127910E-03 |   0.100000E-04
  19 |   0.336473E+00 |   0.821221E-06 |   0.276319E-06 |   0.451435E-05 |   0.352155E-04 |   0.100000E-04
  20 |   0.488963E+00 |   0.782351E-07 |   0.382541E-07 |   0.286318E-05 |   0.141658E-04 |   0.100000E-04
  21 |   0.587547E+00 |   0.159088E-07 |   0.934719E-08 |   0.162460E-05 |   0.456075E-05 |   0.100000E-04

 Charges are converged, EXIT

%%%% DENSITY %%%%%%%%%%%%%%%%%%%%%%%%%%%%%%%%%%%%%%%%%%%%%%%%%%%%%%%%%%%%%%%%%%%

 density label              = velectrostatic                                    

 integral of density        =   -238.7957654    

%%%% CHARGES %%%%%%%%%%%%%%%%%%%%%%%%%%%%%%%%%%%%%%%%%%%%%%%%%%%%%%%%%%%%%%%%%%%

 total number of charges    =             34

 total charge               =     -1.0000000

%%%% DENSITY %%%%%%%%%%%%%%%%%%%%%%%%%%%%%%%%%%%%%%%%%%%%%%%%%%%%%%%%%%%%%%%%%%%

 density label              = vsoftcavity                                       

 integral of density        =    37.95232260    

%%%% DENSITY %%%%%%%%%%%%%%%%%%%%%%%%%%%%%%%%%%%%%%%%%%%%%%%%%%%%%%%%%%%%%%%%%%%

 density label              = dvtot                                             

 integral of density        =   -200.8434428    

%%%% ELECTRONS %%%%%%%%%%%%%%%%%%%%%%%%%%%%%%%%%%%%%%%%%%%%%%%%%%%%%%%%%%%%%%%%%

 number of electrons        =             24

 total electronic charge    =     24.0000000

%%%% ELECTRONS %%%%%%%%%%%%%%%%%%%%%%%%%%%%%%%%%%%%%%%%%%%%%%%%%%%%%%%%%%%%%%%%%

 number of electrons        =             24

 total electronic charge    =     24.0000000

%%%% CHARGES %%%%%%%%%%%%%%%%%%%%%%%%%%%%%%%%%%%%%%%%%%%%%%%%%%%%%%%%%%%%%%%%%%%

 total number of charges    =             34

 total charge               =     -1.0000000

%%%% CHARGES %%%%%%%%%%%%%%%%%%%%%%%%%%%%%%%%%%%%%%%%%%%%%%%%%%%%%%%%%%%%%%%%%%%

 total number of charges    =             34

 total charge               =     -1.0000000

%%%% BOUNDARY %%%%%%%%%%%%%%%%%%%%%%%%%%%%%%%%%%%%%%%%%%%%%%%%%%%%%%%%%%%%%%%%%%

 boundary label             = solvent             
 boundary mode              = electronic          

 using the optimal SCCS function:
 rhomax                     =      0.0050000
 rhomin                     =      0.0001000

 volume of the QM region    =    589.4163451

 surface of the QM region   =    366.7718804

%%%% DENSITY %%%%%%%%%%%%%%%%%%%%%%%%%%%%%%%%%%%%%%%%%%%%%%%%%%%%%%%%%%%%%%%%%%%

 density label              = vreference                                        

 integral of density        =  -0.9254161223E-12

%%%% COMPUTE ELECTROSTATIC POTENTIAL %%%%%%%%%%%%%%%%%%%%%%%%%%%%%%%%%%%%%%%%%%%

 Warning: Bad guess with residual norm =   0.149418E+05, reset to no guess

   i |      alpha     |       pAp      |      rzold     |    delta_qm    |    delta_en    |       tol
 ---------------------------------------------------------------------------------------------------------
   1 |   0.838170E+00 |   0.111967E+03 |   0.938477E+02 |   0.787334E-01 |   0.107118E+05 |   0.100000E-04
   2 |   0.418176E-01 |   0.812586E+04 |   0.339804E+03 |   0.107385E-01 |   0.199263E+03 |   0.100000E-04
   3 |   0.109614E+00 |   0.200176E+02 |   0.219421E+01 |   0.304739E-02 |   0.160472E+02 |   0.100000E-04
   4 |   0.152776E+00 |   0.109602E+01 |   0.167444E+00 |   0.125766E-02 |   0.273318E+01 |   0.100000E-04
   5 |   0.226026E+00 |   0.517996E-01 |   0.117081E-01 |   0.795692E-03 |   0.109404E+01 |   0.100000E-04
   6 |   0.223730E+00 |   0.173659E-01 |   0.388527E-02 |   0.611803E-03 |   0.646795E+00 |   0.100000E-04
   7 |   0.225390E+00 |   0.981496E-02 |   0.221219E-02 |   0.559998E-03 |   0.541897E+00 |   0.100000E-04
   8 |   0.361826E+00 |   0.159716E-02 |   0.577894E-03 |   0.579450E-03 |   0.580198E+00 |   0.100000E-04
   9 |   0.677376E+00 |   0.425858E-03 |   0.288466E-03 |   0.490722E-03 |   0.416117E+00 |   0.100000E-04
  10 |   0.788736E+00 |   0.484286E-03 |   0.381974E-03 |   0.227073E-03 |   0.890994E-01 |   0.100000E-04
  11 |   0.340162E+00 |   0.837292E-03 |   0.284815E-03 |   0.157184E-03 |   0.426935E-01 |   0.100000E-04
  12 |   0.286179E+00 |   0.361285E-03 |   0.103392E-03 |   0.120402E-03 |   0.250504E-01 |   0.100000E-04
  13 |   0.361848E+00 |   0.604164E-04 |   0.218616E-04 |   0.924238E-04 |   0.147609E-01 |   0.100000E-04
  14 |   0.451674E+00 |   0.231166E-04 |   0.104412E-04 |   0.630661E-04 |   0.687282E-02 |   0.100000E-04
  15 |   0.737679E-01 |   0.136423E-03 |   0.100636E-04 |   0.622818E-04 |   0.670295E-02 |   0.100000E-04
  16 |   0.281936E+00 |   0.317364E-04 |   0.894765E-05 |   0.435223E-04 |   0.327317E-02 |   0.100000E-04
  17 |   0.507228E+00 |   0.659938E-05 |   0.334739E-05 |   0.264161E-04 |   0.120582E-02 |   0.100000E-04
  18 |   0.367863E+00 |   0.395085E-05 |   0.145337E-05 |   0.164204E-04 |   0.465918E-03 |   0.100000E-04
  19 |   0.213871E+00 |   0.481087E-05 |   0.102891E-05 |   0.104736E-04 |   0.189556E-03 |   0.100000E-04
  20 |   0.424330E+00 |   0.424434E-06 |   0.180100E-06 |   0.693389E-05 |   0.830803E-04 |   0.100000E-04
  21 |   0.539490E+00 |   0.784691E-07 |   0.423334E-07 |   0.446571E-05 |   0.344608E-04 |   0.100000E-04
  22 |   0.608643E+00 |   0.411380E-07 |   0.250383E-07 |   0.215541E-05 |   0.802792E-05 |   0.100000E-04

 Charges are converged, EXIT

%%%% DENSITY %%%%%%%%%%%%%%%%%%%%%%%%%%%%%%%%%%%%%%%%%%%%%%%%%%%%%%%%%%%%%%%%%%%

 density label              = velectrostatic                                    

 integral of density        =   -232.0760924    

%%%% CHARGES %%%%%%%%%%%%%%%%%%%%%%%%%%%%%%%%%%%%%%%%%%%%%%%%%%%%%%%%%%%%%%%%%%%

 total number of charges    =             34

 total charge               =     -1.0000000

%%%% DENSITY %%%%%%%%%%%%%%%%%%%%%%%%%%%%%%%%%%%%%%%%%%%%%%%%%%%%%%%%%%%%%%%%%%%

 density label              = vsoftcavity                                       

 integral of density        =    33.74500952    

%%%% DENSITY %%%%%%%%%%%%%%%%%%%%%%%%%%%%%%%%%%%%%%%%%%%%%%%%%%%%%%%%%%%%%%%%%%%

 density label              = dvtot                                             

 integral of density        =   -198.3310829    

%%%% ELECTRONS %%%%%%%%%%%%%%%%%%%%%%%%%%%%%%%%%%%%%%%%%%%%%%%%%%%%%%%%%%%%%%%%%

 number of electrons        =             24

 total electronic charge    =     24.0000000

%%%% ELECTRONS %%%%%%%%%%%%%%%%%%%%%%%%%%%%%%%%%%%%%%%%%%%%%%%%%%%%%%%%%%%%%%%%%

 number of electrons        =             24

 total electronic charge    =     24.0000000

%%%% CHARGES %%%%%%%%%%%%%%%%%%%%%%%%%%%%%%%%%%%%%%%%%%%%%%%%%%%%%%%%%%%%%%%%%%%

 total number of charges    =             34

 total charge               =     -1.0000000

%%%% CHARGES %%%%%%%%%%%%%%%%%%%%%%%%%%%%%%%%%%%%%%%%%%%%%%%%%%%%%%%%%%%%%%%%%%%

 total number of charges    =             34

 total charge               =     -1.0000000

%%%% BOUNDARY %%%%%%%%%%%%%%%%%%%%%%%%%%%%%%%%%%%%%%%%%%%%%%%%%%%%%%%%%%%%%%%%%%

 boundary label             = solvent             
 boundary mode              = electronic          

 using the optimal SCCS function:
 rhomax                     =      0.0050000
 rhomin                     =      0.0001000

 volume of the QM region    =    590.0298047

 surface of the QM region   =    367.1431507

%%%% DENSITY %%%%%%%%%%%%%%%%%%%%%%%%%%%%%%%%%%%%%%%%%%%%%%%%%%%%%%%%%%%%%%%%%%%

 density label              = vreference                                        

 integral of density        =  -0.5136302906E-12

%%%% COMPUTE ELECTROSTATIC POTENTIAL %%%%%%%%%%%%%%%%%%%%%%%%%%%%%%%%%%%%%%%%%%%

 Warning: Bad guess with residual norm =   0.152067E+05, reset to no guess

   i |      alpha     |       pAp      |      rzold     |    delta_qm    |    delta_en    |       tol
 ---------------------------------------------------------------------------------------------------------
   1 |   0.838956E+00 |   0.111839E+03 |   0.938277E+02 |   0.794802E-01 |   0.109160E+05 |   0.100000E-04
   2 |   0.416333E-01 |   0.814904E+04 |   0.339272E+03 |   0.110397E-01 |   0.210599E+03 |   0.100000E-04
   3 |   0.109713E+00 |   0.207828E+02 |   0.228014E+01 |   0.316414E-02 |   0.173004E+02 |   0.100000E-04
   4 |   0.151472E+00 |   0.117535E+01 |   0.178033E+00 |   0.128258E-02 |   0.284259E+01 |   0.100000E-04
   5 |   0.225388E+00 |   0.536965E-01 |   0.121025E-01 |   0.810370E-03 |   0.113478E+01 |   0.100000E-04
   6 |   0.227125E+00 |   0.171599E-01 |   0.389743E-02 |   0.623611E-03 |   0.672004E+00 |   0.100000E-04
   7 |   0.221326E+00 |   0.102969E-01 |   0.227897E-02 |   0.571098E-03 |   0.563592E+00 |   0.100000E-04
   8 |   0.359403E+00 |   0.163904E-02 |   0.589074E-03 |   0.590188E-03 |   0.601900E+00 |   0.100000E-04
   9 |   0.671464E+00 |   0.436263E-03 |   0.292935E-03 |   0.501849E-03 |   0.435201E+00 |   0.100000E-04
  10 |   0.797119E+00 |   0.482489E-03 |   0.384601E-03 |   0.232465E-03 |   0.933814E-01 |   0.100000E-04
  11 |   0.343085E+00 |   0.849666E-03 |   0.291508E-03 |   0.161713E-03 |   0.451893E-01 |   0.100000E-04
  12 |   0.287514E+00 |   0.374124E-03 |   0.107566E-03 |   0.124481E-03 |   0.267764E-01 |   0.100000E-04
  13 |   0.359317E+00 |   0.639246E-04 |   0.229692E-04 |   0.962567E-04 |   0.160105E-01 |   0.100000E-04
  14 |   0.437257E+00 |   0.255816E-04 |   0.111857E-04 |   0.661718E-04 |   0.756641E-02 |   0.100000E-04
  15 |   0.609620E-01 |   0.232680E-03 |   0.141847E-04 |   0.650517E-04 |   0.731241E-02 |   0.100000E-04
  16 |   0.349687E+00 |   0.227628E-04 |   0.795987E-05 |   0.456110E-04 |   0.359487E-02 |   0.100000E-04
  17 |   0.486162E+00 |   0.751672E-05 |   0.365434E-05 |   0.282895E-04 |   0.138291E-02 |   0.100000E-04
  18 |   0.281459E+00 |   0.674964E-05 |   0.189975E-05 |   0.194553E-04 |   0.654066E-03 |   0.100000E-04
  19 |   0.275872E+00 |   0.432650E-05 |   0.119356E-05 |   0.112103E-04 |   0.217158E-03 |   0.100000E-04
  20 |   0.450684E+00 |   0.420855E-06 |   0.189673E-06 |   0.738649E-05 |   0.942801E-04 |   0.100000E-04
  21 |   0.551343E+00 |   0.837056E-07 |   0.461505E-07 |   0.472668E-05 |   0.386061E-04 |   0.100000E-04
  22 |   0.594673E+00 |   0.480487E-07 |   0.285733E-07 |   0.231493E-05 |   0.926016E-05 |   0.100000E-04

 Charges are converged, EXIT

%%%% DENSITY %%%%%%%%%%%%%%%%%%%%%%%%%%%%%%%%%%%%%%%%%%%%%%%%%%%%%%%%%%%%%%%%%%%

 density label              = velectrostatic                                    

 integral of density        =   -231.3114309    

%%%% CHARGES %%%%%%%%%%%%%%%%%%%%%%%%%%%%%%%%%%%%%%%%%%%%%%%%%%%%%%%%%%%%%%%%%%%

 total number of charges    =             34

 total charge               =     -1.0000000

%%%% DENSITY %%%%%%%%%%%%%%%%%%%%%%%%%%%%%%%%%%%%%%%%%%%%%%%%%%%%%%%%%%%%%%%%%%%

 density label              = vsoftcavity                                       

 integral of density        =    34.04455320    

%%%% DENSITY %%%%%%%%%%%%%%%%%%%%%%%%%%%%%%%%%%%%%%%%%%%%%%%%%%%%%%%%%%%%%%%%%%%

 density label              = dvtot                                             

 integral of density        =   -197.2668777    

%%%% ELECTRONS %%%%%%%%%%%%%%%%%%%%%%%%%%%%%%%%%%%%%%%%%%%%%%%%%%%%%%%%%%%%%%%%%

 number of electrons        =             24

 total electronic charge    =     24.0000000

%%%% ELECTRONS %%%%%%%%%%%%%%%%%%%%%%%%%%%%%%%%%%%%%%%%%%%%%%%%%%%%%%%%%%%%%%%%%

 number of electrons        =             24

 total electronic charge    =     24.0000000

%%%% CHARGES %%%%%%%%%%%%%%%%%%%%%%%%%%%%%%%%%%%%%%%%%%%%%%%%%%%%%%%%%%%%%%%%%%%

 total number of charges    =             34

 total charge               =     -1.0000000

%%%% CHARGES %%%%%%%%%%%%%%%%%%%%%%%%%%%%%%%%%%%%%%%%%%%%%%%%%%%%%%%%%%%%%%%%%%%

 total number of charges    =             34

 total charge               =     -1.0000000

%%%% BOUNDARY %%%%%%%%%%%%%%%%%%%%%%%%%%%%%%%%%%%%%%%%%%%%%%%%%%%%%%%%%%%%%%%%%%

 boundary label             = solvent             
 boundary mode              = electronic          

 using the optimal SCCS function:
 rhomax                     =      0.0050000
 rhomin                     =      0.0001000

 volume of the QM region    =    591.2071063

 surface of the QM region   =    367.7007101

%%%% DENSITY %%%%%%%%%%%%%%%%%%%%%%%%%%%%%%%%%%%%%%%%%%%%%%%%%%%%%%%%%%%%%%%%%%%

 density label              = vreference                                        

 integral of density        =  -0.5111960238E-13

%%%% COMPUTE ELECTROSTATIC POTENTIAL %%%%%%%%%%%%%%%%%%%%%%%%%%%%%%%%%%%%%%%%%%%

 Warning: Bad guess with residual norm =   0.154327E+05, reset to no guess

   i |      alpha     |       pAp      |      rzold     |    delta_qm    |    delta_en    |       tol
 ---------------------------------------------------------------------------------------------------------
   1 |   0.839262E+00 |   0.111770E+03 |   0.938047E+02 |   0.800829E-01 |   0.110821E+05 |   0.100000E-04
   2 |   0.415454E-01 |   0.815778E+04 |   0.338918E+03 |   0.113535E-01 |   0.222742E+03 |   0.100000E-04
   3 |   0.109969E+00 |   0.215415E+02 |   0.236889E+01 |   0.326859E-02 |   0.184614E+02 |   0.100000E-04
   4 |   0.150603E+00 |   0.125023E+01 |   0.188289E+00 |   0.130735E-02 |   0.295343E+01 |   0.100000E-04
   5 |   0.224297E+00 |   0.561033E-01 |   0.125838E-01 |   0.824401E-03 |   0.117441E+01 |   0.100000E-04
   6 |   0.228729E+00 |   0.172380E-01 |   0.394282E-02 |   0.635371E-03 |   0.697588E+00 |   0.100000E-04
   7 |   0.219286E+00 |   0.106574E-01 |   0.233702E-02 |   0.580339E-03 |   0.581980E+00 |   0.100000E-04
   8 |   0.358366E+00 |   0.168200E-02 |   0.602770E-03 |   0.599952E-03 |   0.621980E+00 |   0.100000E-04
   9 |   0.667050E+00 |   0.445791E-03 |   0.297365E-03 |   0.511840E-03 |   0.452702E+00 |   0.100000E-04
  10 |   0.803250E+00 |   0.481799E-03 |   0.387005E-03 |   0.237938E-03 |   0.978299E-01 |   0.100000E-04
  11 |   0.347950E+00 |   0.854160E-03 |   0.297205E-03 |   0.165780E-03 |   0.474904E-01 |   0.100000E-04
  12 |   0.287763E+00 |   0.386885E-03 |   0.111331E-03 |   0.128390E-03 |   0.284845E-01 |   0.100000E-04
  13 |   0.359070E+00 |   0.666467E-04 |   0.239308E-04 |   0.998933E-04 |   0.172432E-01 |   0.100000E-04
  14 |   0.466109E+00 |   0.253246E-04 |   0.118040E-04 |   0.686682E-04 |   0.814809E-02 |   0.100000E-04
  15 |   0.203230E+00 |   0.348961E-04 |   0.709193E-05 |   0.654781E-04 |   0.740859E-02 |   0.100000E-04
  16 |   0.100415E+00 |   0.212699E-03 |   0.213583E-04 |   0.468673E-04 |   0.379563E-02 |   0.100000E-04
  17 |   0.478017E+00 |   0.832297E-05 |   0.397852E-05 |   0.292560E-04 |   0.147902E-02 |   0.100000E-04
  18 |   0.292389E+00 |   0.663587E-05 |   0.194026E-05 |   0.199896E-04 |   0.690480E-03 |   0.100000E-04
  19 |   0.262344E+00 |   0.483761E-05 |   0.126912E-05 |   0.118298E-04 |   0.241825E-03 |   0.100000E-04
  20 |   0.451089E+00 |   0.456784E-06 |   0.206050E-06 |   0.782897E-05 |   0.105914E-03 |   0.100000E-04
  21 |   0.565896E+00 |   0.885421E-07 |   0.501057E-07 |   0.495933E-05 |   0.425000E-04 |   0.100000E-04
  22 |   0.581144E+00 |   0.550681E-07 |   0.320025E-07 |   0.246183E-05 |   0.104727E-04 |   0.100000E-04
  23 |   0.507380E+00 |   0.235837E-07 |   0.119659E-07 |   0.120956E-05 |   0.252813E-05 |   0.100000E-04

 Charges are converged, EXIT

%%%% DENSITY %%%%%%%%%%%%%%%%%%%%%%%%%%%%%%%%%%%%%%%%%%%%%%%%%%%%%%%%%%%%%%%%%%%

 density label              = velectrostatic                                    

 integral of density        =   -231.2455899    

%%%% CHARGES %%%%%%%%%%%%%%%%%%%%%%%%%%%%%%%%%%%%%%%%%%%%%%%%%%%%%%%%%%%%%%%%%%%

 total number of charges    =             34

 total charge               =     -1.0000000

%%%% DENSITY %%%%%%%%%%%%%%%%%%%%%%%%%%%%%%%%%%%%%%%%%%%%%%%%%%%%%%%%%%%%%%%%%%%

 density label              = vsoftcavity                                       

 integral of density        =    34.56777317    

%%%% DENSITY %%%%%%%%%%%%%%%%%%%%%%%%%%%%%%%%%%%%%%%%%%%%%%%%%%%%%%%%%%%%%%%%%%%

 density label              = dvtot                                             

 integral of density        =   -196.6778167    

%%%% ELECTRONS %%%%%%%%%%%%%%%%%%%%%%%%%%%%%%%%%%%%%%%%%%%%%%%%%%%%%%%%%%%%%%%%%

 number of electrons        =             24

 total electronic charge    =     24.0000000

%%%% ELECTRONS %%%%%%%%%%%%%%%%%%%%%%%%%%%%%%%%%%%%%%%%%%%%%%%%%%%%%%%%%%%%%%%%%

 number of electrons        =             24

 total electronic charge    =     24.0000000

%%%% CHARGES %%%%%%%%%%%%%%%%%%%%%%%%%%%%%%%%%%%%%%%%%%%%%%%%%%%%%%%%%%%%%%%%%%%

 total number of charges    =             34

 total charge               =     -1.0000000

%%%% CHARGES %%%%%%%%%%%%%%%%%%%%%%%%%%%%%%%%%%%%%%%%%%%%%%%%%%%%%%%%%%%%%%%%%%%

 total number of charges    =             34

 total charge               =     -1.0000000

%%%% BOUNDARY %%%%%%%%%%%%%%%%%%%%%%%%%%%%%%%%%%%%%%%%%%%%%%%%%%%%%%%%%%%%%%%%%%

 boundary label             = solvent             
 boundary mode              = electronic          

 using the optimal SCCS function:
 rhomax                     =      0.0050000
 rhomin                     =      0.0001000

 volume of the QM region    =    591.5958999

 surface of the QM region   =    367.9815330

%%%% DENSITY %%%%%%%%%%%%%%%%%%%%%%%%%%%%%%%%%%%%%%%%%%%%%%%%%%%%%%%%%%%%%%%%%%%

 density label              = vreference                                        

 integral of density        =  -0.8772571147E-12

%%%% COMPUTE ELECTROSTATIC POTENTIAL %%%%%%%%%%%%%%%%%%%%%%%%%%%%%%%%%%%%%%%%%%%

 Warning: Bad guess with residual norm =   0.157058E+05, reset to no guess

   i |      alpha     |       pAp      |      rzold     |    delta_qm    |    delta_en    |       tol
 ---------------------------------------------------------------------------------------------------------
   1 |   0.839285E+00 |   0.111801E+03 |   0.938332E+02 |   0.807772E-01 |   0.112751E+05 |   0.100000E-04
   2 |   0.414326E-01 |   0.819590E+04 |   0.339577E+03 |   0.117292E-01 |   0.237729E+03 |   0.100000E-04
   3 |   0.109773E+00 |   0.225401E+02 |   0.247430E+01 |   0.336502E-02 |   0.195668E+02 |   0.100000E-04
   4 |   0.149617E+00 |   0.131824E+01 |   0.197231E+00 |   0.132891E-02 |   0.305166E+01 |   0.100000E-04
   5 |   0.222419E+00 |   0.584021E-01 |   0.129898E-01 |   0.841182E-03 |   0.122271E+01 |   0.100000E-04
   6 |   0.227518E+00 |   0.176805E-01 |   0.402264E-02 |   0.647895E-03 |   0.725360E+00 |   0.100000E-04
   7 |   0.220363E+00 |   0.108147E-01 |   0.238315E-02 |   0.590303E-03 |   0.602136E+00 |   0.100000E-04
   8 |   0.357261E+00 |   0.173493E-02 |   0.619821E-03 |   0.611625E-03 |   0.646420E+00 |   0.100000E-04
   9 |   0.664839E+00 |   0.455660E-03 |   0.302940E-03 |   0.523105E-03 |   0.472848E+00 |   0.100000E-04
  10 |   0.805225E+00 |   0.488087E-03 |   0.393020E-03 |   0.243915E-03 |   0.102806E+00 |   0.100000E-04
  11 |   0.349868E+00 |   0.872361E-03 |   0.305211E-03 |   0.170430E-03 |   0.501920E-01 |   0.100000E-04
  12 |   0.288129E+00 |   0.401656E-03 |   0.115729E-03 |   0.132917E-03 |   0.305285E-01 |   0.100000E-04
  13 |   0.358109E+00 |   0.699986E-04 |   0.250671E-04 |   0.104118E-03 |   0.187326E-01 |   0.100000E-04
  14 |   0.441040E+00 |   0.285958E-04 |   0.126119E-04 |   0.767400E-04 |   0.101762E-01 |   0.100000E-04
  15 |   0.631055E-01 |   0.242864E-03 |   0.153260E-04 |   0.668801E-04 |   0.772925E-02 |   0.100000E-04
  16 |   0.335195E+00 |   0.287121E-04 |   0.962415E-05 |   0.495968E-04 |   0.425060E-02 |   0.100000E-04
  17 |   0.482427E+00 |   0.876331E-05 |   0.422766E-05 |   0.306661E-04 |   0.162502E-02 |   0.100000E-04
  18 |   0.280190E+00 |   0.768644E-05 |   0.215366E-05 |   0.213043E-04 |   0.784296E-03 |   0.100000E-04
  19 |   0.273376E+00 |   0.493510E-05 |   0.134914E-05 |   0.125352E-04 |   0.271525E-03 |   0.100000E-04
  20 |   0.451946E+00 |   0.497826E-06 |   0.224990E-06 |   0.832117E-05 |   0.119650E-03 |   0.100000E-04
  21 |   0.576505E+00 |   0.958202E-07 |   0.552409E-07 |   0.524289E-05 |   0.474991E-04 |   0.100000E-04
  22 |   0.572686E+00 |   0.628010E-07 |   0.359653E-07 |   0.263415E-05 |   0.119901E-04 |   0.100000E-04
  23 |   0.503446E+00 |   0.270038E-07 |   0.135950E-07 |   0.129522E-05 |   0.289889E-05 |   0.100000E-04

 Charges are converged, EXIT

%%%% DENSITY %%%%%%%%%%%%%%%%%%%%%%%%%%%%%%%%%%%%%%%%%%%%%%%%%%%%%%%%%%%%%%%%%%%

 density label              = velectrostatic                                    

 integral of density        =   -231.1603283    

%%%% CHARGES %%%%%%%%%%%%%%%%%%%%%%%%%%%%%%%%%%%%%%%%%%%%%%%%%%%%%%%%%%%%%%%%%%%

 total number of charges    =             34

 total charge               =     -1.0000000

%%%% DENSITY %%%%%%%%%%%%%%%%%%%%%%%%%%%%%%%%%%%%%%%%%%%%%%%%%%%%%%%%%%%%%%%%%%%

 density label              = vsoftcavity                                       

 integral of density        =    34.95332024    

%%%% DENSITY %%%%%%%%%%%%%%%%%%%%%%%%%%%%%%%%%%%%%%%%%%%%%%%%%%%%%%%%%%%%%%%%%%%

 density label              = dvtot                                             

 integral of density        =   -196.2070080    

%%%% ELECTRONS %%%%%%%%%%%%%%%%%%%%%%%%%%%%%%%%%%%%%%%%%%%%%%%%%%%%%%%%%%%%%%%%%

 number of electrons        =             24

 total electronic charge    =     24.0000000

%%%% ELECTRONS %%%%%%%%%%%%%%%%%%%%%%%%%%%%%%%%%%%%%%%%%%%%%%%%%%%%%%%%%%%%%%%%%

 number of electrons        =             24

 total electronic charge    =     24.0000000

%%%% CHARGES %%%%%%%%%%%%%%%%%%%%%%%%%%%%%%%%%%%%%%%%%%%%%%%%%%%%%%%%%%%%%%%%%%%

 total number of charges    =             34

 total charge               =     -1.0000000

%%%% CHARGES %%%%%%%%%%%%%%%%%%%%%%%%%%%%%%%%%%%%%%%%%%%%%%%%%%%%%%%%%%%%%%%%%%%

 total number of charges    =             34

 total charge               =     -1.0000000

%%%% BOUNDARY %%%%%%%%%%%%%%%%%%%%%%%%%%%%%%%%%%%%%%%%%%%%%%%%%%%%%%%%%%%%%%%%%%

 boundary label             = solvent             
 boundary mode              = electronic          

 using the optimal SCCS function:
 rhomax                     =      0.0050000
 rhomin                     =      0.0001000

 volume of the QM region    =    591.4553564

 surface of the QM region   =    367.9586665

%%%% DENSITY %%%%%%%%%%%%%%%%%%%%%%%%%%%%%%%%%%%%%%%%%%%%%%%%%%%%%%%%%%%%%%%%%%%

 density label              = vreference                                        

 integral of density        =  -0.7499515412E-12

%%%% COMPUTE ELECTROSTATIC POTENTIAL %%%%%%%%%%%%%%%%%%%%%%%%%%%%%%%%%%%%%%%%%%%

 Warning: Bad guess with residual norm =   0.158013E+05, reset to no guess

   i |      alpha     |       pAp      |      rzold     |    delta_qm    |    delta_en    |       tol
 ---------------------------------------------------------------------------------------------------------
   1 |   0.839069E+00 |   0.111828E+03 |   0.938318E+02 |   0.809994E-01 |   0.113372E+05 |   0.100000E-04
   2 |   0.414172E-01 |   0.820992E+04 |   0.340032E+03 |   0.118848E-01 |   0.244079E+03 |   0.100000E-04
   3 |   0.109800E+00 |   0.228859E+02 |   0.251287E+01 |   0.340213E-02 |   0.200007E+02 |   0.100000E-04
   4 |   0.149037E+00 |   0.134815E+01 |   0.200925E+00 |   0.133622E-02 |   0.308530E+01 |   0.100000E-04
   5 |   0.221927E+00 |   0.591200E-01 |   0.131203E-01 |   0.847017E-03 |   0.123973E+01 |   0.100000E-04
   6 |   0.227766E+00 |   0.177224E-01 |   0.403657E-02 |   0.652308E-03 |   0.735275E+00 |   0.100000E-04
   7 |   0.220439E+00 |   0.108872E-01 |   0.239996E-02 |   0.593668E-03 |   0.609019E+00 |   0.100000E-04
   8 |   0.356404E+00 |   0.175928E-02 |   0.627015E-03 |   0.615815E-03 |   0.655306E+00 |   0.100000E-04
   9 |   0.664865E+00 |   0.458942E-03 |   0.305135E-03 |   0.526864E-03 |   0.479668E+00 |   0.100000E-04
  10 |   0.804785E+00 |   0.492110E-03 |   0.396043E-03 |   0.245571E-03 |   0.104208E+00 |   0.100000E-04
  11 |   0.348458E+00 |   0.884818E-03 |   0.308322E-03 |   0.172171E-03 |   0.512231E-01 |   0.100000E-04
  12 |   0.288795E+00 |   0.406483E-03 |   0.117390E-03 |   0.134596E-03 |   0.313045E-01 |   0.100000E-04
  13 |   0.358446E+00 |   0.710152E-04 |   0.254551E-04 |   0.105623E-03 |   0.192781E-01 |   0.100000E-04
  14 |   0.473840E+00 |   0.269775E-04 |   0.127830E-04 |   0.737368E-04 |   0.939535E-02 |   0.100000E-04
  15 |   0.455180E+00 |   0.155215E-04 |   0.706507E-05 |   0.497356E-04 |   0.427443E-02 |   0.100000E-04
  16 |   0.561858E-01 |   0.251854E-03 |   0.141506E-04 |   0.515306E-04 |   0.458854E-02 |   0.100000E-04
  17 |   0.380399E+00 |   0.142715E-04 |   0.542885E-05 |   0.307147E-04 |   0.163018E-02 |   0.100000E-04
  18 |   0.301520E+00 |   0.679680E-05 |   0.204937E-05 |   0.209814E-04 |   0.760701E-03 |   0.100000E-04
  19 |   0.251324E+00 |   0.546029E-05 |   0.137230E-05 |   0.127357E-04 |   0.280278E-03 |   0.100000E-04
  20 |   0.446122E+00 |   0.521242E-06 |   0.232537E-06 |   0.847576E-05 |   0.124137E-03 |   0.100000E-04
  21 |   0.581355E+00 |   0.978984E-07 |   0.569138E-07 |   0.532523E-05 |   0.490027E-04 |   0.100000E-04
  22 |   0.569122E+00 |   0.656048E-07 |   0.373372E-07 |   0.269002E-05 |   0.125042E-04 |   0.100000E-04
  23 |   0.502320E+00 |   0.281654E-07 |   0.141481E-07 |   0.132385E-05 |   0.302846E-05 |   0.100000E-04

 Charges are converged, EXIT

%%%% DENSITY %%%%%%%%%%%%%%%%%%%%%%%%%%%%%%%%%%%%%%%%%%%%%%%%%%%%%%%%%%%%%%%%%%%

 density label              = velectrostatic                                    

 integral of density        =   -231.0147892    

%%%% CHARGES %%%%%%%%%%%%%%%%%%%%%%%%%%%%%%%%%%%%%%%%%%%%%%%%%%%%%%%%%%%%%%%%%%%

 total number of charges    =             34

 total charge               =     -1.0000000

%%%% DENSITY %%%%%%%%%%%%%%%%%%%%%%%%%%%%%%%%%%%%%%%%%%%%%%%%%%%%%%%%%%%%%%%%%%%

 density label              = vsoftcavity                                       

 integral of density        =    35.14810077    

%%%% DENSITY %%%%%%%%%%%%%%%%%%%%%%%%%%%%%%%%%%%%%%%%%%%%%%%%%%%%%%%%%%%%%%%%%%%

 density label              = dvtot                                             

 integral of density        =   -195.8666884    

%%%% ELECTRONS %%%%%%%%%%%%%%%%%%%%%%%%%%%%%%%%%%%%%%%%%%%%%%%%%%%%%%%%%%%%%%%%%

 number of electrons        =             24

 total electronic charge    =     24.0000000

%%%% ELECTRONS %%%%%%%%%%%%%%%%%%%%%%%%%%%%%%%%%%%%%%%%%%%%%%%%%%%%%%%%%%%%%%%%%

 number of electrons        =             24

 total electronic charge    =     24.0000000

%%%% CHARGES %%%%%%%%%%%%%%%%%%%%%%%%%%%%%%%%%%%%%%%%%%%%%%%%%%%%%%%%%%%%%%%%%%%

 total number of charges    =             34

 total charge               =     -1.0000000

%%%% CHARGES %%%%%%%%%%%%%%%%%%%%%%%%%%%%%%%%%%%%%%%%%%%%%%%%%%%%%%%%%%%%%%%%%%%

 total number of charges    =             34

 total charge               =     -1.0000000

%%%% BOUNDARY %%%%%%%%%%%%%%%%%%%%%%%%%%%%%%%%%%%%%%%%%%%%%%%%%%%%%%%%%%%%%%%%%%

 boundary label             = solvent             
 boundary mode              = electronic          

 using the optimal SCCS function:
 rhomax                     =      0.0050000
 rhomin                     =      0.0001000

 volume of the QM region    =    591.4851526

 surface of the QM region   =    367.9899181

%%%% DENSITY %%%%%%%%%%%%%%%%%%%%%%%%%%%%%%%%%%%%%%%%%%%%%%%%%%%%%%%%%%%%%%%%%%%

 density label              = vreference                                        

 integral of density        =  -0.1745435072E-12

%%%% COMPUTE ELECTROSTATIC POTENTIAL %%%%%%%%%%%%%%%%%%%%%%%%%%%%%%%%%%%%%%%%%%%

 Warning: Bad guess with residual norm =   0.159249E+05, reset to no guess

   i |      alpha     |       pAp      |      rzold     |    delta_qm    |    delta_en    |       tol
 ---------------------------------------------------------------------------------------------------------
   1 |   0.838470E+00 |   0.111901E+03 |   0.938257E+02 |   0.812581E-01 |   0.114098E+05 |   0.100000E-04
   2 |   0.414566E-01 |   0.821658E+04 |   0.340631E+03 |   0.122197E-01 |   0.258026E+03 |   0.100000E-04
   3 |   0.110085E+00 |   0.236244E+02 |   0.260068E+01 |   0.348320E-02 |   0.209652E+02 |   0.100000E-04
   4 |   0.147908E+00 |   0.141780E+01 |   0.209705E+00 |   0.134979E-02 |   0.314831E+01 |   0.100000E-04
   5 |   0.220989E+00 |   0.607742E-01 |   0.134304E-01 |   0.857312E-03 |   0.127005E+01 |   0.100000E-04
   6 |   0.228758E+00 |   0.177247E-01 |   0.405468E-02 |   0.660110E-03 |   0.752968E+00 |   0.100000E-04
   7 |   0.220801E+00 |   0.110204E-01 |   0.243332E-02 |   0.598828E-03 |   0.619652E+00 |   0.100000E-04
   8 |   0.354947E+00 |   0.180879E-02 |   0.642027E-03 |   0.622620E-03 |   0.669868E+00 |   0.100000E-04
   9 |   0.666302E+00 |   0.463688E-03 |   0.308956E-03 |   0.532600E-03 |   0.490169E+00 |   0.100000E-04
  10 |   0.804679E+00 |   0.499141E-03 |   0.401648E-03 |   0.246979E-03 |   0.105406E+00 |   0.100000E-04
  11 |   0.347311E+00 |   0.892387E-03 |   0.309935E-03 |   0.174531E-03 |   0.526368E-01 |   0.100000E-04
  12 |   0.290281E+00 |   0.408500E-03 |   0.118580E-03 |   0.137341E-03 |   0.325943E-01 |   0.100000E-04
  13 |   0.359698E+00 |   0.721830E-04 |   0.259641E-04 |   0.108216E-03 |   0.202362E-01 |   0.100000E-04
  14 |   0.478867E+00 |   0.276466E-04 |   0.132390E-04 |   0.747562E-04 |   0.965692E-02 |   0.100000E-04
  15 |   0.301828E+00 |   0.257783E-04 |   0.778062E-05 |   0.681284E-04 |   0.802049E-02 |   0.100000E-04
  16 |   0.694911E-01 |   0.385690E-03 |   0.268020E-04 |   0.502347E-04 |   0.436065E-02 |   0.100000E-04
  17 |   0.471393E+00 |   0.997467E-05 |   0.470199E-05 |   0.310803E-04 |   0.166922E-02 |   0.100000E-04
  18 |   0.337106E+00 |   0.573667E-05 |   0.193386E-05 |   0.203777E-04 |   0.717553E-03 |   0.100000E-04
  19 |   0.224937E+00 |   0.595649E-05 |   0.133984E-05 |   0.130781E-04 |   0.295553E-03 |   0.100000E-04
  20 |   0.434615E+00 |   0.563485E-06 |   0.244899E-06 |   0.875516E-05 |   0.132456E-03 |   0.100000E-04
  21 |   0.595528E+00 |   0.100418E-06 |   0.598019E-07 |   0.543625E-05 |   0.510672E-04 |   0.100000E-04
  22 |   0.558927E+00 |   0.715043E-07 |   0.399657E-07 |   0.277984E-05 |   0.133532E-04 |   0.100000E-04
  23 |   0.499819E+00 |   0.301601E-07 |   0.150746E-07 |   0.137321E-05 |   0.325851E-05 |   0.100000E-04

 Charges are converged, EXIT

%%%% DENSITY %%%%%%%%%%%%%%%%%%%%%%%%%%%%%%%%%%%%%%%%%%%%%%%%%%%%%%%%%%%%%%%%%%%

 density label              = velectrostatic                                    

 integral of density        =   -230.7670553    

%%%% CHARGES %%%%%%%%%%%%%%%%%%%%%%%%%%%%%%%%%%%%%%%%%%%%%%%%%%%%%%%%%%%%%%%%%%%

 total number of charges    =             34

 total charge               =     -1.0000000

%%%% DENSITY %%%%%%%%%%%%%%%%%%%%%%%%%%%%%%%%%%%%%%%%%%%%%%%%%%%%%%%%%%%%%%%%%%%

 density label              = vsoftcavity                                       

 integral of density        =    35.74369166    

%%%% DENSITY %%%%%%%%%%%%%%%%%%%%%%%%%%%%%%%%%%%%%%%%%%%%%%%%%%%%%%%%%%%%%%%%%%%

 density label              = dvtot                                             

 integral of density        =   -195.0233637    

%%%% ELECTRONS %%%%%%%%%%%%%%%%%%%%%%%%%%%%%%%%%%%%%%%%%%%%%%%%%%%%%%%%%%%%%%%%%

 number of electrons        =             24

 total electronic charge    =     24.0000000

%%%% ELECTRONS %%%%%%%%%%%%%%%%%%%%%%%%%%%%%%%%%%%%%%%%%%%%%%%%%%%%%%%%%%%%%%%%%

 number of electrons        =             24

 total electronic charge    =     24.0000000

%%%% CHARGES %%%%%%%%%%%%%%%%%%%%%%%%%%%%%%%%%%%%%%%%%%%%%%%%%%%%%%%%%%%%%%%%%%%

 total number of charges    =             34

 total charge               =     -1.0000000

%%%% CHARGES %%%%%%%%%%%%%%%%%%%%%%%%%%%%%%%%%%%%%%%%%%%%%%%%%%%%%%%%%%%%%%%%%%%

 total number of charges    =             34

 total charge               =     -1.0000000

%%%% BOUNDARY %%%%%%%%%%%%%%%%%%%%%%%%%%%%%%%%%%%%%%%%%%%%%%%%%%%%%%%%%%%%%%%%%%

 boundary label             = solvent             
 boundary mode              = electronic          

 using the optimal SCCS function:
 rhomax                     =      0.0050000
 rhomin                     =      0.0001000

 volume of the QM region    =    591.4851526

 surface of the QM region   =    367.9899181

%%%% DENSITY %%%%%%%%%%%%%%%%%%%%%%%%%%%%%%%%%%%%%%%%%%%%%%%%%%%%%%%%%%%%%%%%%%%

 density label              = dvtot                                             

 integral of density        =   -195.0233637    

%%%% DENSITY %%%%%%%%%%%%%%%%%%%%%%%%%%%%%%%%%%%%%%%%%%%%%%%%%%%%%%%%%%%%%%%%%%%

 density label              = vreference                                        

 integral of density        =  -0.1745435072E-12

%%%% DENSITY %%%%%%%%%%%%%%%%%%%%%%%%%%%%%%%%%%%%%%%%%%%%%%%%%%%%%%%%%%%%%%%%%%%

 density label              = velectrostatic                                    

 integral of density        =   -230.7670553    

%%%% CHARGES %%%%%%%%%%%%%%%%%%%%%%%%%%%%%%%%%%%%%%%%%%%%%%%%%%%%%%%%%%%%%%%%%%%

 total number of charges    =             34

 total charge               =     -1.0000000

%%%% DENSITY %%%%%%%%%%%%%%%%%%%%%%%%%%%%%%%%%%%%%%%%%%%%%%%%%%%%%%%%%%%%%%%%%%%

 density label              = vsoftcavity                                       

 integral of density        =    35.74369166    
