
     Program PWSCF v.6.7MaX starts on 22Jan2021 at 11:37:29 

     This program is part of the open-source Quantum ESPRESSO suite
     for quantum simulation of materials; please cite
         "P. Giannozzi et al., J. Phys.:Condens. Matter 21 395502 (2009);
         "P. Giannozzi et al., J. Phys.:Condens. Matter 29 465901 (2017);
          URL http://www.quantum-espresso.org", 
     in publications or presentations arising from this work. More details at
     http://www.quantum-espresso.org/quote

     Parallel version (MPI), running on     1 processors

     MPI processes distributed on     1 nodes
     Reading input from charged.in

     Current dimensions of program PWSCF are:
     Max number of different atomic species (ntypx) = 10
     Max number of k-points (npk) =  40000
     Max angular momentum in pseudopotentials (lmaxx) =  3
     file C.pbe-rrkjus.UPF: wavefunction(s)  2S 2P renormalized
     file H.pbe-rrkjus.UPF: wavefunction(s)  1S renormalized
     file N.pbe-rrkjus.UPF: wavefunction(s)  2S renormalized
     file O.pbe-rrkjus.UPF: wavefunction(s)  2S renormalized

     gamma-point specific algorithms are used

     Subspace diagonalization in iterative solution of the eigenvalue problem:
     a serial algorithm will be used


     G-vector sticks info
     --------------------
     sticks:   dense  smooth     PW     G-vecs:    dense   smooth      PW
     Sum        9549    3809    949               701475   177509   22119



     bravais-lattice index     =            1
     lattice parameter (alat)  =      20.0000  a.u.
     unit-cell volume          =    8000.0000 (a.u.)^3
     number of atoms/cell      =           10
     number of atomic types    =            4
     number of electrons       =        24.00
     number of Kohn-Sham states=           12
     kinetic-energy cutoff     =      30.0000  Ry
     charge density cutoff     =     300.0000  Ry
     scf convergence threshold =      5.0E-03
     mixing beta               =       0.7000
     number of iterations used =            8  plain     mixing
     Exchange-correlation= SLA  PW   PBE  PBE
                           (   1   4   3   4   0   0   0)


     Environ Module
     ==============

     Plese cite
         O. Andreussi, I. Dabo and N. Marzari, J. Chem. Phys. 136, 064102 (2012)         
     in publications or presentations arising from this work.

     compensation onset threshold      =               0.1000E+03 
     static permittivity               =                   100.00 
     epsilon calculation mode          =               electronic 

     Electrostatic Setup
     -------------------
     electrostatic problem to solve    = generalized              
     numerical solver adopted          = cg                       
     type of auxiliary density adopted = none                     
     type of core tool for poisson     = fft                      



     celldm(1)=  20.000000  celldm(2)=   0.000000  celldm(3)=   0.000000
     celldm(4)=   0.000000  celldm(5)=   0.000000  celldm(6)=   0.000000

     crystal axes: (cart. coord. in units of alat)
               a(1) = (   1.000000   0.000000   0.000000 )  
               a(2) = (   0.000000   1.000000   0.000000 )  
               a(3) = (   0.000000   0.000000   1.000000 )  

     reciprocal axes: (cart. coord. in units 2 pi/alat)
               b(1) = (  1.000000  0.000000  0.000000 )  
               b(2) = (  0.000000  1.000000  0.000000 )  
               b(3) = (  0.000000  0.000000  1.000000 )  


     PseudoPot. # 1 for C  read from file:
     /Users/gabrielmedrano/Desktop/q-e/Environ/tests/../..//pseudo/C.pbe-rrkjus.UPF
     MD5 check sum: c9ac5a99bc85b198593446162950cd17
     Pseudo is Ultrasoft, Zval =  4.0
     Generated by new atomic code, or converted to UPF format
     Using radial grid of  627 points,  4 beta functions with: 
                l(1) =   0
                l(2) =   0
                l(3) =   1
                l(4) =   1
     Q(r) pseudized with 0 coefficients 


     PseudoPot. # 2 for H  read from file:
     /Users/gabrielmedrano/Desktop/q-e/Environ/tests/../..//pseudo/H.pbe-rrkjus.UPF
     MD5 check sum: 2d52a7f45632fd764c17cc6affed14c8
     Pseudo is Ultrasoft, Zval =  1.0
     Generated by new atomic code, or converted to UPF format
     Using radial grid of 1061 points,  2 beta functions with: 
                l(1) =   0
                l(2) =   0
     Q(r) pseudized with 0 coefficients 


     PseudoPot. # 3 for N  read from file:
     /Users/gabrielmedrano/Desktop/q-e/Environ/tests/../..//pseudo/N.pbe-rrkjus.UPF
     MD5 check sum: 28c76d763763edb36c62a6ca2be9aebd
     Pseudo is Ultrasoft, Zval =  5.0
     Generated by new atomic code, or converted to UPF format
     Using radial grid of 1257 points,  4 beta functions with: 
                l(1) =   0
                l(2) =   0
                l(3) =   1
                l(4) =   1
     Q(r) pseudized with 0 coefficients 


     PseudoPot. # 4 for O  read from file:
     /Users/gabrielmedrano/Desktop/q-e/Environ/tests/../..//pseudo/O.pbe-rrkjus.UPF
     MD5 check sum: fadcf19ee70a498d3030e2e79cf929a4
     Pseudo is Ultrasoft, Zval =  6.0
     Generated by new atomic code, or converted to UPF format
     Using radial grid of 1269 points,  4 beta functions with: 
                l(1) =   0
                l(2) =   0
                l(3) =   1
                l(4) =   1
     Q(r) pseudized with 0 coefficients 


     atomic species   valence    mass     pseudopotential
        C              4.00    12.00000     C ( 1.00)
        H              1.00     1.00000     H ( 1.00)
        N              5.00    14.00000     N ( 1.00)
        O              6.00    16.00000     O ( 1.00)

     No symmetry found



   Cartesian axes

     site n.     atom                  positions (alat units)
         1           C   tau(   1) = (   0.0000000   0.0000000   0.0000000  )
         2           C   tau(   2) = (   0.0000000   0.0000000   0.1455089  )
         3           N   tau(   3) = (   0.1170969   0.0000000  -0.0545024  )
         4           H   tau(   4) = (   0.0476617  -0.0825466   0.1792090  )
         5           H   tau(   5) = (  -0.0953183  -0.0000030   0.1792090  )
         6           H   tau(   6) = (   0.0476566   0.0825496   0.1792090  )
         7           O   tau(   7) = (  -0.0984002  -0.0000019  -0.0641310  )
         8           H   tau(   8) = (   0.1263131  -0.0000015  -0.1475548  )
         9           H   tau(   9) = (   0.1944645   0.0000134  -0.0025716  )
        10           H   tau(  10) = (  -0.0770366  -0.0000045  -0.1522861  )

     number of k points=     1
                       cart. coord. in units 2pi/alat
        k(    1) = (   0.0000000   0.0000000   0.0000000), wk =   2.0000000

     Dense  grid:   350738 G-vectors     FFT dimensions: ( 120, 120, 120)

     Smooth grid:    88755 G-vectors     FFT dimensions: (  72,  72,  72)

     Estimated max dynamical RAM per process >     624.11 MB

     Initial potential from superposition of free atoms

     starting charge   24.42266, renormalised to   24.00000

     negative rho (up, down):  4.438E-04 0.000E+00
     Starting wfcs are   22 randomized atomic wfcs

     total cpu time spent up to now is        6.8 secs

     Self-consistent Calculation

     iteration #  1     ecut=    30.00 Ry     beta= 0.70
     Davidson diagonalization with overlap
     ethr =  1.00E-02,  avg # of iterations =  2.0

     negative rho (up, down):  1.234E-04 0.000E+00

     add environment contribution to local potential
     polarization accuracy = 7.9E-06, # of iterations =  15

     total cpu time spent up to now is       15.8 secs

     total energy              =     -80.29071716 Ry
     estimated scf accuracy    <       3.64924908 Ry
     electrostatic embedding   =       0.00490874 Ry
     correction to one-el term =      -0.00000000 Ry

     iteration #  2     ecut=    30.00 Ry     beta= 0.70
     Davidson diagonalization with overlap
     ethr =  1.00E-02,  avg # of iterations =  4.0

     negative rho (up, down):  4.931E-04 0.000E+00

     add environment contribution to local potential
     polarization accuracy = 8.5E-06, # of iterations =  18

     total cpu time spent up to now is       25.9 secs

     total energy              =     -81.15267913 Ry
     estimated scf accuracy    <       1.04169065 Ry
     electrostatic embedding   =      -0.16541316 Ry
     correction to one-el term =      -4.24540814 Ry

     iteration #  3     ecut=    30.00 Ry     beta= 0.70
     Davidson diagonalization with overlap
     ethr =  4.34E-03,  avg # of iterations =  4.0

     negative rho (up, down):  2.221E-04 0.000E+00

     add environment contribution to local potential
     polarization accuracy = 4.6E-06, # of iterations =  21

     total cpu time spent up to now is       36.7 secs

     total energy              =     -81.33044636 Ry
     estimated scf accuracy    <       0.11304060 Ry
     electrostatic embedding   =      -0.13117894 Ry
     correction to one-el term =      -3.51974698 Ry

     iteration #  4     ecut=    30.00 Ry     beta= 0.70
     Davidson diagonalization with overlap
     ethr =  4.71E-04,  avg # of iterations =  5.0

     negative rho (up, down):  1.285E-04 0.000E+00

     add environment contribution to local potential
     polarization accuracy = 8.0E-06, # of iterations =  22

     total cpu time spent up to now is       47.9 secs

     total energy              =     -81.36216444 Ry
     estimated scf accuracy    <       0.01961487 Ry
     electrostatic embedding   =      -0.10905395 Ry
     correction to one-el term =      -3.28472050 Ry

     iteration #  5     ecut=    30.00 Ry     beta= 0.70
     Davidson diagonalization with overlap
     ethr =  8.17E-05,  avg # of iterations =  4.0

     negative rho (up, down):  2.790E-04 0.000E+00

     the potential shift due to the Gaussian-smeared nuclei is    -0.0668 ev

     total cpu time spent up to now is       51.2 secs

     End of self-consistent calculation

          k = 0.0000 0.0000 0.0000 ( 11060 PWs)   bands (ev):

   -29.3110 -23.5921 -19.1180 -16.4260 -15.1002 -13.8549 -12.0971 -11.3759
   -10.0754 -10.0540  -9.7725  -7.8532

     highest occupied level (ev):    -7.8532

!    total energy              =     -81.36680414 Ry
     estimated scf accuracy    <       0.00175211 Ry

     The total energy is the sum of the following terms:
     one-electron contribution =    -242.75450663 Ry
     hartree contribution      =     123.23519713 Ry
     xc contribution           =     -22.96887530 Ry
     ewald contribution        =      64.30784069 Ry
     electrostatic embedding   =      -0.10374128 Ry
     correction to one-el term =      -3.08271876 Ry

     WARNING: you are using the parabolic pbc correction;
              the potential shift above must be added to 
              band and Fermi energies.

     convergence has been achieved in   5 iterations
 forces lc
       1    0.0521    0.0000   -0.0887
       2    0.0479    0.0000   -0.0524
       3    0.0168    0.0000   -0.0937
       4    0.0125   -0.0005   -0.0134
       5    0.0056    0.0000   -0.0074
       6    0.0125    0.0005   -0.0134
       7    0.2006   -0.0000   -0.2205
       8   -0.0151    0.0000   -0.0420
       9    0.0264    0.0000    0.0084
      10    0.0386   -0.0000   -0.0819

     Forces acting on atoms (cartesian axes, Ry/au):

     atom    1 type  1   force =     0.21317269    0.00000059    0.09950954
     atom    2 type  1   force =    -0.03203162    0.00000437   -0.07982425
     atom    3 type  3   force =    -0.13617598    0.00000382    0.04389013
     atom    4 type  2   force =     0.01435349   -0.02168128    0.00666854
     atom    5 type  2   force =    -0.02489443   -0.00000289    0.01011502
     atom    6 type  2   force =     0.01434996    0.02167570    0.00666677
     atom    7 type  4   force =    -0.08305857   -0.00000283   -0.00698070
     atom    8 type  2   force =     0.00621048    0.00000086   -0.04706532
     atom    9 type  2   force =     0.03859206    0.00000424    0.03819243
     atom   10 type  2   force =    -0.01051807   -0.00000259   -0.07117216

     Total force =     0.320470     Total SCF correction =     0.071627
     SCF correction compared to forces is large: reduce conv_thr to get better values

     Writing output data file /Users/gabrielmedrano/Desktop/q-e/Environ/tests/../..//tempdir/pwscf.save/

     init_run     :      6.10s CPU      6.68s WALL (       1 calls)
     electrons    :     44.43s CPU     44.45s WALL (       1 calls)
     forces       :      1.63s CPU      1.82s WALL (       1 calls)

     Called by init_run:
     wfcinit      :      0.13s CPU      0.13s WALL (       1 calls)
     potinit      :      1.96s CPU      2.15s WALL (       1 calls)
     hinit0       :      3.15s CPU      3.27s WALL (       1 calls)

     Called by electrons:
     c_bands      :      1.26s CPU      1.04s WALL (       5 calls)
     sum_band     :      7.17s CPU      4.40s WALL (       5 calls)
     v_of_rho     :      3.92s CPU      4.56s WALL (       6 calls)
     newd         :      2.52s CPU      3.55s WALL (       6 calls)
     mix_rho      :      0.39s CPU      0.45s WALL (       5 calls)

     Called by c_bands:
     init_us_2    :      0.04s CPU      0.04s WALL (      11 calls)
     regterg      :      1.20s CPU      0.98s WALL (       5 calls)

     Called by *egterg:
     rdiaghg      :      0.00s CPU      0.00s WALL (      24 calls)
     h_psi        :      1.08s CPU      1.00s WALL (      25 calls)
     s_psi        :      0.08s CPU      0.01s WALL (      25 calls)
     g_psi        :      0.01s CPU      0.01s WALL (      19 calls)

     Called by h_psi:
     h_psi:calbec :      0.03s CPU      0.03s WALL (      25 calls)
     vloc_psi     :      0.92s CPU      0.92s WALL (      25 calls)
     add_vuspsi   :      0.13s CPU      0.05s WALL (      25 calls)

     General routines
     calbec       :      0.04s CPU      0.04s WALL (      34 calls)
     fft          :     14.87s CPU     15.58s WALL (     309 calls)
     ffts         :      0.06s CPU      0.06s WALL (      11 calls)
     fftw         :      0.82s CPU      0.83s WALL (     240 calls)
     interpolate  :      0.32s CPU      0.36s WALL (       6 calls)

     Parallel routines
     fft_scatt_xy :      1.33s CPU      1.34s WALL (     239 calls)
     fft_scatt_yz :      1.78s CPU      1.79s WALL (     239 calls)

     Environ routines
     calc_eelect  :      0.03s CPU      0.03s WALL (      10 calls)
     calc_velect  :     23.31s CPU     24.40s WALL (       8 calls)
     dielectric   :      0.35s CPU      0.40s WALL (       7 calls)
     calc_felect  :      0.49s CPU      0.51s WALL (       1 calls)

     PWSCF        :     52.25s CPU     53.16s WALL


   This run was terminated on:  11:38:22  22Jan2021            

=------------------------------------------------------------------------------=
   JOB DONE.
=------------------------------------------------------------------------------=
 Calling electrostatic_initbase now
 electrolyte_distance:    0.0000000000000000     
 sc_distance:    0.0000000000000000     
 velectrostatic started
 vreference created

%%%% IONS %%%%%%%%%%%%%%%%%%%%%%%%%%%%%%%%%%%%%%%%%%%%%%%%%%%%%%%%%%%%%%%%%%%%%%
 number of ions             =         10
 ionic center of charge     =      0.0095530    -0.0000002     0.0063981
 total ionic charge         =    -25.0000000
 ionic dipole               =      0.0000000     0.0000000     0.0000000
 ionic quadrupole (pc)      =    -79.0828051    -5.4513517  -105.8059620
 ionic quadrupole (gauss)   =    -82.2078051    -8.5763517  -108.9309620
 ion   1 type =  1 coordinates =      0.0000000     0.0000000     0.0000000
 ion   2 type =  1 coordinates =      0.0000000     0.0000000     2.9101782
 ion   3 type =  3 coordinates =      2.3419379     0.0000000    -1.0900479
 ion   4 type =  2 coordinates =      0.9532347    -1.6509323     3.5841800
 ion   5 type =  2 coordinates =     -1.9063663    -0.0000596     3.5841809
 ion   6 type =  2 coordinates =      0.9531315     1.6509919     3.5841800
 ion   7 type =  4 coordinates =     -1.9680045    -0.0000375    -1.2826193
 ion   8 type =  2 coordinates =      2.5262613    -0.0000303    -2.9510950
 ion   9 type =  2 coordinates =      3.8892907     0.0002681    -0.0514326
 ion  10 type =  2 coordinates =     -1.5407317    -0.0000890    -3.0457220

%%%% SYSTEM %%%%%%%%%%%%%%%%%%%%%%%%%%%%%%%%%%%%%%%%%%%%%%%%%%%%%%%%%%%%%%%%%%%%
 system is built from all present ionic types
 system defined dimension   =  0 
 system defined axis        =  3 
 system center              =      0.0095530    -0.0000002     0.0063981 
 system width               =      0.2021425 

%%%% IONS %%%%%%%%%%%%%%%%%%%%%%%%%%%%%%%%%%%%%%%%%%%%%%%%%%%%%%%%%%%%%%%%%%%%%%
 number of ions             =         10
 ionic center of charge     =      0.0095530    -0.0000002     0.0063981
 total ionic charge         =    -25.0000000
 ionic dipole               =      0.0000000     0.0000000     0.0000000
 ionic quadrupole (pc)      =    -79.0828051    -5.4513517  -105.8059620
 ionic quadrupole (gauss)   =    -82.2078051    -8.5763517  -108.9309620
 ion   1 type =  1 coordinates =      0.0000000     0.0000000     0.0000000
 ion   2 type =  1 coordinates =      0.0000000     0.0000000     2.9101782
 ion   3 type =  3 coordinates =      2.3419379     0.0000000    -1.0900479
 ion   4 type =  2 coordinates =      0.9532347    -1.6509323     3.5841800
 ion   5 type =  2 coordinates =     -1.9063663    -0.0000596     3.5841809
 ion   6 type =  2 coordinates =      0.9531315     1.6509919     3.5841800
 ion   7 type =  4 coordinates =     -1.9680045    -0.0000375    -1.2826193
 ion   8 type =  2 coordinates =      2.5262613    -0.0000303    -2.9510950
 ion   9 type =  2 coordinates =      3.8892907     0.0002681    -0.0514326
 ion  10 type =  2 coordinates =     -1.5407317    -0.0000890    -3.0457220

%%%% SYSTEM %%%%%%%%%%%%%%%%%%%%%%%%%%%%%%%%%%%%%%%%%%%%%%%%%%%%%%%%%%%%%%%%%%%%
 system is built from all present ionic types
 system defined dimension   =  0 
 system defined axis        =  3 
 system center              =      0.0095530    -0.0000002     0.0063981 
 system width               =      0.2021425 

%%%% ELECTRONS %%%%%%%%%%%%%%%%%%%%%%%%%%%%%%%%%%%%%%%%%%%%%%%%%%%%%%%%%%%%%%%%%
 number of electrons        =         24
 total electronic charge    =     24.0000000

%%%% ELECTRONS %%%%%%%%%%%%%%%%%%%%%%%%%%%%%%%%%%%%%%%%%%%%%%%%%%%%%%%%%%%%%%%%%
 number of electrons        =         24
 total electronic charge    =     24.0000000

%%%% BOUNDARY %%%%%%%%%%%%%%%%%%%%%%%%%%%%%%%%%%%%%%%%%%%%%%%%%%%%%%%%%%%%%%%%%%
 boundary label             = solvent              
 boundary mode              = electronic           
 boundary is built as a function of a smooth density
 function type              =  2 
 using the modified SCCS function with parameters 
 rhomax                     =      0.0050000 
 rhomin                     =      0.0001000 
 volume of the QM region    =   2771.6247496 
 surface of the QM region   =    905.6008158 

%%%% DIELECTRIC %%%%%%%%%%%%%%%%%%%%%%%%%%%%%%%%%%%%%%%%%%%%%%%%%%%%%%%%%%%%%%%%%
 dielectric build on homogeneous background
 environment bulk permitt.  =    100.0000000 
 dielectric flags
 need gradient              =  F 
 need factor depend. sqrt   =  T 
 total dielectric charge    =      0.0000000

%%%% DENSITY %%%%%%%%%%%%%%%%%%%%%%%%%%%%%%%%%%%%%%%%%%%%%%%%%%%%%%%%%%%%%%%%%%%
 density label              = dvtot                                                                           
 integral of density        =      0.000000000    

%%%% DENSITY %%%%%%%%%%%%%%%%%%%%%%%%%%%%%%%%%%%%%%%%%%%%%%%%%%%%%%%%%%%%%%%%%%%
 density label              = vreference                                                                      
 integral of density        =      0.000000000    

%%%% DENSITY %%%%%%%%%%%%%%%%%%%%%%%%%%%%%%%%%%%%%%%%%%%%%%%%%%%%%%%%%%%%%%%%%%%
 density label              = velectrostatic                                                                  
 integral of density        =      0.000000000    

%%%% CHARGES %%%%%%%%%%%%%%%%%%%%%%%%%%%%%%%%%%%%%%%%%%%%%%%%%%%%%%%%%%%%%%%%%%%
 total number of charges    =         34
 total charge               =     -1.0000000

%%%% DENSITY %%%%%%%%%%%%%%%%%%%%%%%%%%%%%%%%%%%%%%%%%%%%%%%%%%%%%%%%%%%%%%%%%%%
 density label              = vsoftcavity                                                                     
 integral of density        =      0.000000000    

%%%% ELECTRONS %%%%%%%%%%%%%%%%%%%%%%%%%%%%%%%%%%%%%%%%%%%%%%%%%%%%%%%%%%%%%%%%%
 number of electrons        =         24
 total electronic charge    =     24.0000000

%%%% ELECTRONS %%%%%%%%%%%%%%%%%%%%%%%%%%%%%%%%%%%%%%%%%%%%%%%%%%%%%%%%%%%%%%%%%
 number of electrons        =         24
 total electronic charge    =     24.0000000

%%%% BOUNDARY %%%%%%%%%%%%%%%%%%%%%%%%%%%%%%%%%%%%%%%%%%%%%%%%%%%%%%%%%%%%%%%%%%
 boundary label             = solvent              
 boundary mode              = electronic           
 boundary is built as a function of a smooth density
 function type              =  2 
 using the modified SCCS function with parameters 
 rhomax                     =      0.0050000 
 rhomin                     =      0.0001000 
 volume of the QM region    =    994.3250268 
 surface of the QM region   =    491.9124258 

%%%% DIELECTRIC %%%%%%%%%%%%%%%%%%%%%%%%%%%%%%%%%%%%%%%%%%%%%%%%%%%%%%%%%%%%%%%%%
 dielectric build on homogeneous background
 environment bulk permitt.  =    100.0000000 
 dielectric flags
 need gradient              =  F 
 need factor depend. sqrt   =  T 
 total dielectric charge    =      0.0000000

%%%% DENSITY %%%%%%%%%%%%%%%%%%%%%%%%%%%%%%%%%%%%%%%%%%%%%%%%%%%%%%%%%%%%%%%%%%%
 density label              = vreference                                                                      
 integral of density        =    -0.2399915657E-11

%%%% COMPUTE ELECTROSTATIC POTENTIAL %%%%%%%%%%%%%%%%%%%%%%%%%%%%%%%%%%%%%%%%%%%
 Iteration #          1
  pAp =    111.91727430040687       rzold =    90.233263101564361       alpha =   0.80624964881972938     
 delta_qm =   0.443549E-01 delta_en =   0.339959E+04 tol =   0.100000E-04
 Iteration #          2
  pAp =    3878.6166762116668       rzold =    250.31342415911689       alpha =    6.4536778200934189E-002
 delta_qm =   0.408472E-02 delta_en =   0.288316E+02 tol =   0.100000E-04
 Iteration #          3
  pAp =    3.0275867615723504       rzold =   0.57816756624534948       alpha =   0.19096647322671054     
 delta_qm =   0.137789E-02 delta_en =   0.328074E+01 tol =   0.100000E-04
 Iteration #          4
  pAp =   0.32241882742738392       rzold =    6.4713667414359494E-002  alpha =   0.20071305367219749     
 delta_qm =   0.737668E-03 delta_en =   0.940299E+00 tol =   0.100000E-04
 Iteration #          5
  pAp =    2.0205814130044297E-002  rzold =    6.5437149890074176E-003  alpha =   0.32385307253111267     
 delta_qm =   0.340429E-03 delta_en =   0.200261E+00 tol =   0.100000E-04
 Iteration #          6
  pAp =    3.3417995764557216E-003  rzold =    1.4002957754587540E-003  alpha =   0.41902446374234487     
 delta_qm =   0.160815E-03 delta_en =   0.446884E-01 tol =   0.100000E-04
 Iteration #          7
  pAp =    1.5355742724936807E-003  rzold =    3.1697404974910314E-004  alpha =   0.20642052646164505     
 delta_qm =   0.119004E-03 delta_en =   0.244718E-01 tol =   0.100000E-04
 Iteration #          8
  pAp =    2.5841301620977797E-004  rzold =    8.7559399435341011E-005  alpha =   0.33883509708450937     
 delta_qm =   0.109762E-03 delta_en =   0.208184E-01 tol =   0.100000E-04
 Iteration #          9
  pAp =    3.5462721114570347E-005  rzold =    2.6085240963159540E-005  alpha =   0.73556794694026062     
 delta_qm =   0.673109E-04 delta_en =   0.782915E-02 tol =   0.100000E-04
 Iteration #         10
  pAp =    2.7868327422676098E-005  rzold =    2.1443404018236649E-005  alpha =   0.76945428740687283     
 delta_qm =   0.274163E-04 delta_en =   0.129885E-02 tol =   0.100000E-04
 Iteration #         11
  pAp =    1.0939193927500253E-005  rzold =    5.7698960244246070E-006  alpha =   0.52745166258727283     
 delta_qm =   0.141628E-04 delta_en =   0.346611E-03 tol =   0.100000E-04
 Iteration #         12
  pAp =    1.7333136452245243E-006  rzold =    8.3610771734604776E-007  alpha =   0.48237531600216693     
 delta_qm =   0.704078E-05 delta_en =   0.856615E-04 tol =   0.100000E-04
 Iteration #         13
  pAp =    5.0021945281051761E-007  rzold =    1.9437714416284138E-007  alpha =   0.38858373673938496     
 delta_qm =   0.361741E-05 delta_en =   0.226120E-04 tol =   0.100000E-04
 Iteration #         14
  pAp =    3.2671631666915336E-007  rzold =    6.7819564024977507E-008  alpha =   0.20757936033434915     
 delta_qm =   0.273720E-05 delta_en =   0.129467E-04 tol =   0.100000E-04
 Iteration #         15
  pAp =    8.3516630305414924E-007  rzold =    8.3905245050281210E-008  alpha =   0.10046531420562006     
 delta_qm =   0.213865E-05 delta_en =   0.790355E-05 tol =   0.100000E-04
 Charges are converged, EXIT

%%%% DENSITY %%%%%%%%%%%%%%%%%%%%%%%%%%%%%%%%%%%%%%%%%%%%%%%%%%%%%%%%%%%%%%%%%%%
 density label              = velectrostatic                                                                  
 integral of density        =     -240.6958029    

%%%% CHARGES %%%%%%%%%%%%%%%%%%%%%%%%%%%%%%%%%%%%%%%%%%%%%%%%%%%%%%%%%%%%%%%%%%%
 total number of charges    =         34
 total charge               =     -1.0000000

%%%% DENSITY %%%%%%%%%%%%%%%%%%%%%%%%%%%%%%%%%%%%%%%%%%%%%%%%%%%%%%%%%%%%%%%%%%%
 density label              = vsoftcavity                                                                     
 integral of density        =      72.23460283    

%%%% DENSITY %%%%%%%%%%%%%%%%%%%%%%%%%%%%%%%%%%%%%%%%%%%%%%%%%%%%%%%%%%%%%%%%%%%
 density label              = dvtot                                                                           
 integral of density        =     -168.4612001    

%%%% ELECTRONS %%%%%%%%%%%%%%%%%%%%%%%%%%%%%%%%%%%%%%%%%%%%%%%%%%%%%%%%%%%%%%%%%
 number of electrons        =         24
 total electronic charge    =     24.0000000

%%%% ELECTRONS %%%%%%%%%%%%%%%%%%%%%%%%%%%%%%%%%%%%%%%%%%%%%%%%%%%%%%%%%%%%%%%%%
 number of electrons        =         24
 total electronic charge    =     24.0000000

%%%% BOUNDARY %%%%%%%%%%%%%%%%%%%%%%%%%%%%%%%%%%%%%%%%%%%%%%%%%%%%%%%%%%%%%%%%%%
 boundary label             = solvent              
 boundary mode              = electronic           
 boundary is built as a function of a smooth density
 function type              =  2 
 using the modified SCCS function with parameters 
 rhomax                     =      0.0050000 
 rhomin                     =      0.0001000 
 volume of the QM region    =    821.1086269 
 surface of the QM region   =    442.9823863 

%%%% DIELECTRIC %%%%%%%%%%%%%%%%%%%%%%%%%%%%%%%%%%%%%%%%%%%%%%%%%%%%%%%%%%%%%%%%%
 dielectric build on homogeneous background
 environment bulk permitt.  =    100.0000000 
 dielectric flags
 need gradient              =  F 
 need factor depend. sqrt   =  T 
 total dielectric charge    =      0.9892393

%%%% DENSITY %%%%%%%%%%%%%%%%%%%%%%%%%%%%%%%%%%%%%%%%%%%%%%%%%%%%%%%%%%%%%%%%%%%
 density label              = vreference                                                                      
 integral of density        =    -0.2410664261E-12

%%%% COMPUTE ELECTROSTATIC POTENTIAL %%%%%%%%%%%%%%%%%%%%%%%%%%%%%%%%%%%%%%%%%%%
 Warning: bad guess with residual norm =   0.867527E+04, reset to no guess
 Iteration #          1
  pAp =    113.42602128308299       rzold =    93.262834826232236       alpha =   0.82223491374586366     
 delta_qm =   0.595202E-01 delta_en =   0.612171E+04 tol =   0.100000E-04
 Iteration #          2
  pAp =    5642.9428797181481       rzold =    294.88659576201542       alpha =    5.2257590063847024E-002
 delta_qm =   0.716146E-02 delta_en =   0.886232E+02 tol =   0.100000E-04
 Iteration #          3
  pAp =    12.289257429907323       rzold =    1.5847436914437245       alpha =   0.12895357595708495     
 delta_qm =   0.211629E-02 delta_en =   0.773918E+01 tol =   0.100000E-04
 Iteration #          4
  pAp =   0.51594203463943533       rzold =    9.9078843114740828E-002  alpha =   0.19203483426967102     
 delta_qm =   0.916662E-03 delta_en =   0.145199E+01 tol =   0.100000E-04
 Iteration #          5
  pAp =    2.4712547670120107E-002  rzold =    7.2109804563187246E-003  alpha =   0.29179429626503084     
 delta_qm =   0.501533E-03 delta_en =   0.434653E+00 tol =   0.100000E-04
 Iteration #          6
  pAp =    1.0100957856200467E-002  rzold =    2.6314758428268702E-003  alpha =   0.26051745589766423     
 delta_qm =   0.360165E-03 delta_en =   0.224154E+00 tol =   0.100000E-04
 Iteration #          7
  pAp =    5.7874425959526339E-003  rzold =    1.3043107738038592E-003  alpha =   0.22536910771538546     
 delta_qm =   0.307028E-03 delta_en =   0.162892E+00 tol =   0.100000E-04
 Iteration #          8
  pAp =    5.0188485371400245E-004  rzold =    2.1926318699768313E-004  alpha =   0.43687946622638985     
 delta_qm =   0.287980E-03 delta_en =   0.143307E+00 tol =   0.100000E-04
 Iteration #          9
  pAp =    1.5209480632711488E-004  rzold =    1.2538162961935458E-004  alpha =   0.82436496450570784     
 delta_qm =   0.192966E-03 delta_en =   0.643438E-01 tol =   0.100000E-04
 Iteration #         10
  pAp =    2.0431869537618122E-004  rzold =    1.4053864884295517E-004  alpha =   0.68784037889534555     
 delta_qm =   0.784436E-04 delta_en =   0.106331E-01 tol =   0.100000E-04
 Iteration #         11
  pAp =    8.3770097025951963E-005  rzold =    3.5877289253242352E-005  alpha =   0.42828277066609549     
 delta_qm =   0.497570E-04 delta_en =   0.427812E-02 tol =   0.100000E-04
 Iteration #         12
  pAp =    2.2271317699078346E-005  rzold =    8.3578959341396096E-006  alpha =   0.37527622061111743     
 delta_qm =   0.336942E-04 delta_en =   0.196179E-02 tol =   0.100000E-04
 Iteration #         13
  pAp =    5.2154962715996959E-006  rzold =    2.3504428400918056E-006  alpha =   0.45066523254763602     
 delta_qm =   0.210779E-04 delta_en =   0.767715E-03 tol =   0.100000E-04
 Iteration #         14
  pAp =    7.9929710509800588E-006  rzold =    1.3314490393106883E-006  alpha =   0.16657748799771177     
 delta_qm =   0.172281E-04 delta_en =   0.512880E-03 tol =   0.100000E-04
 Iteration #         15
  pAp =    1.8774811777403656E-005  rzold =    2.3962421971047243E-006  alpha =   0.12763069081676287     
 delta_qm =   0.137808E-04 delta_en =   0.328167E-03 tol =   0.100000E-04
 Iteration #         16
  pAp =    9.9397796341861568E-007  rzold =    4.6527337369437039E-007  alpha =   0.46809224230096902     
 delta_qm =   0.852063E-05 delta_en =   0.125455E-03 tol =   0.100000E-04
 Iteration #         17
  pAp =    4.8069528109521449E-007  rzold =    2.4219297776536666E-007  alpha =   0.50383889189333209     
 delta_qm =   0.374177E-05 delta_en =   0.241934E-04 tol =   0.100000E-04
 Iteration #         18
  pAp =    2.0631260630611731E-007  rzold =    6.6525491514907480E-008  alpha =   0.32244995934082654     
 delta_qm =   0.222289E-05 delta_en =   0.853846E-05 tol =   0.100000E-04
 Charges are converged, EXIT

%%%% DENSITY %%%%%%%%%%%%%%%%%%%%%%%%%%%%%%%%%%%%%%%%%%%%%%%%%%%%%%%%%%%%%%%%%%%
 density label              = velectrostatic                                                                  
 integral of density        =     -242.4896162    

%%%% CHARGES %%%%%%%%%%%%%%%%%%%%%%%%%%%%%%%%%%%%%%%%%%%%%%%%%%%%%%%%%%%%%%%%%%%
 total number of charges    =         34
 total charge               =     -1.0000000

%%%% DENSITY %%%%%%%%%%%%%%%%%%%%%%%%%%%%%%%%%%%%%%%%%%%%%%%%%%%%%%%%%%%%%%%%%%%
 density label              = vsoftcavity                                                                     
 integral of density        =      48.87384245    

%%%% DENSITY %%%%%%%%%%%%%%%%%%%%%%%%%%%%%%%%%%%%%%%%%%%%%%%%%%%%%%%%%%%%%%%%%%%
 density label              = dvtot                                                                           
 integral of density        =     -193.6157737    

%%%% ELECTRONS %%%%%%%%%%%%%%%%%%%%%%%%%%%%%%%%%%%%%%%%%%%%%%%%%%%%%%%%%%%%%%%%%
 number of electrons        =         24
 total electronic charge    =     24.0000000

%%%% ELECTRONS %%%%%%%%%%%%%%%%%%%%%%%%%%%%%%%%%%%%%%%%%%%%%%%%%%%%%%%%%%%%%%%%%
 number of electrons        =         24
 total electronic charge    =     24.0000000

%%%% BOUNDARY %%%%%%%%%%%%%%%%%%%%%%%%%%%%%%%%%%%%%%%%%%%%%%%%%%%%%%%%%%%%%%%%%%
 boundary label             = solvent              
 boundary mode              = electronic           
 boundary is built as a function of a smooth density
 function type              =  2 
 using the modified SCCS function with parameters 
 rhomax                     =      0.0050000 
 rhomin                     =      0.0001000 
 volume of the QM region    =    753.3818539 
 surface of the QM region   =    423.3062458 

%%%% DIELECTRIC %%%%%%%%%%%%%%%%%%%%%%%%%%%%%%%%%%%%%%%%%%%%%%%%%%%%%%%%%%%%%%%%%
 dielectric build on homogeneous background
 environment bulk permitt.  =    100.0000000 
 dielectric flags
 need gradient              =  F 
 need factor depend. sqrt   =  T 
 total dielectric charge    =      0.9897981

%%%% DENSITY %%%%%%%%%%%%%%%%%%%%%%%%%%%%%%%%%%%%%%%%%%%%%%%%%%%%%%%%%%%%%%%%%%%
 density label              = vreference                                                                      
 integral of density        =     0.5567291484E-11

%%%% COMPUTE ELECTROSTATIC POTENTIAL %%%%%%%%%%%%%%%%%%%%%%%%%%%%%%%%%%%%%%%%%%%
 Warning: bad guess with residual norm =   0.109859E+05, reset to no guess
 Iteration #          1
  pAp =    112.96077445118003       rzold =    93.996592881847050       alpha =   0.83211710736341471     
 delta_qm =   0.673463E-01 delta_en =   0.783739E+04 tol =   0.100000E-04
 Iteration #          2
  pAp =    7081.5129310165385       rzold =    323.47674627717259       alpha =    4.5679044778745903E-002
 delta_qm =   0.811933E-02 delta_en =   0.113916E+03 tol =   0.100000E-04
 Iteration #          3
  pAp =    13.248065068893847       rzold =    1.5906627099886705       alpha =   0.12006754961700106     
 delta_qm =   0.246043E-02 delta_en =   0.104609E+02 tol =   0.100000E-04
 Iteration #          4
  pAp =   0.80545834285300588       rzold =   0.13274369427017640       alpha =   0.16480516397655812     
 delta_qm =   0.105465E-02 delta_en =   0.192203E+01 tol =   0.100000E-04
 Iteration #          5
  pAp =    3.7423335686987663E-002  rzold =    9.3940461757148781E-003  alpha =   0.25102108091826908     
 delta_qm =   0.627306E-03 delta_en =   0.679990E+00 tol =   0.100000E-04
 Iteration #          6
  pAp =    1.2107210942120361E-002  rzold =    3.0567652767546287E-003  alpha =   0.25247476824908538     
 delta_qm =   0.468773E-03 delta_en =   0.379725E+00 tol =   0.100000E-04
 Iteration #          7
  pAp =    8.0970799797057506E-003  rzold =    1.7599669634519412E-003  alpha =   0.21735822887547898     
 delta_qm =   0.415169E-03 delta_en =   0.297847E+00 tol =   0.100000E-04
 Iteration #          8
  pAp =    1.0657110939187970E-003  rzold =    4.1017486062973677E-004  alpha =   0.38488372971839446     
 delta_qm =   0.418704E-03 delta_en =   0.302941E+00 tol =   0.100000E-04
 Iteration #          9
  pAp =    2.9400364325244744E-004  rzold =    2.1740354660713224E-004  alpha =   0.73945868221931454     
 delta_qm =   0.331971E-03 delta_en =   0.190434E+00 tol =   0.100000E-04
 Iteration #         10
  pAp =    3.7333512382841186E-004  rzold =    2.7856418724255027E-004  alpha =   0.74615049445650561     
 delta_qm =   0.143379E-03 delta_en =   0.355236E-01 tol =   0.100000E-04
 Iteration #         11
  pAp =    3.9406955240578299E-004  rzold =    1.3949745463582197E-004  alpha =   0.35399196356123969     
 delta_qm =   0.957615E-04 delta_en =   0.158462E-01 tol =   0.100000E-04
 Iteration #         12
  pAp =    1.5264649731173358E-004  rzold =    4.4785668121729883E-005  alpha =   0.29339466617611876     
 delta_qm =   0.694163E-04 delta_en =   0.832658E-02 tol =   0.100000E-04
 Iteration #         13
  pAp =    2.4763564464622796E-005  rzold =    9.5992689329563511E-006  alpha =   0.38763680190991318     
 delta_qm =   0.502547E-04 delta_en =   0.436412E-02 tol =   0.100000E-04
 Iteration #         14
  pAp =    4.6544009254293451E-005  rzold =    5.7941179906528002E-006  alpha =   0.12448686916927600     
 delta_qm =   0.445540E-04 delta_en =   0.343019E-02 tol =   0.100000E-04
 Iteration #         15
  pAp =    5.9872947512536569E-005  rzold =    9.6290286103173577E-006  alpha =   0.16082436242680673     
 delta_qm =   0.322459E-04 delta_en =   0.179677E-02 tol =   0.100000E-04
 Iteration #         16
  pAp =    3.6850957879341272E-006  rzold =    1.8889004423256238E-006  alpha =   0.51257838358241037     
 delta_qm =   0.223254E-04 delta_en =   0.861274E-03 tol =   0.100000E-04
 Iteration #         17
  pAp =    2.5241069338728490E-006  rzold =    1.1721344228648637E-006  alpha =   0.46437589752443886     
 delta_qm =   0.130611E-04 delta_en =   0.294783E-03 tol =   0.100000E-04
 Iteration #         18
  pAp =    2.5373926918556899E-006  rzold =    6.5075316262980575E-007  alpha =   0.25646529396830797     
 delta_qm =   0.860070E-05 delta_en =   0.127824E-03 tol =   0.100000E-04
 Iteration #         19
  pAp =    8.2105497885352409E-007  rzold =    2.7625190916413174E-007  alpha =   0.33645969670615078     
 delta_qm =   0.451370E-05 delta_en =   0.352054E-04 tol =   0.100000E-04
 Iteration #         20
  pAp =    7.8221073913256282E-008  rzold =    3.8247263346653501E-008  alpha =   0.48896366967638449     
 delta_qm =   0.286292E-05 delta_en =   0.141632E-04 tol =   0.100000E-04
 Iteration #         21
  pAp =    1.5905979560181832E-008  rzold =    9.3455817237329157E-009  alpha =   0.58755147322885659     
 delta_qm =   0.162452E-05 delta_en =   0.456028E-05 tol =   0.100000E-04
 Charges are converged, EXIT

%%%% DENSITY %%%%%%%%%%%%%%%%%%%%%%%%%%%%%%%%%%%%%%%%%%%%%%%%%%%%%%%%%%%%%%%%%%%
 density label              = velectrostatic                                                                  
 integral of density        =     -238.8166318    

%%%% CHARGES %%%%%%%%%%%%%%%%%%%%%%%%%%%%%%%%%%%%%%%%%%%%%%%%%%%%%%%%%%%%%%%%%%%
 total number of charges    =         34
 total charge               =     -1.0000000

%%%% DENSITY %%%%%%%%%%%%%%%%%%%%%%%%%%%%%%%%%%%%%%%%%%%%%%%%%%%%%%%%%%%%%%%%%%%
 density label              = vsoftcavity                                                                     
 integral of density        =      37.95217679    

%%%% DENSITY %%%%%%%%%%%%%%%%%%%%%%%%%%%%%%%%%%%%%%%%%%%%%%%%%%%%%%%%%%%%%%%%%%%
 density label              = dvtot                                                                           
 integral of density        =     -200.8644551    

%%%% ELECTRONS %%%%%%%%%%%%%%%%%%%%%%%%%%%%%%%%%%%%%%%%%%%%%%%%%%%%%%%%%%%%%%%%%
 number of electrons        =         24
 total electronic charge    =     24.0000000

%%%% ELECTRONS %%%%%%%%%%%%%%%%%%%%%%%%%%%%%%%%%%%%%%%%%%%%%%%%%%%%%%%%%%%%%%%%%
 number of electrons        =         24
 total electronic charge    =     24.0000000

%%%% BOUNDARY %%%%%%%%%%%%%%%%%%%%%%%%%%%%%%%%%%%%%%%%%%%%%%%%%%%%%%%%%%%%%%%%%%
 boundary label             = solvent              
 boundary mode              = electronic           
 boundary is built as a function of a smooth density
 function type              =  2 
 using the modified SCCS function with parameters 
 rhomax                     =      0.0050000 
 rhomin                     =      0.0001000 
 volume of the QM region    =    715.3430862 
 surface of the QM region   =    412.1642965 

%%%% DIELECTRIC %%%%%%%%%%%%%%%%%%%%%%%%%%%%%%%%%%%%%%%%%%%%%%%%%%%%%%%%%%%%%%%%%
 dielectric build on homogeneous background
 environment bulk permitt.  =    100.0000000 
 dielectric flags
 need gradient              =  F 
 need factor depend. sqrt   =  T 
 total dielectric charge    =      0.9895339

%%%% DENSITY %%%%%%%%%%%%%%%%%%%%%%%%%%%%%%%%%%%%%%%%%%%%%%%%%%%%%%%%%%%%%%%%%%%
 density label              = vreference                                                                      
 integral of density        =    -0.5252407562E-11

%%%% COMPUTE ELECTROSTATIC POTENTIAL %%%%%%%%%%%%%%%%%%%%%%%%%%%%%%%%%%%%%%%%%%%
 Warning: bad guess with residual norm =   0.149417E+05, reset to no guess
 Iteration #          1
  pAp =    111.96744805481607       rzold =    93.847725886713334       alpha =   0.83816973162385700     
 delta_qm =   0.787334E-01 delta_en =   0.107118E+05 tol =   0.100000E-04
 Iteration #          2
  pAp =    8125.8581795500868       rzold =    339.80415732357505       alpha =    4.1817633265953620E-002
 delta_qm =   0.107384E-01 delta_en =   0.199262E+03 tol =   0.100000E-04
 Iteration #          3
  pAp =    20.017585064726767       rzold =    2.1942016833788092       alpha =   0.10961370596322526     
 delta_qm =   0.304739E-02 delta_en =   0.160472E+02 tol =   0.100000E-04
 Iteration #          4
  pAp =    1.0960148271493484       rzold =   0.16744432494158498       alpha =   0.15277560192967005     
 delta_qm =   0.125766E-02 delta_en =   0.273319E+01 tol =   0.100000E-04
 Iteration #          5
  pAp =    5.1799499751258513E-002  rzold =    1.1708056603395104E-002  alpha =   0.22602644156057988     
 delta_qm =   0.795687E-03 delta_en =   0.109403E+01 tol =   0.100000E-04
 Iteration #          6
  pAp =    1.7365839874336854E-002  rzold =    3.8852647996169692E-003  alpha =   0.22373031351962383     
 delta_qm =   0.611805E-03 delta_en =   0.646801E+00 tol =   0.100000E-04
 Iteration #          7
  pAp =    9.8149525212954288E-003  rzold =    2.2121845221028417E-003  alpha =   0.22538922295376179     
 delta_qm =   0.559995E-03 delta_en =   0.541891E+00 tol =   0.100000E-04
 Iteration #          8
  pAp =    1.5971508529650630E-003  rzold =    5.7789062674578164E-004  alpha =   0.36182595130130940     
 delta_qm =   0.579448E-03 delta_en =   0.580193E+00 tol =   0.100000E-04
 Iteration #          9
  pAp =    4.2585454289230916E-004  rzold =    2.8846355226846613E-004  alpha =   0.67737577791065928     
 delta_qm =   0.490721E-03 delta_en =   0.416115E+00 tol =   0.100000E-04
 Iteration #         10
  pAp =    4.8428063534072748E-004  rzold =    3.8197137046255526E-004  alpha =   0.78873971533842147     
 delta_qm =   0.227071E-03 delta_en =   0.890981E-01 tol =   0.100000E-04
 Iteration #         11
  pAp =    8.3729606044582897E-004  rzold =    2.8481573027217113E-004  alpha =   0.34016131656049758     
 delta_qm =   0.157186E-03 delta_en =   0.426942E-01 tol =   0.100000E-04
 Iteration #         12
  pAp =    3.6128902165548761E-004  rzold =    1.0339272169086820E-004  alpha =   0.28617731371162403     
 delta_qm =   0.120411E-03 delta_en =   0.250541E-01 tol =   0.100000E-04
 Iteration #         13
  pAp =    6.0503315876714291E-005  rzold =    2.1864420893600096E-005  alpha =   0.36137558044178175     
 delta_qm =   0.924156E-04 delta_en =   0.147582E-01 tol =   0.100000E-04
 Iteration #         14
  pAp =    2.9876882323846167E-005  rzold =    1.0678789325657736E-005  alpha =   0.35742649483659422     
 delta_qm =   0.675064E-04 delta_en =   0.787469E-02 tol =   0.100000E-04
 Iteration #         15
  pAp =    4.7732389658708180E-004  rzold =    2.6824113265825463E-005  alpha =    5.6196879011549211E-002
 delta_qm =   0.619725E-04 delta_en =   0.663655E-02 tol =   0.100000E-04
 Iteration #         16
  pAp =    1.2226409033712379E-005  rzold =    5.7083993049584663E-006  alpha =   0.46689091533077809     
 delta_qm =   0.436352E-04 delta_en =   0.329016E-02 tol =   0.100000E-04
 Iteration #         17
  pAp =    6.5623209413121692E-006  rzold =    3.3381509931164984E-006  alpha =   0.50868450704713908     
 delta_qm =   0.264128E-04 delta_en =   0.120552E-02 tol =   0.100000E-04
 Iteration #         18
  pAp =    3.9561646456338897E-006  rzold =    1.4540232177185815E-006  alpha =   0.36753354522877946     
 delta_qm =   0.164282E-04 delta_en =   0.466365E-03 tol =   0.100000E-04
 Iteration #         19
  pAp =    4.8109313461827922E-006  rzold =    1.0296657004717554E-006  alpha =   0.21402627191692064     
 delta_qm =   0.104738E-04 delta_en =   0.189563E-03 tol =   0.100000E-04
 Iteration #         20
  pAp =    4.2423908422974970E-007  rzold =    1.8006684572957331E-007  alpha =   0.42444662083999979     
 delta_qm =   0.693381E-05 delta_en =   0.830782E-04 tol =   0.100000E-04
 Iteration #         21
  pAp =    7.8465597770145321E-008  rzold =    4.2331945698656290E-008  alpha =   0.53949688655482075     
 delta_qm =   0.446566E-05 delta_en =   0.344601E-04 tol =   0.100000E-04
 Iteration #         22
  pAp =    4.1136826055611780E-008  rzold =    2.5037777065681311E-008  alpha =   0.60864630226535721     
 delta_qm =   0.215542E-05 delta_en =   0.802802E-05 tol =   0.100000E-04
 Charges are converged, EXIT

%%%% DENSITY %%%%%%%%%%%%%%%%%%%%%%%%%%%%%%%%%%%%%%%%%%%%%%%%%%%%%%%%%%%%%%%%%%%
 density label              = velectrostatic                                                                  
 integral of density        =     -232.1003010    

%%%% CHARGES %%%%%%%%%%%%%%%%%%%%%%%%%%%%%%%%%%%%%%%%%%%%%%%%%%%%%%%%%%%%%%%%%%%
 total number of charges    =         34
 total charge               =     -1.0000000

%%%% DENSITY %%%%%%%%%%%%%%%%%%%%%%%%%%%%%%%%%%%%%%%%%%%%%%%%%%%%%%%%%%%%%%%%%%%
 density label              = vsoftcavity                                                                     
 integral of density        =      33.74489862    

%%%% DENSITY %%%%%%%%%%%%%%%%%%%%%%%%%%%%%%%%%%%%%%%%%%%%%%%%%%%%%%%%%%%%%%%%%%%
 density label              = dvtot                                                                           
 integral of density        =     -198.3554024    

%%%% ELECTRONS %%%%%%%%%%%%%%%%%%%%%%%%%%%%%%%%%%%%%%%%%%%%%%%%%%%%%%%%%%%%%%%%%
 number of electrons        =         24
 total electronic charge    =     24.0000000

%%%% ELECTRONS %%%%%%%%%%%%%%%%%%%%%%%%%%%%%%%%%%%%%%%%%%%%%%%%%%%%%%%%%%%%%%%%%
 number of electrons        =         24
 total electronic charge    =     24.0000000

%%%% BOUNDARY %%%%%%%%%%%%%%%%%%%%%%%%%%%%%%%%%%%%%%%%%%%%%%%%%%%%%%%%%%%%%%%%%%
 boundary label             = solvent              
 boundary mode              = electronic           
 boundary is built as a function of a smooth density
 function type              =  2 
 using the modified SCCS function with parameters 
 rhomax                     =      0.0050000 
 rhomin                     =      0.0001000 
 volume of the QM region    =    715.3430862 
 surface of the QM region   =    412.1642965 

%%%% DIELECTRIC %%%%%%%%%%%%%%%%%%%%%%%%%%%%%%%%%%%%%%%%%%%%%%%%%%%%%%%%%%%%%%%%%
 dielectric build on homogeneous background
 environment bulk permitt.  =    100.0000000 
 dielectric flags
 need gradient              =  F 
 need factor depend. sqrt   =  T 
 total dielectric charge    =      0.9893604

%%%% DENSITY %%%%%%%%%%%%%%%%%%%%%%%%%%%%%%%%%%%%%%%%%%%%%%%%%%%%%%%%%%%%%%%%%%%
 density label              = dvtot                                                                           
 integral of density        =     -198.3554024    

%%%% DENSITY %%%%%%%%%%%%%%%%%%%%%%%%%%%%%%%%%%%%%%%%%%%%%%%%%%%%%%%%%%%%%%%%%%%
 density label              = vreference                                                                      
 integral of density        =    -0.5252407562E-11

%%%% DENSITY %%%%%%%%%%%%%%%%%%%%%%%%%%%%%%%%%%%%%%%%%%%%%%%%%%%%%%%%%%%%%%%%%%%
 density label              = velectrostatic                                                                  
 integral of density        =     -232.1003010    

%%%% CHARGES %%%%%%%%%%%%%%%%%%%%%%%%%%%%%%%%%%%%%%%%%%%%%%%%%%%%%%%%%%%%%%%%%%%
 total number of charges    =         34
 total charge               =     -1.0000000

%%%% DENSITY %%%%%%%%%%%%%%%%%%%%%%%%%%%%%%%%%%%%%%%%%%%%%%%%%%%%%%%%%%%%%%%%%%%
 density label              = vsoftcavity                                                                     
 integral of density        =      33.74489862    
