
     Program PWSCF v.6.7MaX starts on  1Oct2021 at 20:48:53 

     This program is part of the open-source Quantum ESPRESSO suite
     for quantum simulation of materials; please cite
         "P. Giannozzi et al., J. Phys.:Condens. Matter 21 395502 (2009);
         "P. Giannozzi et al., J. Phys.:Condens. Matter 29 465901 (2017);
          URL http://www.quantum-espresso.org", 
     in publications or presentations arising from this work. More details at
     http://www.quantum-espresso.org/quote

     Parallel version (MPI), running on     1 processors

     MPI processes distributed on     1 nodes
     Reading input from charged.in

     Current dimensions of program PWSCF are:
     Max number of different atomic species (ntypx) = 10
     Max number of k-points (npk) =  40000
     Max angular momentum in pseudopotentials (lmaxx) =  3

     Reading input from environ.in

     ================================================================================

     Reading ENVIRON namelist

     Reading BOUNDARY namelist

     Checking boundary derivatives
     derivatives               = chain          ! SCCS default

     Reading ELECTROSTATIC namelist

     Setting up electrostatic problem
     problem                   = generalized    
     solver                    = cg             

     Checking PBC correction

     ================================================================================
 
     file C.pbe-rrkjus.UPF: wavefunction(s)  2S 2P renormalized
     file H.pbe-rrkjus.UPF: wavefunction(s)  1S renormalized
     file N.pbe-rrkjus.UPF: wavefunction(s)  2S renormalized
     file O.pbe-rrkjus.UPF: wavefunction(s)  2S renormalized

     gamma-point specific algorithms are used

     Subspace diagonalization in iterative solution of the eigenvalue problem:
     a serial algorithm will be used

 
     G-vector sticks info
     --------------------
     sticks:   dense  smooth     PW     G-vecs:    dense   smooth      PW
     Sum        9549    3809    949               701475   177509   22119
 


     bravais-lattice index     =            1
     lattice parameter (alat)  =      20.0000  a.u.
     unit-cell volume          =    8000.0000 (a.u.)^3
     number of atoms/cell      =           10
     number of atomic types    =            4
     number of electrons       =        24.00
     number of Kohn-Sham states=           12
     kinetic-energy cutoff     =      30.0000  Ry
     charge density cutoff     =     300.0000  Ry
     scf convergence threshold =      5.0E-03
     mixing beta               =       0.7000
     number of iterations used =            8  plain     mixing
     Exchange-correlation= SLA  PW   PBE  PBE
                           (   1   4   3   4   0   0   0)
 

     Environ Module
     ==============

     Please cite
         O. Andreussi, I. Dabo and N. Marzari, J. Chem. Phys. 136, 064102 (2012)         
     in publications or presentations arising from this work.

     compensation onset threshold      =               0.1000E+03
     static permittivity               =                   100.00
     epsilon calculation mode          =               electronic

     Electrostatic Setup
     -------------------
     electrostatic problem to solve    = generalized             
     numerical solver adopted          = cg                      
     type of auxiliary density adopted = none                    
     type of core tool for poisson     = fft                     
     type of core tool for correction  = 1d-analytic             



     celldm(1)=  20.000000  celldm(2)=   0.000000  celldm(3)=   0.000000
     celldm(4)=   0.000000  celldm(5)=   0.000000  celldm(6)=   0.000000

     crystal axes: (cart. coord. in units of alat)
               a(1) = (   1.000000   0.000000   0.000000 )  
               a(2) = (   0.000000   1.000000   0.000000 )  
               a(3) = (   0.000000   0.000000   1.000000 )  

     reciprocal axes: (cart. coord. in units 2 pi/alat)
               b(1) = (  1.000000  0.000000  0.000000 )  
               b(2) = (  0.000000  1.000000  0.000000 )  
               b(3) = (  0.000000  0.000000  1.000000 )  


     PseudoPot. # 1 for C  read from file:
     /home/simplogic86/Work/QE1/Environ/tests/../..//pseudo/C.pbe-rrkjus.UPF
     MD5 check sum: c9ac5a99bc85b198593446162950cd17
     Pseudo is Ultrasoft, Zval =  4.0
     Generated by new atomic code, or converted to UPF format
     Using radial grid of  627 points,  4 beta functions with: 
                l(1) =   0
                l(2) =   0
                l(3) =   1
                l(4) =   1
     Q(r) pseudized with 0 coefficients 


     PseudoPot. # 2 for H  read from file:
     /home/simplogic86/Work/QE1/Environ/tests/../..//pseudo/H.pbe-rrkjus.UPF
     MD5 check sum: 2d52a7f45632fd764c17cc6affed14c8
     Pseudo is Ultrasoft, Zval =  1.0
     Generated by new atomic code, or converted to UPF format
     Using radial grid of 1061 points,  2 beta functions with: 
                l(1) =   0
                l(2) =   0
     Q(r) pseudized with 0 coefficients 


     PseudoPot. # 3 for N  read from file:
     /home/simplogic86/Work/QE1/Environ/tests/../..//pseudo/N.pbe-rrkjus.UPF
     MD5 check sum: 28c76d763763edb36c62a6ca2be9aebd
     Pseudo is Ultrasoft, Zval =  5.0
     Generated by new atomic code, or converted to UPF format
     Using radial grid of 1257 points,  4 beta functions with: 
                l(1) =   0
                l(2) =   0
                l(3) =   1
                l(4) =   1
     Q(r) pseudized with 0 coefficients 


     PseudoPot. # 4 for O  read from file:
     /home/simplogic86/Work/QE1/Environ/tests/../..//pseudo/O.pbe-rrkjus.UPF
     MD5 check sum: fadcf19ee70a498d3030e2e79cf929a4
     Pseudo is Ultrasoft, Zval =  6.0
     Generated by new atomic code, or converted to UPF format
     Using radial grid of 1269 points,  4 beta functions with: 
                l(1) =   0
                l(2) =   0
                l(3) =   1
                l(4) =   1
     Q(r) pseudized with 0 coefficients 


     atomic species   valence    mass     pseudopotential
        C              4.00    12.00000     C ( 1.00)
        H              1.00     1.00000     H ( 1.00)
        N              5.00    14.00000     N ( 1.00)
        O              6.00    16.00000     O ( 1.00)

     No symmetry found



   Cartesian axes

     site n.     atom                  positions (alat units)
         1           C   tau(   1) = (   0.0000000   0.0000000   0.0000000  )
         2           C   tau(   2) = (   0.0000000   0.0000000   0.1455089  )
         3           N   tau(   3) = (   0.1170969   0.0000000  -0.0545024  )
         4           H   tau(   4) = (   0.0476617  -0.0825466   0.1792090  )
         5           H   tau(   5) = (  -0.0953183  -0.0000030   0.1792090  )
         6           H   tau(   6) = (   0.0476566   0.0825496   0.1792090  )
         7           O   tau(   7) = (  -0.0984002  -0.0000019  -0.0641310  )
         8           H   tau(   8) = (   0.1263131  -0.0000015  -0.1475548  )
         9           H   tau(   9) = (   0.1944645   0.0000134  -0.0025716  )
        10           H   tau(  10) = (  -0.0770366  -0.0000045  -0.1522861  )

     number of k points=     1
                       cart. coord. in units 2pi/alat
        k(    1) = (   0.0000000   0.0000000   0.0000000), wk =   2.0000000

     Dense  grid:   350738 G-vectors     FFT dimensions: ( 120, 120, 120)

     Smooth grid:    88755 G-vectors     FFT dimensions: (  72,  72,  72)

     Estimated max dynamical RAM per process >     624.11 MB

     Initial potential from superposition of free atoms

     starting charge   24.42266, renormalised to   24.00000

     negative rho (up, down):  4.438E-04 0.000E+00
     Starting wfcs are   22 randomized atomic wfcs

     total cpu time spent up to now is        6.1 secs

     Self-consistent Calculation

     iteration #  1     ecut=    30.00 Ry     beta= 0.70
     Davidson diagonalization with overlap
     ethr =  1.00E-02,  avg # of iterations =  2.0

     negative rho (up, down):  1.234E-04 0.000E+00

     add environment contribution to local potential
     Polarization accuracy = 9.3E-06, # of iterations =  14

     total cpu time spent up to now is       12.6 secs

     total energy              =     -80.29071716 Ry
     estimated scf accuracy    <       3.64924908 Ry
     electrostatic embedding   =       0.00490874 Ry
     correction to one-el term =       0.00000000 Ry

     iteration #  2     ecut=    30.00 Ry     beta= 0.70
     Davidson diagonalization with overlap
     ethr =  1.00E-02,  avg # of iterations =  4.0

     negative rho (up, down):  4.931E-04 0.000E+00

     add environment contribution to local potential
     Polarization accuracy = 8.6E-06, # of iterations =  18

     total cpu time spent up to now is       19.3 secs

     total energy              =     -81.15267934 Ry
     estimated scf accuracy    <       1.04168814 Ry
     electrostatic embedding   =      -0.16541216 Ry
     correction to one-el term =      -4.24539494 Ry

     iteration #  3     ecut=    30.00 Ry     beta= 0.70
     Davidson diagonalization with overlap
     ethr =  4.34E-03,  avg # of iterations =  4.0

     negative rho (up, down):  2.221E-04 0.000E+00

     add environment contribution to local potential
     Polarization accuracy = 4.6E-06, # of iterations =  21

     total cpu time spent up to now is       26.8 secs

     total energy              =     -81.33044608 Ry
     estimated scf accuracy    <       0.11304102 Ry
     electrostatic embedding   =      -0.13117911 Ry
     correction to one-el term =      -3.51974772 Ry

     iteration #  4     ecut=    30.00 Ry     beta= 0.70
     Davidson diagonalization with overlap
     ethr =  4.71E-04,  avg # of iterations =  5.0

     negative rho (up, down):  1.285E-04 0.000E+00

     add environment contribution to local potential
     Polarization accuracy = 8.0E-06, # of iterations =  22

     total cpu time spent up to now is       35.9 secs

     total energy              =     -81.36216444 Ry
     estimated scf accuracy    <       0.01961493 Ry
     electrostatic embedding   =      -0.10905404 Ry
     correction to one-el term =      -3.28472082 Ry

     iteration #  5     ecut=    30.00 Ry     beta= 0.70
     Davidson diagonalization with overlap
     ethr =  8.17E-05,  avg # of iterations =  4.0

     negative rho (up, down):  2.790E-04 0.000E+00

     the potential shift due to the Gaussian-smeared nuclei is    -0.0668 ev

     total cpu time spent up to now is       37.6 secs

     End of self-consistent calculation

          k = 0.0000 0.0000 0.0000 ( 11060 PWs)   bands (ev):

   -29.3110 -23.5921 -19.1180 -16.4260 -15.1002 -13.8549 -12.0971 -11.3759
   -10.0755 -10.0540  -9.7725  -7.8532

     highest occupied level (ev):    -7.8532

!    total energy              =     -81.36680414 Ry
     estimated scf accuracy    <       0.00175211 Ry

     The total energy is the sum of the following terms:
     one-electron contribution =    -242.75450807 Ry
     hartree contribution      =     123.23519890 Ry
     xc contribution           =     -22.96887560 Ry
     ewald contribution        =      64.30784069 Ry
     electrostatic embedding   =      -0.10374131 Ry
     correction to one-el term =      -3.08271876 Ry

     WARNING: you are using the parabolic pbc correction;
              the potential shift above must be added to 
              band and Fermi energies.

     convergence has been achieved in   5 iterations

     Forces acting on atoms (cartesian axes, Ry/au):

     atom    1 type  1   force =     0.21318600    0.00000059    0.09951717
     atom    2 type  1   force =    -0.03203302    0.00000437   -0.07981609
     atom    3 type  3   force =    -0.13617715    0.00000383    0.04389421
     atom    4 type  2   force =     0.01435304   -0.02168484    0.00667347
     atom    5 type  2   force =    -0.02490040   -0.00000288    0.01011910
     atom    6 type  2   force =     0.01434950    0.02167925    0.00667167
     atom    7 type  4   force =    -0.08305406   -0.00000284   -0.00698913
     atom    8 type  2   force =     0.00620738    0.00000087   -0.04705616
     atom    9 type  2   force =     0.03858542    0.00000425    0.03819288
     atom   10 type  2   force =    -0.01051671   -0.00000259   -0.07120711

     Total force =     0.320486     Total SCF correction =     0.071627
     SCF correction compared to forces is large: reduce conv_thr to get better values

     Writing output data file /home/simplogic86/Work/QE1/Environ/tests/../..//tempdir/pwscf.save/
 
     init_run     :      5.79s CPU      6.02s WALL (       1 calls)
     electrons    :     30.05s CPU     31.50s WALL (       1 calls)
     forces       :      0.85s CPU      0.91s WALL (       1 calls)

     Called by init_run:
     wfcinit      :      0.10s CPU      0.10s WALL (       1 calls)
     potinit      :      1.10s CPU      1.18s WALL (       1 calls)
     hinit0       :      3.83s CPU      3.84s WALL (       1 calls)

     Called by electrons:
     c_bands      :      0.88s CPU      0.93s WALL (       5 calls)
     sum_band     :      2.01s CPU      2.35s WALL (       5 calls)
     v_of_rho     :      2.38s CPU      2.60s WALL (       6 calls)
     newd         :      1.28s CPU      1.72s WALL (       6 calls)
     mix_rho      :      0.22s CPU      0.22s WALL (       5 calls)

     Called by c_bands:
     init_us_2    :      0.03s CPU      0.03s WALL (      11 calls)
     regterg      :      0.82s CPU      0.88s WALL (       5 calls)

     Called by *egterg:
     rdiaghg      :      0.01s CPU      0.01s WALL (      24 calls)
     h_psi        :      0.82s CPU      0.88s WALL (      25 calls)
     s_psi        :      0.02s CPU      0.02s WALL (      25 calls)
     g_psi        :      0.00s CPU      0.00s WALL (      19 calls)

     Called by h_psi:
     h_psi:calbec :      0.02s CPU      0.03s WALL (      25 calls)
     vloc_psi     :      0.78s CPU      0.82s WALL (      25 calls)
     add_vuspsi   :      0.02s CPU      0.02s WALL (      25 calls)

     General routines
     calbec       :      0.03s CPU      0.04s WALL (      34 calls)
     fft          :      1.02s CPU      1.08s WALL (      66 calls)
     ffts         :      0.03s CPU      0.03s WALL (      11 calls)
     fftw         :      0.63s CPU      0.66s WALL (     240 calls)
     interpolate  :      0.13s CPU      0.13s WALL (       6 calls)
 
     Parallel routines
 
     Environ routines
 
     PWSCF        :     36.80s CPU     38.55s WALL

 
   This run was terminated on:  20:49:31   1Oct2021            

=------------------------------------------------------------------------------=
   JOB DONE.
=------------------------------------------------------------------------------=

%%%% CELL %%%%%%%%%%%%%%%%%%%%%%%%%%%%%%%%%%%%%%%%%%%%%%%%%%%%%%%%%%%%%%%%%%%%%%

 cell label                 = system         

 cell volume                =    8000.000000

%%%% IONS %%%%%%%%%%%%%%%%%%%%%%%%%%%%%%%%%%%%%%%%%%%%%%%%%%%%%%%%%%%%%%%%%%%%%%

 total charge               =    -25.0000000
 center of charge           =      0.1910593    -0.0000030     0.1279620
 dipole                     =      0.0000000     0.0000000     0.0000000
 quadrupole (pc)            =    -79.0828051    -5.4513517  -105.8059620
 quadrupole (gauss)         =    -82.2078051    -8.5763517  -108.9309620

   i | type | coordinates
 -----------------------------------------------------------------------
   1 |    1 |                      0.0000000     0.0000000     0.0000000
   2 |    1 |                      0.0000000     0.0000000     2.9101782
   3 |    3 |                      2.3419379     0.0000000    -1.0900479
   4 |    2 |                      0.9532347    -1.6509323     3.5841800
   5 |    2 |                     -1.9063663    -0.0000596     3.5841809
   6 |    2 |                      0.9531315     1.6509919     3.5841800
   7 |    4 |                     -1.9680045    -0.0000375    -1.2826193
   8 |    2 |                      2.5262613    -0.0000303    -2.9510950
   9 |    2 |                      3.8892907     0.0002681    -0.0514326
  10 |    2 |                     -1.5407317    -0.0000890    -3.0457220

%%%% SYSTEM %%%%%%%%%%%%%%%%%%%%%%%%%%%%%%%%%%%%%%%%%%%%%%%%%%%%%%%%%%%%%%%%%%%%

 system is built from all present ionic types

 system defined dimension   =              0
 system defined axis        =              3

 system center              =      0.1910593    -0.0000030     0.1279620
 system width               =      4.0428509

%%%% IONS %%%%%%%%%%%%%%%%%%%%%%%%%%%%%%%%%%%%%%%%%%%%%%%%%%%%%%%%%%%%%%%%%%%%%%

 total charge               =    -25.0000000
 center of charge           =      0.1910593    -0.0000030     0.1279620
 dipole                     =      0.0000000     0.0000000     0.0000000
 quadrupole (pc)            =    -79.0828051    -5.4513517  -105.8059620
 quadrupole (gauss)         =    -82.2078051    -8.5763517  -108.9309620

   i | type | coordinates
 -----------------------------------------------------------------------
   1 |    1 |                      0.0000000     0.0000000     0.0000000
   2 |    1 |                      0.0000000     0.0000000     2.9101782
   3 |    3 |                      2.3419379     0.0000000    -1.0900479
   4 |    2 |                      0.9532347    -1.6509323     3.5841800
   5 |    2 |                     -1.9063663    -0.0000596     3.5841809
   6 |    2 |                      0.9531315     1.6509919     3.5841800
   7 |    4 |                     -1.9680045    -0.0000375    -1.2826193
   8 |    2 |                      2.5262613    -0.0000303    -2.9510950
   9 |    2 |                      3.8892907     0.0002681    -0.0514326
  10 |    2 |                     -1.5407317    -0.0000890    -3.0457220

%%%% SYSTEM %%%%%%%%%%%%%%%%%%%%%%%%%%%%%%%%%%%%%%%%%%%%%%%%%%%%%%%%%%%%%%%%%%%%

 system is built from all present ionic types

 system defined dimension   =              0
 system defined axis        =              3

 system center              =      0.1910593    -0.0000030     0.1279620
 system width               =      4.0428509

%%%% CHARGES %%%%%%%%%%%%%%%%%%%%%%%%%%%%%%%%%%%%%%%%%%%%%%%%%%%%%%%%%%%%%%%%%%%

 total number of charges    =             11

 total charge               =    -25.0000000

%%%% CHARGES %%%%%%%%%%%%%%%%%%%%%%%%%%%%%%%%%%%%%%%%%%%%%%%%%%%%%%%%%%%%%%%%%%%

 total number of charges    =             11

 total charge               =    -25.0000000

%%%% CELL %%%%%%%%%%%%%%%%%%%%%%%%%%%%%%%%%%%%%%%%%%%%%%%%%%%%%%%%%%%%%%%%%%%%%%

 cell label                 = system         

 cell volume                =    8000.000000

%%%% ELECTRONS %%%%%%%%%%%%%%%%%%%%%%%%%%%%%%%%%%%%%%%%%%%%%%%%%%%%%%%%%%%%%%%%%

 number of electrons        =             24

 total electronic charge    =     24.0000000

%%%% ELECTRONS %%%%%%%%%%%%%%%%%%%%%%%%%%%%%%%%%%%%%%%%%%%%%%%%%%%%%%%%%%%%%%%%%

 number of electrons        =             24

 total electronic charge    =     24.0000000

%%%% CHARGES %%%%%%%%%%%%%%%%%%%%%%%%%%%%%%%%%%%%%%%%%%%%%%%%%%%%%%%%%%%%%%%%%%%

 total number of charges    =             34

 total charge               =     -1.0000000

%%%% CHARGES %%%%%%%%%%%%%%%%%%%%%%%%%%%%%%%%%%%%%%%%%%%%%%%%%%%%%%%%%%%%%%%%%%%

 total number of charges    =             34

 total charge               =     -1.0000000

%%%% BOUNDARY %%%%%%%%%%%%%%%%%%%%%%%%%%%%%%%%%%%%%%%%%%%%%%%%%%%%%%%%%%%%%%%%%%

 boundary label             = solvent             
 boundary mode              = electronic          

 boundary is built as a type-2 function of a smooth density

 using the modified SCCS function:
 rhomax                     =      0.0050000
 rhomin                     =      0.0001000

 volume of the QM region    =   2771.6247496

 surface of the QM region   =    905.6008158

%%%% DENSITY %%%%%%%%%%%%%%%%%%%%%%%%%%%%%%%%%%%%%%%%%%%%%%%%%%%%%%%%%%%%%%%%%%%

 density label              = dvtot                                             

 integral of density        =    0.000000000    

%%%% DENSITY %%%%%%%%%%%%%%%%%%%%%%%%%%%%%%%%%%%%%%%%%%%%%%%%%%%%%%%%%%%%%%%%%%%

 density label              = vreference                                        

 integral of density        =    0.000000000    

%%%% DENSITY %%%%%%%%%%%%%%%%%%%%%%%%%%%%%%%%%%%%%%%%%%%%%%%%%%%%%%%%%%%%%%%%%%%

 density label              = velectrostatic                                    

 integral of density        =    0.000000000    

%%%% CHARGES %%%%%%%%%%%%%%%%%%%%%%%%%%%%%%%%%%%%%%%%%%%%%%%%%%%%%%%%%%%%%%%%%%%

 total number of charges    =             34

 total charge               =     -1.0000000

%%%% DENSITY %%%%%%%%%%%%%%%%%%%%%%%%%%%%%%%%%%%%%%%%%%%%%%%%%%%%%%%%%%%%%%%%%%%

 density label              = vsoftcavity                                       

 integral of density        =    0.000000000    

%%%% ELECTRONS %%%%%%%%%%%%%%%%%%%%%%%%%%%%%%%%%%%%%%%%%%%%%%%%%%%%%%%%%%%%%%%%%

 number of electrons        =             24

 total electronic charge    =     24.0000000

%%%% ELECTRONS %%%%%%%%%%%%%%%%%%%%%%%%%%%%%%%%%%%%%%%%%%%%%%%%%%%%%%%%%%%%%%%%%

 number of electrons        =             24

 total electronic charge    =     24.0000000

%%%% CHARGES %%%%%%%%%%%%%%%%%%%%%%%%%%%%%%%%%%%%%%%%%%%%%%%%%%%%%%%%%%%%%%%%%%%

 total number of charges    =             34

 total charge               =     -1.0000000

%%%% CHARGES %%%%%%%%%%%%%%%%%%%%%%%%%%%%%%%%%%%%%%%%%%%%%%%%%%%%%%%%%%%%%%%%%%%

 total number of charges    =             34

 total charge               =     -1.0000000

%%%% BOUNDARY %%%%%%%%%%%%%%%%%%%%%%%%%%%%%%%%%%%%%%%%%%%%%%%%%%%%%%%%%%%%%%%%%%

 boundary label             = solvent             
 boundary mode              = electronic          

 boundary is built as a type-2 function of a smooth density

 using the modified SCCS function:
 rhomax                     =      0.0050000
 rhomin                     =      0.0001000

 volume of the QM region    =    994.3250268

 surface of the QM region   =    491.9124258

%%%% DENSITY %%%%%%%%%%%%%%%%%%%%%%%%%%%%%%%%%%%%%%%%%%%%%%%%%%%%%%%%%%%%%%%%%%%

 density label              = vreference                                        

 integral of density        =  -0.6906738556E-12

%%%% COMPUTE ELECTROSTATIC POTENTIAL %%%%%%%%%%%%%%%%%%%%%%%%%%%%%%%%%%%%%%%%%%%

   i |      alpha     |       pAp      |      rzold     |    delta_qm    |    delta_en    |       tol
 ---------------------------------------------------------------------------------------------------------
   1 |   0.806250E+00 |   0.111917E+03 |   0.902333E+02 |   0.443549E-01 |   0.339959E+04 |   0.100000E-04
   2 |   0.645368E-01 |   0.387862E+04 |   0.250313E+03 |   0.408472E-02 |   0.288316E+02 |   0.100000E-04
   3 |   0.190966E+00 |   0.302759E+01 |   0.578168E+00 |   0.137789E-02 |   0.328074E+01 |   0.100000E-04
   4 |   0.200713E+00 |   0.322419E+00 |   0.647137E-01 |   0.737668E-03 |   0.940299E+00 |   0.100000E-04
   5 |   0.323853E+00 |   0.202058E-01 |   0.654371E-02 |   0.340429E-03 |   0.200261E+00 |   0.100000E-04
   6 |   0.419024E+00 |   0.334180E-02 |   0.140030E-02 |   0.160815E-03 |   0.446884E-01 |   0.100000E-04
   7 |   0.206421E+00 |   0.153557E-02 |   0.316974E-03 |   0.119004E-03 |   0.244718E-01 |   0.100000E-04
   8 |   0.338835E+00 |   0.258413E-03 |   0.875594E-04 |   0.109762E-03 |   0.208184E-01 |   0.100000E-04
   9 |   0.735568E+00 |   0.354627E-04 |   0.260852E-04 |   0.673109E-04 |   0.782914E-02 |   0.100000E-04
  10 |   0.769454E+00 |   0.278683E-04 |   0.214434E-04 |   0.274163E-04 |   0.129886E-02 |   0.100000E-04
  11 |   0.527452E+00 |   0.109392E-04 |   0.576990E-05 |   0.141637E-04 |   0.346656E-03 |   0.100000E-04
  12 |   0.482391E+00 |   0.173325E-05 |   0.836104E-06 |   0.702956E-05 |   0.853886E-04 |   0.100000E-04
  13 |   0.391276E+00 |   0.496244E-06 |   0.194169E-06 |   0.361897E-05 |   0.226315E-04 |   0.100000E-04
  14 |   0.334286E+00 |   0.179474E-06 |   0.599957E-07 |   0.232090E-05 |   0.930801E-05 |   0.100000E-04

 Charges are converged, EXIT

%%%% DENSITY %%%%%%%%%%%%%%%%%%%%%%%%%%%%%%%%%%%%%%%%%%%%%%%%%%%%%%%%%%%%%%%%%%%

 density label              = velectrostatic                                    

 integral of density        =   -240.6961198    

%%%% CHARGES %%%%%%%%%%%%%%%%%%%%%%%%%%%%%%%%%%%%%%%%%%%%%%%%%%%%%%%%%%%%%%%%%%%

 total number of charges    =             34

 total charge               =     -1.0000000

%%%% DENSITY %%%%%%%%%%%%%%%%%%%%%%%%%%%%%%%%%%%%%%%%%%%%%%%%%%%%%%%%%%%%%%%%%%%

 density label              = vsoftcavity                                       

 integral of density        =    72.23827652    

%%%% DENSITY %%%%%%%%%%%%%%%%%%%%%%%%%%%%%%%%%%%%%%%%%%%%%%%%%%%%%%%%%%%%%%%%%%%

 density label              = dvtot                                             

 integral of density        =   -168.4578433    

%%%% ELECTRONS %%%%%%%%%%%%%%%%%%%%%%%%%%%%%%%%%%%%%%%%%%%%%%%%%%%%%%%%%%%%%%%%%

 number of electrons        =             24

 total electronic charge    =     24.0000000

%%%% ELECTRONS %%%%%%%%%%%%%%%%%%%%%%%%%%%%%%%%%%%%%%%%%%%%%%%%%%%%%%%%%%%%%%%%%

 number of electrons        =             24

 total electronic charge    =     24.0000000

%%%% CHARGES %%%%%%%%%%%%%%%%%%%%%%%%%%%%%%%%%%%%%%%%%%%%%%%%%%%%%%%%%%%%%%%%%%%

 total number of charges    =             34

 total charge               =     -1.0000000

%%%% CHARGES %%%%%%%%%%%%%%%%%%%%%%%%%%%%%%%%%%%%%%%%%%%%%%%%%%%%%%%%%%%%%%%%%%%

 total number of charges    =             34

 total charge               =     -1.0000000

%%%% BOUNDARY %%%%%%%%%%%%%%%%%%%%%%%%%%%%%%%%%%%%%%%%%%%%%%%%%%%%%%%%%%%%%%%%%%

 boundary label             = solvent             
 boundary mode              = electronic          

 boundary is built as a type-2 function of a smooth density

 using the modified SCCS function:
 rhomax                     =      0.0050000
 rhomin                     =      0.0001000

 volume of the QM region    =    821.1075342

 surface of the QM region   =    442.9819547

%%%% DENSITY %%%%%%%%%%%%%%%%%%%%%%%%%%%%%%%%%%%%%%%%%%%%%%%%%%%%%%%%%%%%%%%%%%%

 density label              = vreference                                        

 integral of density        =   0.1076340663E-12

%%%% COMPUTE ELECTROSTATIC POTENTIAL %%%%%%%%%%%%%%%%%%%%%%%%%%%%%%%%%%%%%%%%%%%

 Warning: Bad guess with residual norm =   0.867527E+04, reset to no guess

   i |      alpha     |       pAp      |      rzold     |    delta_qm    |    delta_en    |       tol
 ---------------------------------------------------------------------------------------------------------
   1 |   0.822235E+00 |   0.113426E+03 |   0.932628E+02 |   0.595202E-01 |   0.612170E+04 |   0.100000E-04
   2 |   0.522576E-01 |   0.564295E+04 |   0.294887E+03 |   0.716148E-02 |   0.886235E+02 |   0.100000E-04
   3 |   0.128954E+00 |   0.122893E+02 |   0.158475E+01 |   0.211630E-02 |   0.773920E+01 |   0.100000E-04
   4 |   0.192035E+00 |   0.515946E+00 |   0.990794E-01 |   0.916662E-03 |   0.145199E+01 |   0.100000E-04
   5 |   0.291794E+00 |   0.247126E-01 |   0.721099E-02 |   0.501534E-03 |   0.434654E+00 |   0.100000E-04
   6 |   0.260518E+00 |   0.101009E-01 |   0.263147E-02 |   0.360165E-03 |   0.224155E+00 |   0.100000E-04
   7 |   0.225369E+00 |   0.578747E-02 |   0.130431E-02 |   0.307028E-03 |   0.162891E+00 |   0.100000E-04
   8 |   0.436878E+00 |   0.501891E-03 |   0.219265E-03 |   0.287980E-03 |   0.143307E+00 |   0.100000E-04
   9 |   0.824364E+00 |   0.152095E-03 |   0.125382E-03 |   0.192967E-03 |   0.643441E-01 |   0.100000E-04
  10 |   0.687842E+00 |   0.204319E-03 |   0.140539E-03 |   0.784438E-04 |   0.106331E-01 |   0.100000E-04
  11 |   0.428284E+00 |   0.837701E-04 |   0.358774E-04 |   0.497598E-04 |   0.427860E-02 |   0.100000E-04
  12 |   0.375298E+00 |   0.222697E-04 |   0.835777E-05 |   0.336717E-04 |   0.195918E-02 |   0.100000E-04
  13 |   0.456065E+00 |   0.514725E-05 |   0.234748E-05 |   0.208087E-04 |   0.748230E-03 |   0.100000E-04
  14 |   0.431193E+00 |   0.253425E-05 |   0.109275E-05 |   0.145092E-04 |   0.363773E-03 |   0.100000E-04
  15 |   0.434851E+00 |   0.116338E-05 |   0.505897E-06 |   0.896421E-05 |   0.138857E-03 |   0.100000E-04
  16 |   0.757534E-01 |   0.833076E-05 |   0.631084E-06 |   0.871739E-05 |   0.131316E-03 |   0.100000E-04
  17 |   0.349151E+00 |   0.959413E-06 |   0.334980E-06 |   0.373444E-05 |   0.240987E-04 |   0.100000E-04
  18 |   0.321575E+00 |   0.207406E-06 |   0.666967E-07 |   0.222485E-05 |   0.855349E-05 |   0.100000E-04

 Charges are converged, EXIT

%%%% DENSITY %%%%%%%%%%%%%%%%%%%%%%%%%%%%%%%%%%%%%%%%%%%%%%%%%%%%%%%%%%%%%%%%%%%

 density label              = velectrostatic                                    

 integral of density        =   -242.4894295    

%%%% CHARGES %%%%%%%%%%%%%%%%%%%%%%%%%%%%%%%%%%%%%%%%%%%%%%%%%%%%%%%%%%%%%%%%%%%

 total number of charges    =             34

 total charge               =     -1.0000000

%%%% DENSITY %%%%%%%%%%%%%%%%%%%%%%%%%%%%%%%%%%%%%%%%%%%%%%%%%%%%%%%%%%%%%%%%%%%

 density label              = vsoftcavity                                       

 integral of density        =    48.87387054    

%%%% DENSITY %%%%%%%%%%%%%%%%%%%%%%%%%%%%%%%%%%%%%%%%%%%%%%%%%%%%%%%%%%%%%%%%%%%

 density label              = dvtot                                             

 integral of density        =   -193.6155589    

%%%% ELECTRONS %%%%%%%%%%%%%%%%%%%%%%%%%%%%%%%%%%%%%%%%%%%%%%%%%%%%%%%%%%%%%%%%%

 number of electrons        =             24

 total electronic charge    =     24.0000000

%%%% ELECTRONS %%%%%%%%%%%%%%%%%%%%%%%%%%%%%%%%%%%%%%%%%%%%%%%%%%%%%%%%%%%%%%%%%

 number of electrons        =             24

 total electronic charge    =     24.0000000

%%%% CHARGES %%%%%%%%%%%%%%%%%%%%%%%%%%%%%%%%%%%%%%%%%%%%%%%%%%%%%%%%%%%%%%%%%%%

 total number of charges    =             34

 total charge               =     -1.0000000

%%%% CHARGES %%%%%%%%%%%%%%%%%%%%%%%%%%%%%%%%%%%%%%%%%%%%%%%%%%%%%%%%%%%%%%%%%%%

 total number of charges    =             34

 total charge               =     -1.0000000

%%%% BOUNDARY %%%%%%%%%%%%%%%%%%%%%%%%%%%%%%%%%%%%%%%%%%%%%%%%%%%%%%%%%%%%%%%%%%

 boundary label             = solvent             
 boundary mode              = electronic          

 boundary is built as a type-2 function of a smooth density

 using the modified SCCS function:
 rhomax                     =      0.0050000
 rhomin                     =      0.0001000

 volume of the QM region    =    753.3817822

 surface of the QM region   =    423.3061880

%%%% DENSITY %%%%%%%%%%%%%%%%%%%%%%%%%%%%%%%%%%%%%%%%%%%%%%%%%%%%%%%%%%%%%%%%%%%

 density label              = vreference                                        

 integral of density        =   0.1525693152E-12

%%%% COMPUTE ELECTROSTATIC POTENTIAL %%%%%%%%%%%%%%%%%%%%%%%%%%%%%%%%%%%%%%%%%%%

 Warning: Bad guess with residual norm =   0.109859E+05, reset to no guess

   i |      alpha     |       pAp      |      rzold     |    delta_qm    |    delta_en    |       tol
 ---------------------------------------------------------------------------------------------------------
   1 |   0.832117E+00 |   0.112961E+03 |   0.939966E+02 |   0.673464E-01 |   0.783740E+04 |   0.100000E-04
   2 |   0.456790E-01 |   0.708151E+04 |   0.323477E+03 |   0.811933E-02 |   0.113916E+03 |   0.100000E-04
   3 |   0.120068E+00 |   0.132481E+02 |   0.159066E+01 |   0.246044E-02 |   0.104609E+02 |   0.100000E-04
   4 |   0.164805E+00 |   0.805460E+00 |   0.132744E+00 |   0.105465E-02 |   0.192203E+01 |   0.100000E-04
   5 |   0.251021E+00 |   0.374233E-01 |   0.939405E-02 |   0.627306E-03 |   0.679990E+00 |   0.100000E-04
   6 |   0.252475E+00 |   0.121072E-01 |   0.305676E-02 |   0.468773E-03 |   0.379725E+00 |   0.100000E-04
   7 |   0.217358E+00 |   0.809710E-02 |   0.175997E-02 |   0.415169E-03 |   0.297847E+00 |   0.100000E-04
   8 |   0.384883E+00 |   0.106571E-02 |   0.410175E-03 |   0.418704E-03 |   0.302941E+00 |   0.100000E-04
   9 |   0.739458E+00 |   0.294004E-03 |   0.217403E-03 |   0.331971E-03 |   0.190434E+00 |   0.100000E-04
  10 |   0.746151E+00 |   0.373334E-03 |   0.278564E-03 |   0.143377E-03 |   0.355222E-01 |   0.100000E-04
  11 |   0.353992E+00 |   0.394069E-03 |   0.139497E-03 |   0.957613E-04 |   0.158461E-01 |   0.100000E-04
  12 |   0.293414E+00 |   0.152635E-03 |   0.447852E-04 |   0.694754E-04 |   0.834078E-02 |   0.100000E-04
  13 |   0.394779E+00 |   0.242676E-04 |   0.958035E-05 |   0.496432E-04 |   0.425857E-02 |   0.100000E-04
  14 |   0.464372E+00 |   0.936702E-05 |   0.434978E-05 |   0.331930E-04 |   0.190387E-02 |   0.100000E-04
  15 |   0.121365E+00 |   0.226219E-04 |   0.274551E-05 |   0.325626E-04 |   0.183224E-02 |   0.100000E-04
  16 |   0.180572E+00 |   0.252588E-04 |   0.456103E-05 |   0.221613E-04 |   0.848662E-03 |   0.100000E-04
  17 |   0.459814E+00 |   0.257219E-05 |   0.118273E-05 |   0.130696E-04 |   0.295165E-03 |   0.100000E-04
  18 |   0.256462E+00 |   0.253726E-05 |   0.650709E-06 |   0.859997E-05 |   0.127802E-03 |   0.100000E-04
  19 |   0.336432E+00 |   0.821146E-06 |   0.276259E-06 |   0.451370E-05 |   0.352054E-04 |   0.100000E-04
  20 |   0.488962E+00 |   0.782215E-07 |   0.382473E-07 |   0.286292E-05 |   0.141632E-04 |   0.100000E-04
  21 |   0.587551E+00 |   0.159060E-07 |   0.934559E-08 |   0.162452E-05 |   0.456030E-05 |   0.100000E-04

 Charges are converged, EXIT

%%%% DENSITY %%%%%%%%%%%%%%%%%%%%%%%%%%%%%%%%%%%%%%%%%%%%%%%%%%%%%%%%%%%%%%%%%%%

 density label              = velectrostatic                                    

 integral of density        =   -238.8166117    

%%%% CHARGES %%%%%%%%%%%%%%%%%%%%%%%%%%%%%%%%%%%%%%%%%%%%%%%%%%%%%%%%%%%%%%%%%%%

 total number of charges    =             34

 total charge               =     -1.0000000

%%%% DENSITY %%%%%%%%%%%%%%%%%%%%%%%%%%%%%%%%%%%%%%%%%%%%%%%%%%%%%%%%%%%%%%%%%%%

 density label              = vsoftcavity                                       

 integral of density        =    37.95220362    

%%%% DENSITY %%%%%%%%%%%%%%%%%%%%%%%%%%%%%%%%%%%%%%%%%%%%%%%%%%%%%%%%%%%%%%%%%%%

 density label              = dvtot                                             

 integral of density        =   -200.8644081    

%%%% ELECTRONS %%%%%%%%%%%%%%%%%%%%%%%%%%%%%%%%%%%%%%%%%%%%%%%%%%%%%%%%%%%%%%%%%

 number of electrons        =             24

 total electronic charge    =     24.0000000

%%%% ELECTRONS %%%%%%%%%%%%%%%%%%%%%%%%%%%%%%%%%%%%%%%%%%%%%%%%%%%%%%%%%%%%%%%%%

 number of electrons        =             24

 total electronic charge    =     24.0000000

%%%% CHARGES %%%%%%%%%%%%%%%%%%%%%%%%%%%%%%%%%%%%%%%%%%%%%%%%%%%%%%%%%%%%%%%%%%%

 total number of charges    =             34

 total charge               =     -1.0000000

%%%% CHARGES %%%%%%%%%%%%%%%%%%%%%%%%%%%%%%%%%%%%%%%%%%%%%%%%%%%%%%%%%%%%%%%%%%%

 total number of charges    =             34

 total charge               =     -1.0000000

%%%% BOUNDARY %%%%%%%%%%%%%%%%%%%%%%%%%%%%%%%%%%%%%%%%%%%%%%%%%%%%%%%%%%%%%%%%%%

 boundary label             = solvent             
 boundary mode              = electronic          

 boundary is built as a type-2 function of a smooth density

 using the modified SCCS function:
 rhomax                     =      0.0050000
 rhomin                     =      0.0001000

 volume of the QM region    =    715.3431891

 surface of the QM region   =    412.1643233

%%%% DENSITY %%%%%%%%%%%%%%%%%%%%%%%%%%%%%%%%%%%%%%%%%%%%%%%%%%%%%%%%%%%%%%%%%%%

 density label              = vreference                                        

 integral of density        =  -0.7313326899E-12

%%%% COMPUTE ELECTROSTATIC POTENTIAL %%%%%%%%%%%%%%%%%%%%%%%%%%%%%%%%%%%%%%%%%%%

 Warning: Bad guess with residual norm =   0.149417E+05, reset to no guess

   i |      alpha     |       pAp      |      rzold     |    delta_qm    |    delta_en    |       tol
 ---------------------------------------------------------------------------------------------------------
   1 |   0.838170E+00 |   0.111967E+03 |   0.938477E+02 |   0.787334E-01 |   0.107118E+05 |   0.100000E-04
   2 |   0.418176E-01 |   0.812586E+04 |   0.339804E+03 |   0.107384E-01 |   0.199262E+03 |   0.100000E-04
   3 |   0.109614E+00 |   0.200176E+02 |   0.219420E+01 |   0.304739E-02 |   0.160472E+02 |   0.100000E-04
   4 |   0.152776E+00 |   0.109602E+01 |   0.167444E+00 |   0.125766E-02 |   0.273318E+01 |   0.100000E-04
   5 |   0.226027E+00 |   0.517995E-01 |   0.117081E-01 |   0.795687E-03 |   0.109403E+01 |   0.100000E-04
   6 |   0.223730E+00 |   0.173658E-01 |   0.388526E-02 |   0.611805E-03 |   0.646800E+00 |   0.100000E-04
   7 |   0.225389E+00 |   0.981496E-02 |   0.221218E-02 |   0.559995E-03 |   0.541891E+00 |   0.100000E-04
   8 |   0.361826E+00 |   0.159715E-02 |   0.577890E-03 |   0.579448E-03 |   0.580193E+00 |   0.100000E-04
   9 |   0.677376E+00 |   0.425854E-03 |   0.288463E-03 |   0.490721E-03 |   0.416114E+00 |   0.100000E-04
  10 |   0.788740E+00 |   0.484280E-03 |   0.381971E-03 |   0.227073E-03 |   0.890996E-01 |   0.100000E-04
  11 |   0.340161E+00 |   0.837295E-03 |   0.284815E-03 |   0.157181E-03 |   0.426920E-01 |   0.100000E-04
  12 |   0.286179E+00 |   0.361287E-03 |   0.103393E-03 |   0.120392E-03 |   0.250460E-01 |   0.100000E-04
  13 |   0.361897E+00 |   0.604068E-04 |   0.218610E-04 |   0.924575E-04 |   0.147716E-01 |   0.100000E-04
  14 |   0.465415E+00 |   0.223776E-04 |   0.104149E-04 |   0.650679E-04 |   0.731606E-02 |   0.100000E-04
  15 |   0.142353E+00 |   0.476412E-04 |   0.678187E-05 |   0.543018E-04 |   0.509533E-02 |   0.100000E-04
  16 |   0.143073E+00 |   0.105917E-03 |   0.151538E-04 |   0.440127E-04 |   0.334734E-02 |   0.100000E-04
  17 |   0.502533E+00 |   0.671769E-05 |   0.337586E-05 |   0.263990E-04 |   0.120425E-02 |   0.100000E-04
  18 |   0.367355E+00 |   0.395918E-05 |   0.145443E-05 |   0.164331E-04 |   0.466639E-03 |   0.100000E-04
  19 |   0.214103E+00 |   0.481103E-05 |   0.103006E-05 |   0.104740E-04 |   0.189569E-03 |   0.100000E-04
  20 |   0.424505E+00 |   0.424146E-06 |   0.180052E-06 |   0.693381E-05 |   0.830782E-04 |   0.100000E-04
  21 |   0.539500E+00 |   0.784647E-07 |   0.423317E-07 |   0.446566E-05 |   0.344600E-04 |   0.100000E-04
  22 |   0.608646E+00 |   0.411368E-07 |   0.250378E-07 |   0.215541E-05 |   0.802792E-05 |   0.100000E-04

 Charges are converged, EXIT

%%%% DENSITY %%%%%%%%%%%%%%%%%%%%%%%%%%%%%%%%%%%%%%%%%%%%%%%%%%%%%%%%%%%%%%%%%%%

 density label              = velectrostatic                                    

 integral of density        =   -232.1003197    

%%%% CHARGES %%%%%%%%%%%%%%%%%%%%%%%%%%%%%%%%%%%%%%%%%%%%%%%%%%%%%%%%%%%%%%%%%%%

 total number of charges    =             34

 total charge               =     -1.0000000

%%%% DENSITY %%%%%%%%%%%%%%%%%%%%%%%%%%%%%%%%%%%%%%%%%%%%%%%%%%%%%%%%%%%%%%%%%%%

 density label              = vsoftcavity                                       

 integral of density        =    33.74491891    

%%%% DENSITY %%%%%%%%%%%%%%%%%%%%%%%%%%%%%%%%%%%%%%%%%%%%%%%%%%%%%%%%%%%%%%%%%%%

 density label              = dvtot                                             

 integral of density        =   -198.3554008    

%%%% ELECTRONS %%%%%%%%%%%%%%%%%%%%%%%%%%%%%%%%%%%%%%%%%%%%%%%%%%%%%%%%%%%%%%%%%

 number of electrons        =             24

 total electronic charge    =     24.0000000

%%%% ELECTRONS %%%%%%%%%%%%%%%%%%%%%%%%%%%%%%%%%%%%%%%%%%%%%%%%%%%%%%%%%%%%%%%%%

 number of electrons        =             24

 total electronic charge    =     24.0000000

%%%% CHARGES %%%%%%%%%%%%%%%%%%%%%%%%%%%%%%%%%%%%%%%%%%%%%%%%%%%%%%%%%%%%%%%%%%%

 total number of charges    =             34

 total charge               =     -1.0000000

%%%% CHARGES %%%%%%%%%%%%%%%%%%%%%%%%%%%%%%%%%%%%%%%%%%%%%%%%%%%%%%%%%%%%%%%%%%%

 total number of charges    =             34

 total charge               =     -1.0000000

%%%% BOUNDARY %%%%%%%%%%%%%%%%%%%%%%%%%%%%%%%%%%%%%%%%%%%%%%%%%%%%%%%%%%%%%%%%%%

 boundary label             = solvent             
 boundary mode              = electronic          

 boundary is built as a type-2 function of a smooth density

 using the modified SCCS function:
 rhomax                     =      0.0050000
 rhomin                     =      0.0001000

 volume of the QM region    =    715.3431891

 surface of the QM region   =    412.1643233

%%%% DENSITY %%%%%%%%%%%%%%%%%%%%%%%%%%%%%%%%%%%%%%%%%%%%%%%%%%%%%%%%%%%%%%%%%%%

 density label              = dvtot                                             

 integral of density        =   -198.3554008    

%%%% DENSITY %%%%%%%%%%%%%%%%%%%%%%%%%%%%%%%%%%%%%%%%%%%%%%%%%%%%%%%%%%%%%%%%%%%

 density label              = vreference                                        

 integral of density        =  -0.7313326899E-12

%%%% DENSITY %%%%%%%%%%%%%%%%%%%%%%%%%%%%%%%%%%%%%%%%%%%%%%%%%%%%%%%%%%%%%%%%%%%

 density label              = velectrostatic                                    

 integral of density        =   -232.1003197    

%%%% CHARGES %%%%%%%%%%%%%%%%%%%%%%%%%%%%%%%%%%%%%%%%%%%%%%%%%%%%%%%%%%%%%%%%%%%

 total number of charges    =             34

 total charge               =     -1.0000000

%%%% DENSITY %%%%%%%%%%%%%%%%%%%%%%%%%%%%%%%%%%%%%%%%%%%%%%%%%%%%%%%%%%%%%%%%%%%

 density label              = vsoftcavity                                       

 integral of density        =    33.74491891    
