
     Program PWSCF v.6.3MaX starts on 21Apr2019 at 23:33:26 

     This program is part of the open-source Quantum ESPRESSO suite
     for quantum simulation of materials; please cite
         "P. Giannozzi et al., J. Phys.:Condens. Matter 21 395502 (2009);
         "P. Giannozzi et al., J. Phys.:Condens. Matter 29 465901 (2017);
          URL http://www.quantum-espresso.org", 
     in publications or presentations arising from this work. More details at
     http://www.quantum-espresso.org/quote

     Parallel version (MPI), running on     1 processors

     MPI processes distributed on     1 nodes
     Reading input from neutral.in

     Current dimensions of program PWSCF are:
     Max number of different atomic species (ntypx) = 10
     Max number of k-points (npk) =  40000
     Max angular momentum in pseudopotentials (lmaxx) =  3
               file H.pbe-rrkjus.UPF: wavefunction(s)  1S renormalized
               file O.pbe-rrkjus.UPF: wavefunction(s)  2S renormalized

     gamma-point specific algorithms are used

     Subspace diagonalization in iterative solution of the eigenvalue problem:
     a serial algorithm will be used

 
     G-vector sticks info
     --------------------
     sticks:   dense  smooth     PW     G-vecs:    dense   smooth      PW
     Sum        9549    3809    949               701475   177509   22119
 


     bravais-lattice index     =            1
     lattice parameter (alat)  =      20.0000  a.u.
     unit-cell volume          =    8000.0000 (a.u.)^3
     number of atoms/cell      =            3
     number of atomic types    =            2
     number of electrons       =         8.00
     number of Kohn-Sham states=            4
     kinetic-energy cutoff     =      30.0000  Ry
     charge density cutoff     =     300.0000  Ry
     convergence threshold     =      5.0E-03
     mixing beta               =       0.7000
     number of iterations used =            8  plain     mixing
     Exchange-correlation      = SLA PW PBE PBE ( 1  4  3  4 0 0)
 

     Environ Module
     ==============

     Plese cite
         O. Andreussi, I. Dabo and N. Marzari, J. Chem. Phys. 136, 064102 (2012)         
     in publications or presentations arising from this work.

     compensation onset threshold      =               0.1000E+03 
     static permittivity               =                   100.00 
     epsilon calculation mode          =               electronic 

     Electrostatic Setup
     -------------------
     electrostatic problem to solve    = generalized              
     numerical solver adopted          = cg                       
     type of auxiliary density adopted = none                     
     type of core tool for poisson     = fft                      
     type of core tool for s(r) deriv  = analytic                 



     celldm(1)=  20.000000  celldm(2)=   0.000000  celldm(3)=   0.000000
     celldm(4)=   0.000000  celldm(5)=   0.000000  celldm(6)=   0.000000

     crystal axes: (cart. coord. in units of alat)
               a(1) = (   1.000000   0.000000   0.000000 )  
               a(2) = (   0.000000   1.000000   0.000000 )  
               a(3) = (   0.000000   0.000000   1.000000 )  

     reciprocal axes: (cart. coord. in units 2 pi/alat)
               b(1) = (  1.000000  0.000000  0.000000 )  
               b(2) = (  0.000000  1.000000  0.000000 )  
               b(3) = (  0.000000  0.000000  1.000000 )  


     PseudoPot. # 1 for H  read from file:
     /home/fnattino/Programs/quantumespresso/q-e-qe-6.3-develop/Environ/tests/../..//pseudo/H.pbe-rrkjus.UPF
     MD5 check sum: 2d52a7f45632fd764c17cc6affed14c8
     Pseudo is Ultrasoft, Zval =  1.0
     Generated by new atomic code, or converted to UPF format
     Using radial grid of 1061 points,  2 beta functions with: 
                l(1) =   0
                l(2) =   0
     Q(r) pseudized with 0 coefficients 


     PseudoPot. # 2 for O  read from file:
     /home/fnattino/Programs/quantumespresso/q-e-qe-6.3-develop/Environ/tests/../..//pseudo/O.pbe-rrkjus.UPF
     MD5 check sum: fadcf19ee70a498d3030e2e79cf929a4
     Pseudo is Ultrasoft, Zval =  6.0
     Generated by new atomic code, or converted to UPF format
     Using radial grid of 1269 points,  4 beta functions with: 
                l(1) =   0
                l(2) =   0
                l(3) =   1
                l(4) =   1
     Q(r) pseudized with 0 coefficients 


     atomic species   valence    mass     pseudopotential
        H              1.00     1.00000     H ( 1.00)
        O              6.00    16.00000     O ( 1.00)

     No symmetry found



   Cartesian axes

     site n.     atom                  positions (alat units)
         1           O   tau(   1) = (   0.5895000   0.6025000   0.5750000  )
         2           H   tau(   2) = (   0.6725000   0.5610000   0.5750000  )
         3           H   tau(   3) = (   0.5280000   0.5330000   0.5750000  )

     number of k points=     1
                       cart. coord. in units 2pi/alat
        k(    1) = (   0.0000000   0.0000000   0.0000000), wk =   2.0000000

     Dense  grid:   350738 G-vectors     FFT dimensions: ( 120, 120, 120)

     Smooth grid:    88755 G-vectors     FFT dimensions: (  72,  72,  72)

     Estimated max dynamical RAM per process >     548.70 MB

     Initial potential from superposition of free atoms
     Check: negative starting charge=   -0.000775

     starting charge    7.80759, renormalised to    8.00000

     negative rho (up, down):  7.936E-04 0.000E+00
     Starting wfcs are    6 randomized atomic wfcs

     total cpu time spent up to now is        3.2 secs

     Self-consistent Calculation

     iteration #  1     ecut=    30.00 Ry     beta= 0.70
     Davidson diagonalization with overlap
     ethr =  1.00E-02,  avg # of iterations =  2.0

     negative rho (up, down):  2.595E-04 0.000E+00

     add environment contribution to local potential
     polarization accuracy = 9.5E-06, # of iterations =  12

     total cpu time spent up to now is        7.5 secs

     total energy              =     -34.06237118 Ry
     Harris-Foulkes estimate   =     -34.58698941 Ry
     estimated scf accuracy    <       0.68459185 Ry
     electrostatic embedding   =       0.00000000 Ry
     correction to one-el term =       0.00000000 Ry

     iteration #  2     ecut=    30.00 Ry     beta= 0.70
     Davidson diagonalization with overlap
     ethr =  8.56E-03,  avg # of iterations =  2.0

     negative rho (up, down):  2.656E-03 0.000E+00

     add environment contribution to local potential
     polarization accuracy = 3.6E-06, # of iterations =  14

     total cpu time spent up to now is       12.5 secs

     total energy              =     -34.20823232 Ry
     Harris-Foulkes estimate   =     -33.98438523 Ry
     estimated scf accuracy    <       0.35516472 Ry
     electrostatic embedding   =      -0.03784700 Ry
     correction to one-el term =      -0.36905678 Ry

     iteration #  3     ecut=    30.00 Ry     beta= 0.70
     Davidson diagonalization with overlap
     ethr =  4.44E-03,  avg # of iterations =  2.0

     negative rho (up, down):  2.206E-04 0.000E+00

     add environment contribution to local potential
     polarization accuracy = 5.1E-06, # of iterations =  14

     total cpu time spent up to now is       17.2 secs

     total energy              =     -34.29047137 Ry
     Harris-Foulkes estimate   =     -34.02686036 Ry
     estimated scf accuracy    <       0.01536188 Ry
     electrostatic embedding   =      -0.02888699 Ry
     correction to one-el term =      -0.24336552 Ry

     iteration #  4     ecut=    30.00 Ry     beta= 0.70
     Davidson diagonalization with overlap
     ethr =  1.92E-04,  avg # of iterations =  2.0

     negative rho (up, down):  2.142E-04 0.000E+00

     the potential shift due to the Gaussian-smeared nuclei is    -0.0214 ev

     total cpu time spent up to now is       18.6 secs

     End of self-consistent calculation

          k = 0.0000 0.0000 0.0000 ( 11060 PWs)   bands (ev):

   -24.6150 -12.3884  -8.8423  -6.8726

     highest occupied level (ev):    -6.8726

!    total energy              =     -34.29562254 Ry
     Harris-Foulkes estimate   =     -34.21504634 Ry
     estimated scf accuracy    <       0.00017531 Ry

     The total energy is the sum of the following terms:

     one-electron contribution =     -63.83526185 Ry
     hartree contribution      =      33.45953085 Ry
     xc contribution           =      -8.39663369 Ry
     ewald contribution        =       4.55735774 Ry
     electrostatic embedding   =      -0.03348559 Ry
     correction to one-el term =      -0.04712999 Ry

     WARNING: you are using the parabolic pbc correction;
              the potential shift above must be added to 
              band and Fermi energies.

     convergence has been achieved in   4 iterations

     Forces acting on atoms (cartesian axes, Ry/au):

     atom    1 type  2   force =     0.00237607   -0.01243355    0.00003720
     atom    2 type  1   force =    -0.00872042    0.00473165   -0.00001889
     atom    3 type  1   force =     0.00634435    0.00770190   -0.00001832

     Total force =     0.018927     Total SCF correction =     0.023066
     SCF correction compared to forces is large: reduce conv_thr to get better values

     Writing output data file pwscf.save/
 
     init_run     :      2.49s CPU      2.85s WALL (       1 calls)
     electrons    :     13.70s CPU     15.39s WALL (       1 calls)
     forces       :      0.43s CPU      0.53s WALL (       1 calls)

     Called by init_run:
     wfcinit      :      0.03s CPU      0.04s WALL (       1 calls)
     potinit      :      1.26s CPU      1.39s WALL (       1 calls)
     hinit0       :      0.96s CPU      1.02s WALL (       1 calls)

     Called by electrons:
     c_bands      :      0.28s CPU      0.29s WALL (       4 calls)
     sum_band     :      0.70s CPU      0.91s WALL (       4 calls)
     v_of_rho     :      2.12s CPU      2.32s WALL (       5 calls)
     newd         :      0.59s CPU      0.92s WALL (       5 calls)
     mix_rho      :      0.17s CPU      0.18s WALL (       4 calls)

     Called by c_bands:
     init_us_2    :      0.01s CPU      0.02s WALL (       9 calls)
     regterg      :      0.26s CPU      0.27s WALL (       4 calls)

     Called by sum_band:
     sum_band:bec :      0.00s CPU      0.00s WALL (       4 calls)
     addusdens    :      0.52s CPU      0.73s WALL (       4 calls)

     Called by *egterg:
     h_psi        :      0.27s CPU      0.28s WALL (      13 calls)
     s_psi        :      0.00s CPU      0.00s WALL (      13 calls)
     g_psi        :      0.00s CPU      0.00s WALL (       8 calls)
     rdiaghg      :      0.00s CPU      0.00s WALL (      12 calls)

     Called by h_psi:
     h_psi:pot    :      0.27s CPU      0.28s WALL (      13 calls)
     h_psi:calbec :      0.00s CPU      0.00s WALL (      13 calls)
     vloc_psi     :      0.27s CPU      0.27s WALL (      13 calls)
     add_vuspsi   :      0.00s CPU      0.00s WALL (      13 calls)

     General routines
     calbec       :      0.00s CPU      0.01s WALL (      21 calls)
     fft          :      3.47s CPU      3.59s WALL (     201 calls)
     ffts         :      0.02s CPU      0.03s WALL (       9 calls)
     fftw         :      0.24s CPU      0.25s WALL (      62 calls)
     interpolate  :      0.12s CPU      0.15s WALL (       5 calls)
 
     Parallel routines
 
     Environ routines
     calc_eelect  :      0.01s CPU      0.01s WALL (       8 calls)
     calc_velect  :      7.64s CPU      8.41s WALL (       6 calls)
     dielectric   :      0.27s CPU      0.29s WALL (       6 calls)
     calc_felect  :      0.13s CPU      0.14s WALL (       1 calls)
 
     PWSCF        :    16.96s CPU        19.15s WALL

 
   This run was terminated on:  23:33:46  21Apr2019            

=------------------------------------------------------------------------------=
   JOB DONE.
=------------------------------------------------------------------------------=

%%%% IONS %%%%%%%%%%%%%%%%%%%%%%%%%%%%%%%%%%%%%%%%%%%%%%%%%%%%%%%%%%%%%%%%%%%%%%
 number of ions             =          3
 ionic center of charge     =      0.5921875     0.5886250     0.5750000
 total ionic charge         =     -8.0000000
 ionic dipole               =      0.0000000     0.0000000     0.0000000
 ionic quadrupole (pc)      =     -4.2453875    -2.0049500     0.0000000
 ionic quadrupole (gauss)   =     -5.2453875    -3.0049500    -1.0000000
 ion   1 type =  2 coordinates =     11.7900000    12.0500000    11.5000000
 ion   2 type =  1 coordinates =     13.4500000    11.2200000    11.5000000
 ion   3 type =  1 coordinates =     10.5600000    10.6600000    11.5000000

%%%% SYSTEM %%%%%%%%%%%%%%%%%%%%%%%%%%%%%%%%%%%%%%%%%%%%%%%%%%%%%%%%%%%%%%%%%%%%
 system is built from all present ionic types
 system defined dimension   =  0 
 system defined axis        =  3 
 system center              =      0.5921875     0.5886250     0.5750000 
 system width               =      0.0849363 

%%%% ELECTRONS %%%%%%%%%%%%%%%%%%%%%%%%%%%%%%%%%%%%%%%%%%%%%%%%%%%%%%%%%%%%%%%%%
 number of electrons        =          8
 total electronic charge    =      8.0000000
 number of spin components  =  1

%%%% BOUNDARY %%%%%%%%%%%%%%%%%%%%%%%%%%%%%%%%%%%%%%%%%%%%%%%%%%%%%%%%%%%%%%%%%%
 boundary label             = solvent              
 boundary mode              = electronic           
 boundary is built as a function of a smooth density
 function type              =  2 
 using the modified SCCS function with parameters 
 rhomax                     =      0.0050000 
 rhomin                     =      0.0001000 
 volume of the QM region    =    925.9497833 
 surface of the QM region   =    444.2662167 

%%%% DIELECTRIC %%%%%%%%%%%%%%%%%%%%%%%%%%%%%%%%%%%%%%%%%%%%%%%%%%%%%%%%%%%%%%%%%
 dielectric build on homogeneous background
 environment bulk permitt.  =    100.0000000 
 dielectric flags
 need gradient              =  F 
 need factor depend. sqrt   =  T 
 total dielectric charge    =      0.0000000

%%%% DENSITY %%%%%%%%%%%%%%%%%%%%%%%%%%%%%%%%%%%%%%%%%%%%%%%%%%%%%%%%%%%%%%%%%%%
 density label              = vreference                                                                      
 integral of density        =      0.000000000    

%%%% DENSITY %%%%%%%%%%%%%%%%%%%%%%%%%%%%%%%%%%%%%%%%%%%%%%%%%%%%%%%%%%%%%%%%%%%
 density label              = velectrostatic                                                                  
 integral of density        =      0.000000000    

%%%% CHARGES %%%%%%%%%%%%%%%%%%%%%%%%%%%%%%%%%%%%%%%%%%%%%%%%%%%%%%%%%%%%%%%%%%%
 total number of charges    =         11
 total charge               =     -0.0000000

%%%% DENSITY %%%%%%%%%%%%%%%%%%%%%%%%%%%%%%%%%%%%%%%%%%%%%%%%%%%%%%%%%%%%%%%%%%%
 density label              = vsoftcavity                                                                     
 integral of density        =      0.000000000    

%%%% ELECTRONS %%%%%%%%%%%%%%%%%%%%%%%%%%%%%%%%%%%%%%%%%%%%%%%%%%%%%%%%%%%%%%%%%
 number of electrons        =          8
 total electronic charge    =      8.0000000
 number of spin components  =  1

%%%% BOUNDARY %%%%%%%%%%%%%%%%%%%%%%%%%%%%%%%%%%%%%%%%%%%%%%%%%%%%%%%%%%%%%%%%%%
 boundary label             = solvent              
 boundary mode              = electronic           
 boundary is built as a function of a smooth density
 function type              =  2 
 using the modified SCCS function with parameters 
 rhomax                     =      0.0050000 
 rhomin                     =      0.0001000 
 volume of the QM region    =    306.9268093 
 surface of the QM region   =    219.1546442 

%%%% DIELECTRIC %%%%%%%%%%%%%%%%%%%%%%%%%%%%%%%%%%%%%%%%%%%%%%%%%%%%%%%%%%%%%%%%%
 dielectric build on homogeneous background
 environment bulk permitt.  =    100.0000000 
 dielectric flags
 need gradient              =  F 
 need factor depend. sqrt   =  T 
 total dielectric charge    =      0.0000000

%%%% DENSITY %%%%%%%%%%%%%%%%%%%%%%%%%%%%%%%%%%%%%%%%%%%%%%%%%%%%%%%%%%%%%%%%%%%
 density label              = vreference                                                                      
 integral of density        =     0.1091472591E-12

%%%% COMPUTE ELECTROSTATIC POTENTIAL %%%%%%%%%%%%%%%%%%%%%%%%%%%%%%%%%%%%%%%%%%%
 Iteration #          1
  pAp =    27.3305088859203       rzold =    26.1869507094432       alpha = 
  0.958158182079579     
 delta_qm =   0.131445E-01 delta_en =   0.298560E+03 tol =   0.100000E-04
 Iteration #          2
  pAp =    203.005392947645       rzold =    13.2229617215104       alpha = 
  6.513601205126901E-002
 delta_qm =   0.495901E-02 delta_en =   0.424946E+02 tol =   0.100000E-04
 Iteration #          3
  pAp =    4.92246410798779       rzold =   0.757990698367480       alpha = 
  0.153986028488755     
 delta_qm =   0.919245E-03 delta_en =   0.146018E+01 tol =   0.100000E-04
 Iteration #          4
  pAp =   5.416690908577652E-002  rzold =   1.404686894479591E-002  alpha = 
  0.259325650694815     
 delta_qm =   0.439442E-03 delta_en =   0.333693E+00 tol =   0.100000E-04
 Iteration #          5
  pAp =   1.353185793448567E-003  rzold =   8.059425446832712E-004  alpha = 
  0.595588978679227     
 delta_qm =   0.111637E-03 delta_en =   0.215357E-01 tol =   0.100000E-04
 Iteration #          6
  pAp =   2.709115473181472E-004  rzold =   1.025595854180152E-004  alpha = 
  0.378572218250902     
 delta_qm =   0.483800E-04 delta_en =   0.404460E-02 tol =   0.100000E-04
 Iteration #          7
  pAp =   4.888079351220750E-006  rzold =   4.090381696936183E-006  alpha = 
  0.836807548125144     
 delta_qm =   0.313395E-04 delta_en =   0.169718E-02 tol =   0.100000E-04
 Iteration #          8
  pAp =   7.416628208036711E-006  rzold =   3.366083166299540E-006  alpha = 
  0.453856263504220     
 delta_qm =   0.240126E-04 delta_en =   0.996372E-03 tol =   0.100000E-04
 Iteration #          9
  pAp =   6.964156980690921E-006  rzold =   2.897751333847553E-006  alpha = 
  0.416095062457949     
 delta_qm =   0.182038E-04 delta_en =   0.572624E-03 tol =   0.100000E-04
 Iteration #         10
  pAp =   2.663455183409306E-006  rzold =   1.068701598157290E-006  alpha = 
  0.401246322751832     
 delta_qm =   0.114020E-04 delta_en =   0.224649E-03 tol =   0.100000E-04
 Iteration #         11
  pAp =   3.846970255166051E-007  rzold =   2.653566947189196E-007  alpha = 
  0.689780988981070     
 delta_qm =   0.317705E-05 delta_en =   0.174418E-04 tol =   0.100000E-04
 Iteration #         12
  pAp =   1.156334190860433E-007  rzold =   3.652272668277499E-008  alpha = 
  0.315849232613266     
 delta_qm =   0.234269E-05 delta_en =   0.948362E-05 tol =   0.100000E-04
 Charges are converged, EXIT

%%%% DENSITY %%%%%%%%%%%%%%%%%%%%%%%%%%%%%%%%%%%%%%%%%%%%%%%%%%%%%%%%%%%%%%%%%%%
 density label              = velectrostatic                                                                  
 integral of density        =     -44.27439925    

%%%% CHARGES %%%%%%%%%%%%%%%%%%%%%%%%%%%%%%%%%%%%%%%%%%%%%%%%%%%%%%%%%%%%%%%%%%%
 total number of charges    =         11
 total charge               =      0.0000000

%%%% DENSITY %%%%%%%%%%%%%%%%%%%%%%%%%%%%%%%%%%%%%%%%%%%%%%%%%%%%%%%%%%%%%%%%%%%
 density label              = vsoftcavity                                                                     
 integral of density        =      15.38788491    

%%%% ELECTRONS %%%%%%%%%%%%%%%%%%%%%%%%%%%%%%%%%%%%%%%%%%%%%%%%%%%%%%%%%%%%%%%%%
 number of electrons        =          8
 total electronic charge    =      8.0000000
 number of spin components  =  1

%%%% BOUNDARY %%%%%%%%%%%%%%%%%%%%%%%%%%%%%%%%%%%%%%%%%%%%%%%%%%%%%%%%%%%%%%%%%%
 boundary label             = solvent              
 boundary mode              = electronic           
 boundary is built as a function of a smooth density
 function type              =  2 
 using the modified SCCS function with parameters 
 rhomax                     =      0.0050000 
 rhomin                     =      0.0001000 
 volume of the QM region    =    332.8291914 
 surface of the QM region   =    231.8700158 

%%%% DIELECTRIC %%%%%%%%%%%%%%%%%%%%%%%%%%%%%%%%%%%%%%%%%%%%%%%%%%%%%%%%%%%%%%%%%
 dielectric build on homogeneous background
 environment bulk permitt.  =    100.0000000 
 dielectric flags
 need gradient              =  F 
 need factor depend. sqrt   =  T 
 total dielectric charge    =     -0.0000623

%%%% DENSITY %%%%%%%%%%%%%%%%%%%%%%%%%%%%%%%%%%%%%%%%%%%%%%%%%%%%%%%%%%%%%%%%%%%
 density label              = vreference                                                                      
 integral of density        =    -0.6618574002E-13

%%%% COMPUTE ELECTROSTATIC POTENTIAL %%%%%%%%%%%%%%%%%%%%%%%%%%%%%%%%%%%%%%%%%%%
 Warning: bad guess with residual norm =   0.509060E+03, reset to no guess
 Iteration #          1
  pAp =    29.3534098841197       rzold =    28.5448239516088       alpha = 
  0.972453424126771     
 delta_qm =   0.167280E-01 delta_en =   0.483542E+03 tol =   0.100000E-04
 Iteration #          2
  pAp =    153.585476751491       rzold =    9.67436847296453       alpha = 
  6.299012561336201E-002
 delta_qm =   0.599006E-02 delta_en =   0.620021E+02 tol =   0.100000E-04
 Iteration #          3
  pAp =    4.03513690465531       rzold =   0.607194374374740       alpha = 
  0.150476771599552     
 delta_qm =   0.115970E-02 delta_en =   0.232399E+01 tol =   0.100000E-04
 Iteration #          4
  pAp =   5.284759184246613E-002  rzold =   1.298833163010339E-002  alpha = 
  0.245769602308851     
 delta_qm =   0.519333E-03 delta_en =   0.466053E+00 tol =   0.100000E-04
 Iteration #          5
  pAp =   1.085083820319457E-003  rzold =   6.581061058719307E-004  alpha = 
  0.606502551736675     
 delta_qm =   0.134754E-03 delta_en =   0.313781E-01 tol =   0.100000E-04
 Iteration #          6
  pAp =   2.350740676043703E-004  rzold =   8.119780368283273E-005  alpha = 
  0.345413700925483     
 delta_qm =   0.830624E-04 delta_en =   0.119221E-01 tol =   0.100000E-04
 Iteration #          7
  pAp =   8.466129675289776E-006  rzold =   4.558798996324856E-006  alpha = 
  0.538474978670678     
 delta_qm =   0.597460E-04 delta_en =   0.616824E-02 tol =   0.100000E-04
 Iteration #          8
  pAp =   3.802959503552927E-006  rzold =   2.617854083854720E-006  alpha = 
  0.688372853144763     
 delta_qm =   0.320838E-04 delta_en =   0.177876E-02 tol =   0.100000E-04
 Iteration #          9
  pAp =   3.324506938688809E-006  rzold =   1.405905676647797E-006  alpha = 
  0.422891485136226     
 delta_qm =   0.242581E-04 delta_en =   0.101685E-02 tol =   0.100000E-04
 Iteration #         10
  pAp =   3.510000485275622E-006  rzold =   1.153328257671391E-006  alpha = 
  0.328583503765763     
 delta_qm =   0.177232E-04 delta_en =   0.542788E-03 tol =   0.100000E-04
 Iteration #         11
  pAp =   2.609978018599580E-007  rzold =   2.132064826398998E-007  alpha = 
  0.816889955089732     
 delta_qm =   0.681670E-05 delta_en =   0.802956E-04 tol =   0.100000E-04
 Iteration #         12
  pAp =   5.721605819732036E-008  rzold =   3.898400124581982E-008  alpha = 
  0.681347203461241     
 delta_qm =   0.440141E-05 delta_en =   0.334755E-04 tol =   0.100000E-04
 Iteration #         13
  pAp =   5.190016225041092E-008  rzold =   2.984466951313851E-008  alpha = 
  0.575040004097525     
 delta_qm =   0.261036E-05 delta_en =   0.117745E-04 tol =   0.100000E-04
 Iteration #         14
  pAp =   7.891022666299173E-008  rzold =   2.447546268248518E-008  alpha = 
  0.310168449864103     
 delta_qm =   0.144170E-05 delta_en =   0.359167E-05 tol =   0.100000E-04
 Charges are converged, EXIT

%%%% DENSITY %%%%%%%%%%%%%%%%%%%%%%%%%%%%%%%%%%%%%%%%%%%%%%%%%%%%%%%%%%%%%%%%%%%
 density label              = velectrostatic                                                                  
 integral of density        =     -48.82873888    

%%%% CHARGES %%%%%%%%%%%%%%%%%%%%%%%%%%%%%%%%%%%%%%%%%%%%%%%%%%%%%%%%%%%%%%%%%%%
 total number of charges    =         11
 total charge               =      0.0000000

%%%% DENSITY %%%%%%%%%%%%%%%%%%%%%%%%%%%%%%%%%%%%%%%%%%%%%%%%%%%%%%%%%%%%%%%%%%%
 density label              = vsoftcavity                                                                     
 integral of density        =      11.38524776    

%%%% ELECTRONS %%%%%%%%%%%%%%%%%%%%%%%%%%%%%%%%%%%%%%%%%%%%%%%%%%%%%%%%%%%%%%%%%
 number of electrons        =          8
 total electronic charge    =      8.0000000
 number of spin components  =  1

%%%% BOUNDARY %%%%%%%%%%%%%%%%%%%%%%%%%%%%%%%%%%%%%%%%%%%%%%%%%%%%%%%%%%%%%%%%%%
 boundary label             = solvent              
 boundary mode              = electronic           
 boundary is built as a function of a smooth density
 function type              =  2 
 using the modified SCCS function with parameters 
 rhomax                     =      0.0050000 
 rhomin                     =      0.0001000 
 volume of the QM region    =    295.4209358 
 surface of the QM region   =    214.3023657 

%%%% DIELECTRIC %%%%%%%%%%%%%%%%%%%%%%%%%%%%%%%%%%%%%%%%%%%%%%%%%%%%%%%%%%%%%%%%%
 dielectric build on homogeneous background
 environment bulk permitt.  =    100.0000000 
 dielectric flags
 need gradient              =  F 
 need factor depend. sqrt   =  T 
 total dielectric charge    =      0.0001629

%%%% DENSITY %%%%%%%%%%%%%%%%%%%%%%%%%%%%%%%%%%%%%%%%%%%%%%%%%%%%%%%%%%%%%%%%%%%
 density label              = vreference                                                                      
 integral of density        =    -0.1180290433E-12

%%%% COMPUTE ELECTROSTATIC POTENTIAL %%%%%%%%%%%%%%%%%%%%%%%%%%%%%%%%%%%%%%%%%%%
 Warning: bad guess with residual norm =   0.310938E+03, reset to no guess
 Iteration #          1
  pAp =    28.9900866697926       rzold =    28.4099884374578       alpha = 
  0.979989772402466     
 delta_qm =   0.131706E-01 delta_en =   0.299745E+03 tol =   0.100000E-04
 Iteration #          2
  pAp =    80.8268930507471       rzold =    5.50277664608933       alpha = 
  6.808101163352176E-002
 delta_qm =   0.602078E-02 delta_en =   0.626397E+02 tol =   0.100000E-04
 Iteration #          3
  pAp =    8.98751644860365       rzold =    1.01476183234189       alpha = 
  0.112907924913956     
 delta_qm =   0.117241E-02 delta_en =   0.237521E+01 tol =   0.100000E-04
 Iteration #          4
  pAp =   9.187624932181793E-002  rzold =   1.994120745399472E-002  alpha = 
  0.217044204581600     
 delta_qm =   0.509218E-03 delta_en =   0.448076E+00 tol =   0.100000E-04
 Iteration #          5
  pAp =   1.377827799130218E-003  rzold =   7.880897637936320E-004  alpha = 
  0.571979868813163     
 delta_qm =   0.160181E-03 delta_en =   0.443369E-01 tol =   0.100000E-04
 Iteration #          6
  pAp =   5.496714324847116E-004  rzold =   1.785917885512640E-004  alpha = 
  0.324906440460195     
 delta_qm =   0.945314E-04 delta_en =   0.154417E-01 tol =   0.100000E-04
 Iteration #          7
  pAp =   2.377395361375561E-005  rzold =   9.838830825874085E-006  alpha = 
  0.413849163909420     
 delta_qm =   0.731579E-04 delta_en =   0.924838E-02 tol =   0.100000E-04
 Iteration #          8
  pAp =   5.835656867854106E-006  rzold =   4.238615648918784E-006  alpha = 
  0.726330513410980     
 delta_qm =   0.340725E-04 delta_en =   0.200610E-02 tol =   0.100000E-04
 Iteration #          9
  pAp =   1.245980899148618E-005  rzold =   3.541561151342308E-006  alpha = 
  0.284238799628651     
 delta_qm =   0.222168E-04 delta_en =   0.852913E-03 tol =   0.100000E-04
 Iteration #         10
  pAp =   5.334116550113546E-006  rzold =   1.961589165530179E-006  alpha = 
  0.367743964178740     
 delta_qm =   0.145894E-04 delta_en =   0.367807E-03 tol =   0.100000E-04
 Iteration #         11
  pAp =   2.984908312597509E-007  rzold =   2.347029990565615E-007  alpha = 
  0.786298855700260     
 delta_qm =   0.585287E-05 delta_en =   0.591946E-04 tol =   0.100000E-04
 Iteration #         12
  pAp =   1.216826833780256E-007  rzold =   5.368655299306035E-008  alpha = 
  0.441201258081029     
 delta_qm =   0.408863E-05 delta_en =   0.288867E-04 tol =   0.100000E-04
 Iteration #         13
  pAp =   2.353153058061602E-008  rzold =   1.647942627038436E-008  alpha = 
  0.700312553572661     
 delta_qm =   0.286758E-05 delta_en =   0.142094E-04 tol =   0.100000E-04
 Iteration #         14
  pAp =   3.706962722450986E-008  rzold =   2.011995827490722E-008  alpha = 
  0.542761278743160     
 delta_qm =   0.171086E-05 delta_en =   0.505791E-05 tol =   0.100000E-04
 Charges are converged, EXIT

%%%% DENSITY %%%%%%%%%%%%%%%%%%%%%%%%%%%%%%%%%%%%%%%%%%%%%%%%%%%%%%%%%%%%%%%%%%%
 density label              = velectrostatic                                                                  
 integral of density        =     -43.01584398    

%%%% CHARGES %%%%%%%%%%%%%%%%%%%%%%%%%%%%%%%%%%%%%%%%%%%%%%%%%%%%%%%%%%%%%%%%%%%
 total number of charges    =         11
 total charge               =      0.0000000

%%%% DENSITY %%%%%%%%%%%%%%%%%%%%%%%%%%%%%%%%%%%%%%%%%%%%%%%%%%%%%%%%%%%%%%%%%%%
 density label              = vsoftcavity                                                                     
 integral of density        =      11.45839081    

%%%% ELECTRONS %%%%%%%%%%%%%%%%%%%%%%%%%%%%%%%%%%%%%%%%%%%%%%%%%%%%%%%%%%%%%%%%%
 number of electrons        =          8
 total electronic charge    =      8.0000000
 number of spin components  =  1

%%%% BOUNDARY %%%%%%%%%%%%%%%%%%%%%%%%%%%%%%%%%%%%%%%%%%%%%%%%%%%%%%%%%%%%%%%%%%
 boundary label             = solvent              
 boundary mode              = electronic           
 boundary is built as a function of a smooth density
 function type              =  2 
 using the modified SCCS function with parameters 
 rhomax                     =      0.0050000 
 rhomin                     =      0.0001000 
 volume of the QM region    =    295.4209358 
 surface of the QM region   =    214.3023657 

%%%% DIELECTRIC %%%%%%%%%%%%%%%%%%%%%%%%%%%%%%%%%%%%%%%%%%%%%%%%%%%%%%%%%%%%%%%%%
 dielectric build on homogeneous background
 environment bulk permitt.  =    100.0000000 
 dielectric flags
 need gradient              =  F 
 need factor depend. sqrt   =  T 
 total dielectric charge    =      0.0000819

%%%% DENSITY %%%%%%%%%%%%%%%%%%%%%%%%%%%%%%%%%%%%%%%%%%%%%%%%%%%%%%%%%%%%%%%%%%%
 density label              = vreference                                                                      
 integral of density        =    -0.1180290433E-12

%%%% DENSITY %%%%%%%%%%%%%%%%%%%%%%%%%%%%%%%%%%%%%%%%%%%%%%%%%%%%%%%%%%%%%%%%%%%
 density label              = velectrostatic                                                                  
 integral of density        =     -43.01584398    

%%%% CHARGES %%%%%%%%%%%%%%%%%%%%%%%%%%%%%%%%%%%%%%%%%%%%%%%%%%%%%%%%%%%%%%%%%%%
 total number of charges    =         11
 total charge               =      0.0000000

%%%% DENSITY %%%%%%%%%%%%%%%%%%%%%%%%%%%%%%%%%%%%%%%%%%%%%%%%%%%%%%%%%%%%%%%%%%%
 density label              = vsoftcavity                                                                     
 integral of density        =      11.45839081    
