
     Program PWSCF v.6.1 (svn rev. 13369) starts on 19Oct2017 at 16:20:30 

     This program is part of the open-source Quantum ESPRESSO suite
     for quantum simulation of materials; please cite
         "P. Giannozzi et al., J. Phys.:Condens. Matter 21 395502 (2009);
          URL http://www.quantum-espresso.org", 
     in publications or presentations arising from this work. More details at
     http://www.quantum-espresso.org/quote

     Parallel version (MPI), running on     1 processors
     Reading input from charged.in

     Current dimensions of program PWSCF are:
     Max number of different atomic species (ntypx) = 10
     Max number of k-points (npk) =  40000
     Max angular momentum in pseudopotentials (lmaxx) =  3
               file C.pbe-rrkjus.UPF: wavefunction(s)  2S 2P renormalized
               file H.pbe-rrkjus.UPF: wavefunction(s)  1S renormalized
               file N.pbe-rrkjus.UPF: wavefunction(s)  2S renormalized
               file O.pbe-rrkjus.UPF: wavefunction(s)  2S renormalized

     gamma-point specific algorithms are used

     Subspace diagonalization in iterative solution of the eigenvalue problem:
     a serial algorithm will be used

 
     G-vector sticks info
     --------------------
     sticks:   dense  smooth     PW     G-vecs:    dense   smooth      PW
     Sum        9549    3809    949               701475   177509   22119
 


     bravais-lattice index     =            1
     lattice parameter (alat)  =      20.0000  a.u.
     unit-cell volume          =    8000.0000 (a.u.)^3
     number of atoms/cell      =           10
     number of atomic types    =            4
     number of electrons       =        24.00
     number of Kohn-Sham states=           12
     kinetic-energy cutoff     =      30.0000  Ry
     charge density cutoff     =     300.0000  Ry
     convergence threshold     =      5.0E-03
     mixing beta               =       0.7000
     number of iterations used =            8  plain     mixing
     Exchange-correlation      =  SLA  PW   PBE  PBE ( 1  4  3  4 0 0)
 

     Environ Module
     ==============

     Plese cite
         O. Andreussi, I. Dabo and N. Marzari, J. Chem. Phys. 136, 064102 (2012)         
     in publications or presentations arising from this work.

     compensation onset threshold      =               0.1000E+03 
     static permittivity               =                   100.00 
     epsilon calculation mode          =               electronic 

     Electrostatic Setup
     -------------------
     electrostatic problem to solve    = generalized              
     numerical solver adopted          = cg                       
     type of auxiliary density adopted = none                     
     type of core tool for poisson     = fft                      
     type of core tool for s(r) deriv  = analytic                 



     celldm(1)=  20.000000  celldm(2)=   0.000000  celldm(3)=   0.000000
     celldm(4)=   0.000000  celldm(5)=   0.000000  celldm(6)=   0.000000

     crystal axes: (cart. coord. in units of alat)
               a(1) = (   1.000000   0.000000   0.000000 )  
               a(2) = (   0.000000   1.000000   0.000000 )  
               a(3) = (   0.000000   0.000000   1.000000 )  

     reciprocal axes: (cart. coord. in units 2 pi/alat)
               b(1) = (  1.000000  0.000000  0.000000 )  
               b(2) = (  0.000000  1.000000  0.000000 )  
               b(3) = (  0.000000  0.000000  1.000000 )  


     PseudoPot. # 1 for C  read from file:
     /home/andreo/PWSCF/espresso-6.1-Environ-1.0/Environ/tests/../..//pseudo/C.pbe-rrkjus.UPF
     MD5 check sum: 00fb224312de0c5b6853bd333518df6f
     Pseudo is Ultrasoft, Zval =  4.0
     Generated by new atomic code, or converted to UPF format
     Using radial grid of  627 points,  4 beta functions with: 
                l(1) =   0
                l(2) =   0
                l(3) =   1
                l(4) =   1
     Q(r) pseudized with 0 coefficients 


     PseudoPot. # 2 for H  read from file:
     /home/andreo/PWSCF/espresso-6.1-Environ-1.0/Environ/tests/../..//pseudo/H.pbe-rrkjus.UPF
     MD5 check sum: 7cc9d459525c9a0585f487a71c3c9563
     Pseudo is Ultrasoft, Zval =  1.0
     Generated by new atomic code, or converted to UPF format
     Using radial grid of 1061 points,  2 beta functions with: 
                l(1) =   0
                l(2) =   0
     Q(r) pseudized with 0 coefficients 


     PseudoPot. # 3 for N  read from file:
     /home/andreo/PWSCF/espresso-6.1-Environ-1.0/Environ/tests/../..//pseudo/N.pbe-rrkjus.UPF
     MD5 check sum: 0c3fbe5807a93f9ba59d5a7019aa238b
     Pseudo is Ultrasoft, Zval =  5.0
     Generated by new atomic code, or converted to UPF format
     Using radial grid of 1257 points,  4 beta functions with: 
                l(1) =   0
                l(2) =   0
                l(3) =   1
                l(4) =   1
     Q(r) pseudized with 0 coefficients 


     PseudoPot. # 4 for O  read from file:
     /home/andreo/PWSCF/espresso-6.1-Environ-1.0/Environ/tests/../..//pseudo/O.pbe-rrkjus.UPF
     MD5 check sum: 390ba29e75625707450f3bd3f0eb6be9
     Pseudo is Ultrasoft, Zval =  6.0
     Generated by new atomic code, or converted to UPF format
     Using radial grid of 1269 points,  4 beta functions with: 
                l(1) =   0
                l(2) =   0
                l(3) =   1
                l(4) =   1
     Q(r) pseudized with 0 coefficients 


     atomic species   valence    mass     pseudopotential
        C              4.00    12.00000     C ( 1.00)
        H              1.00     1.00000     H ( 1.00)
        N              5.00    14.00000     N ( 1.00)
        O              6.00    16.00000     O ( 1.00)

     No symmetry found



   Cartesian axes

     site n.     atom                  positions (alat units)
         1           C   tau(   1) = (   0.0000000   0.0000000   0.0000000  )
         2           C   tau(   2) = (   0.0000000   0.0000000   0.1455089  )
         3           N   tau(   3) = (   0.1170969   0.0000000  -0.0545024  )
         4           H   tau(   4) = (   0.0476617  -0.0825466   0.1792090  )
         5           H   tau(   5) = (  -0.0953183  -0.0000030   0.1792090  )
         6           H   tau(   6) = (   0.0476566   0.0825496   0.1792090  )
         7           O   tau(   7) = (  -0.0984002  -0.0000019  -0.0641310  )
         8           H   tau(   8) = (   0.1263131  -0.0000015  -0.1475548  )
         9           H   tau(   9) = (   0.1944645   0.0000134  -0.0025716  )
        10           H   tau(  10) = (  -0.0770366  -0.0000045  -0.1522861  )

     number of k points=     1
                       cart. coord. in units 2pi/alat
        k(    1) = (   0.0000000   0.0000000   0.0000000), wk =   2.0000000

     Dense  grid:   350738 G-vectors     FFT dimensions: ( 120, 120, 120)

     Smooth grid:    88755 G-vectors     FFT dimensions: (  72,  72,  72)

     Estimated max dynamical RAM per process >     298.98MB

     Initial potential from superposition of free atoms
     Check: negative starting charge=   -0.000452

     starting charge   24.42266, renormalised to   24.00000

     negative rho (up, down):  4.438E-04 0.000E+00
     Starting wfc are   22 randomized atomic wfcs

     total cpu time spent up to now is        3.9 secs

     per-process dynamical memory:   624.5 Mb

     Self-consistent Calculation

     iteration #  1     ecut=    30.00 Ry     beta=0.70
     Davidson diagonalization with overlap
     ethr =  1.00E-02,  avg # of iterations =  2.0

     negative rho (up, down):  1.277E-04 0.000E+00

     add environment contribution to local potential
     polarization accuracy = 3.4E-05, # of iterations =  13

     total cpu time spent up to now is        9.8 secs

     total energy              =     -80.23412306 Ry
     Harris-Foulkes estimate   =     -83.01879009 Ry
     estimated scf accuracy    <       3.73442311 Ry
     electrostatic embedding   =       0.00490874 Ry
     correction to one-el term =       0.00000000 Ry

     iteration #  2     ecut=    30.00 Ry     beta=0.70
     Davidson diagonalization with overlap
     ethr =  1.00E-02,  avg # of iterations =  4.0

     negative rho (up, down):  6.916E-04 0.000E+00

     add environment contribution to local potential
     polarization accuracy = 4.1E-05, # of iterations =  17

     total cpu time spent up to now is       16.7 secs

     total energy              =     -80.96980092 Ry
     Harris-Foulkes estimate   =     -77.32335569 Ry
     estimated scf accuracy    <       1.54023244 Ry
     electrostatic embedding   =      -0.14394724 Ry
     correction to one-el term =      -4.32747295 Ry

     iteration #  3     ecut=    30.00 Ry     beta=0.70
     Davidson diagonalization with overlap
     ethr =  6.42E-03,  avg # of iterations =  3.0

     negative rho (up, down):  3.247E-04 0.000E+00

     add environment contribution to local potential
     polarization accuracy = 4.8E-05, # of iterations =  18

     total cpu time spent up to now is       23.8 secs

     total energy              =     -81.31081299 Ry
     Harris-Foulkes estimate   =     -77.76441991 Ry
     estimated scf accuracy    <       0.24313765 Ry
     electrostatic embedding   =      -0.11659184 Ry
     correction to one-el term =      -3.55938389 Ry

     iteration #  4     ecut=    30.00 Ry     beta=0.70
     Davidson diagonalization with overlap
     ethr =  1.01E-03,  avg # of iterations =  4.0

     negative rho (up, down):  8.631E-05 0.000E+00

     add environment contribution to local potential
     polarization accuracy = 6.9E-05, # of iterations =  20

     total cpu time spent up to now is       31.4 secs

     total energy              =     -81.36115516 Ry
     Harris-Foulkes estimate   =     -77.94981331 Ry
     estimated scf accuracy    <       0.02088165 Ry
     electrostatic embedding   =      -0.10399664 Ry
     correction to one-el term =      -3.31795343 Ry

     iteration #  5     ecut=    30.00 Ry     beta=0.70
     Davidson diagonalization with overlap
     ethr =  8.70E-05,  avg # of iterations =  4.0

     negative rho (up, down):  2.757E-04 0.000E+00

     total cpu time spent up to now is       34.4 secs

     End of self-consistent calculation

          k = 0.0000 0.0000 0.0000 ( 11060 PWs)   bands (ev):

   -29.3425 -23.6045 -19.0853 -16.4162 -15.1233 -13.8486 -12.1103 -11.3676
   -10.0087  -9.9943  -9.7582  -7.8448

     highest occupied level (ev):    -7.8448

!    total energy              =     -81.36606088 Ry
     Harris-Foulkes estimate   =     -78.16212122 Ry
     estimated scf accuracy    <       0.00247728 Ry

     The total energy is the sum of the following terms:

     one-electron contribution =    -242.66569481 Ry
     hartree contribution      =     123.14345555 Ry
     xc contribution           =     -22.94587501 Ry
     ewald contribution        =      64.30784006 Ry
     electrostatic embedding   =      -0.10403406 Ry
     correction to one-el term =      -3.10175261 Ry

     convergence has been achieved in   5 iterations

     Forces acting on atoms (cartesian axes, Ry/au):

     atom    1 type  1   force =     0.21842712    0.00001037    0.10003471
     atom    2 type  1   force =    -0.03318361   -0.00001077   -0.08143569
     atom    3 type  3   force =    -0.13993713   -0.00000338    0.04568343
     atom    4 type  2   force =     0.01758724   -0.02829997    0.00829579
     atom    5 type  2   force =    -0.03267050   -0.00000192    0.01163406
     atom    6 type  2   force =     0.01759217    0.02831001    0.00829829
     atom    7 type  4   force =    -0.08227223   -0.00003032   -0.00934745
     atom    8 type  2   force =     0.00504246    0.00000781   -0.04792554
     atom    9 type  2   force =     0.03808367    0.00001186    0.03886490
     atom   10 type  2   force =    -0.00866919    0.00000632   -0.07410249

     Total force =     0.329221     Total SCF correction =     0.120977
     SCF correction compared to forces is large: reduce conv_thr to get better values

     Writing output data file pwscf.save
 
     init_run     :      3.61s CPU      3.74s WALL (       1 calls)
     electrons    :     28.38s CPU     32.02s WALL (       1 calls)
     forces       :      1.37s CPU      1.56s WALL (       1 calls)

     Called by init_run:
     wfcinit      :      0.13s CPU      0.13s WALL (       1 calls)
     potinit      :      0.96s CPU      0.99s WALL (       1 calls)

     Called by electrons:
     c_bands      :      1.18s CPU      1.18s WALL (       5 calls)
     sum_band     :      3.34s CPU      3.93s WALL (       5 calls)
     v_of_rho     :      3.77s CPU      3.88s WALL (       6 calls)
     newd         :      1.82s CPU      2.76s WALL (       6 calls)
     mix_rho      :      0.37s CPU      0.37s WALL (       5 calls)

     Called by c_bands:
     init_us_2    :      0.04s CPU      0.05s WALL (      11 calls)
     regterg      :      1.11s CPU      1.11s WALL (       5 calls)

     Called by sum_band:
     sum_band:bec :      0.00s CPU      0.00s WALL (       5 calls)
     addusdens    :      2.56s CPU      3.13s WALL (       5 calls)

     Called by *egterg:
     h_psi        :      1.08s CPU      1.08s WALL (      23 calls)
     s_psi        :      0.03s CPU      0.03s WALL (      23 calls)
     g_psi        :      0.01s CPU      0.01s WALL (      17 calls)
     rdiaghg      :      0.00s CPU      0.01s WALL (      22 calls)

     Called by h_psi:
     h_psi:pot    :      1.07s CPU      1.07s WALL (      23 calls)
     h_psi:calbec :      0.02s CPU      0.04s WALL (      23 calls)
     vloc_psi     :      1.01s CPU      1.00s WALL (      23 calls)
     add_vuspsi   :      0.03s CPU      0.03s WALL (      23 calls)

     General routines
     calbec       :      0.04s CPU      0.06s WALL (      32 calls)
     fft          :      8.39s CPU      8.67s WALL (     295 calls)
     ffts         :      0.06s CPU      0.06s WALL (      11 calls)
     fftw         :      0.89s CPU      0.88s WALL (     244 calls)
     interpolate  :      0.44s CPU      0.45s WALL (      11 calls)
     davcio       :      0.00s CPU      0.00s WALL (       1 calls)
 
     Parallel routines
     fft_scatter  :      1.74s CPU      1.94s WALL (     550 calls)
 
     Environ routines
     calc_eelect  :      0.02s CPU      0.02s WALL (      10 calls)
     calc_velect  :     14.78s CPU     15.32s WALL (       8 calls)
     dielectric   :      0.30s CPU      0.30s WALL (       6 calls)
     calc_felect  :      0.42s CPU      0.43s WALL (       1 calls)
 
     PWSCF        :    33.63s CPU        39.86s WALL

 
   This run was terminated on:  16:21:10  19Oct2017            

=------------------------------------------------------------------------------=
   JOB DONE.
=------------------------------------------------------------------------------=

%%%% IONS %%%%%%%%%%%%%%%%%%%%%%%%%%%%%%%%%%%%%%%%%%%%%%%%%%%%%%%%%%%%%%%%%%%%%%
 number of ions             =         10
 ionic center of charge     =      0.0095530    -0.0000002     0.0063981
 total ionic charge         =    -25.0000000
 ionic dipole               =      0.0000000     0.0000000     0.0000000
 ionic quadrupole (pc)      =    -79.0828058    -5.4513517  -105.8059629
 ionic quadrupole (gauss)   =    -82.2078058    -8.5763517  -108.9309629
 ion   1 type =  1 coordinates =      0.0000000     0.0000000     0.0000000
 ion   2 type =  1 coordinates =      0.0000000     0.0000000     2.9101782
 ion   3 type =  3 coordinates =      2.3419379     0.0000000    -1.0900479
 ion   4 type =  2 coordinates =      0.9532347    -1.6509323     3.5841800
 ion   5 type =  2 coordinates =     -1.9063663    -0.0000596     3.5841809
 ion   6 type =  2 coordinates =      0.9531315     1.6509919     3.5841800
 ion   7 type =  4 coordinates =     -1.9680045    -0.0000375    -1.2826193
 ion   8 type =  2 coordinates =      2.5262613    -0.0000303    -2.9510950
 ion   9 type =  2 coordinates =      3.8892907     0.0002681    -0.0514326
 ion  10 type =  2 coordinates =     -1.5407317    -0.0000890    -3.0457220

%%%% SYSTEM %%%%%%%%%%%%%%%%%%%%%%%%%%%%%%%%%%%%%%%%%%%%%%%%%%%%%%%%%%%%%%%%%%%%
 system is built from all present ionic types
 system defined dimension   =  0 
 system defined axis        =  3 
 system center              =      0.0095530    -0.0000002     0.0063981 
 system width               =      0.5223840 

%%%% ELECTRONS %%%%%%%%%%%%%%%%%%%%%%%%%%%%%%%%%%%%%%%%%%%%%%%%%%%%%%%%%%%%%%%%%
 number of electrons        =         24
 total electronic charge    =     24.0000000
 number of spin components  =  1

%%%% BOUNDARY %%%%%%%%%%%%%%%%%%%%%%%%%%%%%%%%%%%%%%%%%%%%%%%%%%%%%%%%%%%%%%%%%%
 boundary mode              = electronic           
 boundary is built as a function of a smooth density
 function type              =  2 
 using the modified SCCS function with parameters 
 rhomax                     =      0.0050000 
 rhomin                     =      0.0001000 

%%%% DIELECTRIC %%%%%%%%%%%%%%%%%%%%%%%%%%%%%%%%%%%%%%%%%%%%%%%%%%%%%%%%%%%%%%%%%
 dielectric build on homogeneous background
 environment bulk permitt.  =    100.0000000 
 dielectric flags
 need gradient              =  F 
 need factor depend. sqrt   =  T 
 need gradient of logarithm =  T 

%%%% COMPUTE ELECTROSTATIC POTENTIAL %%%%%%%%%%%%%%%%%%%%%%%%%%%%%%%%%%%%%%%%%%%
 Iteration #          1
  pAp =    111.626264330998       rzold =    89.9132909445816       alpha = 
  0.805485084388094     
 delta_qm =   0.443631E-01 delta_en =   0.340086E+04 tol =   0.100000E-03
 Iteration #          2
  pAp =    3870.28270561781       rzold =    250.098140629122       alpha = 
  6.462012200454989E-002
 delta_qm =   0.406183E-02 delta_en =   0.285093E+02 tol =   0.100000E-03
 Iteration #          3
  pAp =    2.97178882973591       rzold =   0.569432698483698       alpha = 
  0.191612773016009     
 delta_qm =   0.137325E-02 delta_en =   0.325870E+01 tol =   0.100000E-03
 Iteration #          4
  pAp =   0.319436156920825       rzold =   6.401006768586594E-002  alpha = 
  0.200384541007771     
 delta_qm =   0.734935E-03 delta_en =   0.933344E+00 tol =   0.100000E-03
 Iteration #          5
  pAp =   2.008229335935324E-002  rzold =   6.490288014144583E-003  alpha = 
  0.323184603372092     
 delta_qm =   0.340289E-03 delta_en =   0.200097E+00 tol =   0.100000E-03
 Iteration #          6
  pAp =   3.312374989102913E-003  rzold =   1.388337890004409E-003  alpha = 
  0.419136690311869     
 delta_qm =   0.160394E-03 delta_en =   0.444548E-01 tol =   0.100000E-03
 Iteration #          7
  pAp =   1.528882411995896E-003  rzold =   3.158154851466599E-004  alpha = 
  0.206566236009200     
 delta_qm =   0.118320E-03 delta_en =   0.241913E-01 tol =   0.100000E-03
 Iteration #          8
  pAp =   2.582382451353270E-004  rzold =   8.724734556689098E-005  alpha = 
  0.337856019433411     
 delta_qm =   0.109213E-03 delta_en =   0.206107E-01 tol =   0.100000E-03
 Iteration #          9
  pAp =   3.528941766506430E-005  rzold =   2.581392621970291E-005  alpha = 
  0.731491986201237     
 delta_qm =   0.672416E-04 delta_en =   0.781305E-02 tol =   0.100000E-03
 Iteration #         10
  pAp =   2.749577856368956E-005  rzold =   2.117713196381220E-005  alpha = 
  0.770195756223406     
 delta_qm =   0.272655E-04 delta_en =   0.128461E-02 tol =   0.100000E-03
 Iteration #         11
  pAp =   1.111949337671478E-005  rzold =   5.755867097377038E-006  alpha = 
  0.517637530989527     
 delta_qm =   0.143039E-04 delta_en =   0.353552E-03 tol =   0.100000E-03
 Iteration #         12
  pAp =   2.720301235644104E-006  rzold =   1.011587985718514E-006  alpha = 
  0.371866164108474     
 delta_qm =   0.844984E-05 delta_en =   0.123379E-03 tol =   0.100000E-03
 Iteration #         13
  pAp =   1.125721816267447E-006  rzold =   3.672005544450471E-007  alpha = 
  0.326191203846944     
 delta_qm =   0.443057E-05 delta_en =   0.339206E-04 tol =   0.100000E-03
 Charges are converged, EXIT

%%%% ELECTRONS %%%%%%%%%%%%%%%%%%%%%%%%%%%%%%%%%%%%%%%%%%%%%%%%%%%%%%%%%%%%%%%%%
 number of electrons        =         24
 total electronic charge    =     24.0000000
 number of spin components  =  1

%%%% BOUNDARY %%%%%%%%%%%%%%%%%%%%%%%%%%%%%%%%%%%%%%%%%%%%%%%%%%%%%%%%%%%%%%%%%%
 boundary mode              = electronic           
 boundary is built as a function of a smooth density
 function type              =  2 
 using the modified SCCS function with parameters 
 rhomax                     =      0.0050000 
 rhomin                     =      0.0001000 

%%%% DIELECTRIC %%%%%%%%%%%%%%%%%%%%%%%%%%%%%%%%%%%%%%%%%%%%%%%%%%%%%%%%%%%%%%%%%
 dielectric build on homogeneous background
 environment bulk permitt.  =    100.0000000 
 dielectric flags
 need gradient              =  F 
 need factor depend. sqrt   =  T 
 need gradient of logarithm =  T 

%%%% COMPUTE ELECTROSTATIC POTENTIAL %%%%%%%%%%%%%%%%%%%%%%%%%%%%%%%%%%%%%%%%%%%
 Warning: bad guess with residual norm =   0.427158E+03, reset to no guess
 Iteration #          1
  pAp =    113.645186991381       rzold =    93.3572897486273       alpha = 
  0.821480365514357     
 delta_qm =   0.632713E-01 delta_en =   0.691764E+04 tol =   0.100000E-03
 Iteration #          2
  pAp =    5444.33604054267       rzold =    290.215173153431       alpha = 
  5.330588909139111E-002
 delta_qm =   0.745458E-02 delta_en =   0.960262E+02 tol =   0.100000E-03
 Iteration #          3
  pAp =    12.7485452302344       rzold =    1.64044951153562       alpha = 
  0.128677388824345     
 delta_qm =   0.217535E-02 delta_en =   0.817718E+01 tol =   0.100000E-03
 Iteration #          4
  pAp =   0.436805833124758       rzold =   8.675297456304881E-002  alpha = 
  0.198607637499820     
 delta_qm =   0.912697E-03 delta_en =   0.143945E+01 tol =   0.100000E-03
 Iteration #          5
  pAp =   2.021870516432762E-002  rzold =   6.399749399704668E-003  alpha = 
  0.316526174534456     
 delta_qm =   0.478057E-03 delta_en =   0.394915E+00 tol =   0.100000E-03
 Iteration #          6
  pAp =   8.687753017289400E-003  rzold =   2.371067871160974E-003  alpha = 
  0.272920727194056     
 delta_qm =   0.372919E-03 delta_en =   0.240310E+00 tol =   0.100000E-03
 Iteration #          7
  pAp =   5.448352968507199E-003  rzold =   1.135916403008220E-003  alpha = 
  0.208488034746297     
 delta_qm =   0.332663E-03 delta_en =   0.191228E+00 tol =   0.100000E-03
 Iteration #          8
  pAp =   4.197673936702811E-004  rzold =   1.899977915876957E-004  alpha = 
  0.452626369872204     
 delta_qm =   0.304566E-03 delta_en =   0.160290E+00 tol =   0.100000E-03
 Iteration #          9
  pAp =   1.385375688664013E-004  rzold =   1.153761124335366E-004  alpha = 
  0.832814617562688     
 delta_qm =   0.189298E-03 delta_en =   0.619205E-01 tol =   0.100000E-03
 Iteration #         10
  pAp =   1.824117540927602E-004  rzold =   1.221773077830437E-004  alpha = 
  0.669788569221883     
 delta_qm =   0.745691E-04 delta_en =   0.960862E-02 tol =   0.100000E-03
 Iteration #         11
  pAp =   6.533759821773003E-005  rzold =   2.772326715895393E-005  alpha = 
  0.424308023483957     
 delta_qm =   0.493021E-04 delta_en =   0.420024E-02 tol =   0.100000E-03
 Iteration #         12
  pAp =   2.145402710497740E-005  rzold =   7.504614318926935E-006  alpha = 
  0.349799796663156     
 delta_qm =   0.341702E-04 delta_en =   0.201762E-02 tol =   0.100000E-03
 Iteration #         13
  pAp =   5.656905177729226E-006  rzold =   2.244311419997906E-006  alpha = 
  0.396738384237653     
 delta_qm =   0.224999E-04 delta_en =   0.874793E-03 tol =   0.100000E-03
 Iteration #         14
  pAp =   3.161673062277866E-006  rzold =   1.161208590333205E-006  alpha = 
  0.367276618252426     
 delta_qm =   0.150470E-04 delta_en =   0.391239E-03 tol =   0.100000E-03
 Iteration #         15
  pAp =   2.439773835414989E-006  rzold =   5.871072490316791E-007  alpha = 
  0.240640030034512     
 delta_qm =   0.132495E-04 delta_en =   0.303351E-03 tol =   0.100000E-03
 Iteration #         16
  pAp =   1.285896274995415E-005  rzold =   1.176066737121095E-006  alpha = 
  9.145891157708562E-002
 delta_qm =   0.941256E-05 delta_en =   0.153094E-03 tol =   0.100000E-03
 Iteration #         17
  pAp =   6.900706800913951E-007  rzold =   2.813262524955509E-007  alpha = 
  0.407677446110725     
 delta_qm =   0.485263E-05 delta_en =   0.406909E-04 tol =   0.100000E-03
 Charges are converged, EXIT

%%%% ELECTRONS %%%%%%%%%%%%%%%%%%%%%%%%%%%%%%%%%%%%%%%%%%%%%%%%%%%%%%%%%%%%%%%%%
 number of electrons        =         24
 total electronic charge    =     24.0000000
 number of spin components  =  1

%%%% BOUNDARY %%%%%%%%%%%%%%%%%%%%%%%%%%%%%%%%%%%%%%%%%%%%%%%%%%%%%%%%%%%%%%%%%%
 boundary mode              = electronic           
 boundary is built as a function of a smooth density
 function type              =  2 
 using the modified SCCS function with parameters 
 rhomax                     =      0.0050000 
 rhomin                     =      0.0001000 

%%%% DIELECTRIC %%%%%%%%%%%%%%%%%%%%%%%%%%%%%%%%%%%%%%%%%%%%%%%%%%%%%%%%%%%%%%%%%
 dielectric build on homogeneous background
 environment bulk permitt.  =    100.0000000 
 dielectric flags
 need gradient              =  F 
 need factor depend. sqrt   =  T 
 need gradient of logarithm =  T 

%%%% COMPUTE ELECTROSTATIC POTENTIAL %%%%%%%%%%%%%%%%%%%%%%%%%%%%%%%%%%%%%%%%%%%
 Warning: bad guess with residual norm =   0.160096E+04, reset to no guess
 Iteration #          1
  pAp =    113.009587525161       rzold =    93.9069190080661       alpha = 
  0.830964178036298     
 delta_qm =   0.666883E-01 delta_en =   0.768500E+04 tol =   0.100000E-03
 Iteration #          2
  pAp =    6935.80097068664       rzold =    321.135083735951       alpha = 
  4.630108117190668E-002
 delta_qm =   0.779142E-02 delta_en =   0.104900E+03 tol =   0.100000E-03
 Iteration #          3
  pAp =    12.3907208901574       rzold =    1.49921695823080       alpha = 
  0.120995135918339     
 delta_qm =   0.240280E-02 delta_en =   0.997652E+01 tol =   0.100000E-03
 Iteration #          4
  pAp =   0.727108228810888       rzold =   0.122014945901298       alpha = 
  0.167808506445927     
 delta_qm =   0.101472E-02 delta_en =   0.177925E+01 tol =   0.100000E-03
 Iteration #          5
  pAp =   3.288887033120645E-002  rzold =   8.549075021349528E-003  alpha = 
  0.259938238536511     
 delta_qm =   0.597478E-03 delta_en =   0.616862E+00 tol =   0.100000E-03
 Iteration #          6
  pAp =   1.096687143274646E-002  rzold =   2.869004119629279E-003  alpha = 
  0.261606433267978     
 delta_qm =   0.454599E-03 delta_en =   0.357110E+00 tol =   0.100000E-03
 Iteration #          7
  pAp =   7.867494490895710E-003  rzold =   1.647936660491060E-003  alpha = 
  0.209461431768152     
 delta_qm =   0.405163E-03 delta_en =   0.283664E+00 tol =   0.100000E-03
 Iteration #          8
  pAp =   9.395977504896496E-004  rzold =   3.740003721208045E-004  alpha = 
  0.398043068883363     
 delta_qm =   0.403550E-03 delta_en =   0.281410E+00 tol =   0.100000E-03
 Iteration #          9
  pAp =   2.836249426735108E-004  rzold =   2.094062757293972E-004  alpha = 
  0.738321086133990     
 delta_qm =   0.315178E-03 delta_en =   0.171654E+00 tol =   0.100000E-03
 Iteration #         10
  pAp =   3.685298428264200E-004  rzold =   2.665770590522924E-004  alpha = 
  0.723352706005554     
 delta_qm =   0.134943E-03 delta_en =   0.314663E-01 tol =   0.100000E-03
 Iteration #         11
  pAp =   3.882413906476730E-004  rzold =   1.284082855282286E-004  alpha = 
  0.330743420514786     
 delta_qm =   0.912181E-04 delta_en =   0.143782E-01 tol =   0.100000E-03
 Iteration #         12
  pAp =   1.370142517231515E-004  rzold =   4.196275190677019E-005  alpha = 
  0.306265599228023     
 delta_qm =   0.639816E-04 delta_en =   0.707382E-02 tol =   0.100000E-03
 Iteration #         13
  pAp =   1.891062559178085E-005  rzold =   7.937984863074405E-006  alpha = 
  0.419763207967298     
 delta_qm =   0.448511E-04 delta_en =   0.347608E-02 tol =   0.100000E-03
 Iteration #         14
  pAp =   8.750611152964895E-006  rzold =   3.680559426721504E-006  alpha = 
  0.420605985385884     
 delta_qm =   0.301813E-04 delta_en =   0.157405E-02 tol =   0.100000E-03
 Iteration #         15
  pAp =   8.552002858453938E-005  rzold =   5.161651757778020E-006  alpha = 
  6.035605744302993E-002
 delta_qm =   0.295486E-04 delta_en =   0.150875E-02 tol =   0.100000E-03
 Iteration #         16
  pAp =   4.488747905078176E-006  rzold =   1.898885023964340E-006  alpha = 
  0.423032227275697     
 delta_qm =   0.195125E-04 delta_en =   0.657917E-03 tol =   0.100000E-03
 Iteration #         17
  pAp =   1.685937696255635E-006  rzold =   8.800262631237511E-007  alpha = 
  0.521980299199808     
 delta_qm =   0.103535E-04 delta_en =   0.185234E-03 tol =   0.100000E-03
 Iteration #         18
  pAp =   7.059277083029689E-007  rzold =   3.109418089596219E-007  alpha = 
  0.440472594151486     
 delta_qm =   0.528178E-05 delta_en =   0.482064E-04 tol =   0.100000E-03
 Charges are converged, EXIT

%%%% ELECTRONS %%%%%%%%%%%%%%%%%%%%%%%%%%%%%%%%%%%%%%%%%%%%%%%%%%%%%%%%%%%%%%%%%
 number of electrons        =         24
 total electronic charge    =     24.0000000
 number of spin components  =  1

%%%% BOUNDARY %%%%%%%%%%%%%%%%%%%%%%%%%%%%%%%%%%%%%%%%%%%%%%%%%%%%%%%%%%%%%%%%%%
 boundary mode              = electronic           
 boundary is built as a function of a smooth density
 function type              =  2 
 using the modified SCCS function with parameters 
 rhomax                     =      0.0050000 
 rhomin                     =      0.0001000 

%%%% DIELECTRIC %%%%%%%%%%%%%%%%%%%%%%%%%%%%%%%%%%%%%%%%%%%%%%%%%%%%%%%%%%%%%%%%%
 dielectric build on homogeneous background
 environment bulk permitt.  =    100.0000000 
 dielectric flags
 need gradient              =  F 
 need factor depend. sqrt   =  T 
 need gradient of logarithm =  T 

%%%% COMPUTE ELECTROSTATIC POTENTIAL %%%%%%%%%%%%%%%%%%%%%%%%%%%%%%%%%%%%%%%%%%%
 Warning: bad guess with residual norm =   0.109412E+04, reset to no guess
 Iteration #          1
  pAp =    111.915464328376       rzold =    93.7234482148715       alpha = 
  0.837448593698125     
 delta_qm =   0.773706E-01 delta_en =   0.103442E+05 tol =   0.100000E-03
 Iteration #          2
  pAp =    8012.77200494894       rzold =    337.984685291002       alpha = 
  4.218074407736203E-002
 delta_qm =   0.103813E-01 delta_en =   0.186227E+03 tol =   0.100000E-03
 Iteration #          3
  pAp =    19.3988782733489       rzold =    2.13641502385450       alpha = 
  0.110130853637533     
 delta_qm =   0.298698E-02 delta_en =   0.154173E+02 tol =   0.100000E-03
 Iteration #          4
  pAp =    1.04265689823409       rzold =   0.161563545398383       alpha = 
  0.154953701137946     
 delta_qm =   0.122910E-02 delta_en =   0.261048E+01 tol =   0.100000E-03
 Iteration #          5
  pAp =   4.917653246345811E-002  rzold =   1.129189288067141E-002  alpha = 
  0.229619542391732     
 delta_qm =   0.772803E-03 delta_en =   0.103200E+01 tol =   0.100000E-03
 Iteration #          6
  pAp =   1.663409153771053E-002  rzold =   3.779720341438118E-003  alpha = 
  0.227227338076700     
 delta_qm =   0.593801E-03 delta_en =   0.609292E+00 tol =   0.100000E-03
 Iteration #          7
  pAp =   9.740152146038804E-003  rzold =   2.161202459496060E-003  alpha = 
  0.221885903535397     
 delta_qm =   0.543390E-03 delta_en =   0.510231E+00 tol =   0.100000E-03
 Iteration #          8
  pAp =   1.504663536327020E-003  rzold =   5.538752818226739E-004  alpha = 
  0.368105738226846     
 delta_qm =   0.558955E-03 delta_en =   0.539881E+00 tol =   0.100000E-03
 Iteration #          9
  pAp =   4.158587485310754E-004  rzold =   2.812908893307884E-004  alpha = 
  0.676409695177469     
 delta_qm =   0.471792E-03 delta_en =   0.384632E+00 tol =   0.100000E-03
 Iteration #         10
  pAp =   4.735674317171442E-004  rzold =   3.714109686016908E-004  alpha = 
  0.784283174319998     
 delta_qm =   0.216988E-03 delta_en =   0.813610E-01 tol =   0.100000E-03
 Iteration #         11
  pAp =   7.990608932484822E-004  rzold =   2.686332316100953E-004  alpha = 
  0.336186182905286     
 delta_qm =   0.149868E-03 delta_en =   0.388116E-01 tol =   0.100000E-03
 Iteration #         12
  pAp =   3.384850374591005E-004  rzold =   9.764627855487741E-005  alpha = 
  0.288480339597511     
 delta_qm =   0.113416E-03 delta_en =   0.222276E-01 tol =   0.100000E-03
 Iteration #         13
  pAp =   5.372901689371414E-005  rzold =   1.987597007628287E-005  alpha = 
  0.369929904275025     
 delta_qm =   0.862944E-04 delta_en =   0.128679E-01 tol =   0.100000E-03
 Iteration #         14
  pAp =   2.029379757241507E-005  rzold =   9.511697167897032E-006  alpha = 
  0.468699716450611     
 delta_qm =   0.594520E-04 delta_en =   0.610769E-02 tol =   0.100000E-03
 Iteration #         15
  pAp =   9.630282413177494E-006  rzold =   4.879007101096279E-006  alpha = 
  0.506631777944554     
 delta_qm =   0.405578E-04 delta_en =   0.284245E-02 tol =   0.100000E-03
 Iteration #         16
  pAp =   6.110798435234193E-005  rzold =   5.127817185537438E-006  alpha = 
  8.391402923668710E-002
 delta_qm =   0.417902E-04 delta_en =   0.301781E-02 tol =   0.100000E-03
 Iteration #         17
  pAp =   2.320687534590541E-005  rzold =   5.653343854326550E-006  alpha = 
  0.243606421375639     
 delta_qm =   0.241421E-04 delta_en =   0.100715E-02 tol =   0.100000E-03
 Iteration #         18
  pAp =   3.192386299556278E-006  rzold =   1.250720367605478E-006  alpha = 
  0.391782275152390     
 delta_qm =   0.144613E-04 delta_en =   0.361376E-03 tol =   0.100000E-03
 Iteration #         19
  pAp =   4.078460576351797E-006  rzold =   8.302723800841459E-007  alpha = 
  0.203574943177906     
 delta_qm =   0.956933E-05 delta_en =   0.158237E-03 tol =   0.100000E-03
 Iteration #         20
  pAp =   3.657553248925011E-007  rzold =   1.550401738045497E-007  alpha = 
  0.423890407747631     
 delta_qm =   0.629994E-05 delta_en =   0.685831E-04 tol =   0.100000E-03
 Charges are converged, EXIT

%%%% ELECTRONS %%%%%%%%%%%%%%%%%%%%%%%%%%%%%%%%%%%%%%%%%%%%%%%%%%%%%%%%%%%%%%%%%
 number of electrons        =         24
 total electronic charge    =     24.0000000
 number of spin components  =  1

%%%% BOUNDARY %%%%%%%%%%%%%%%%%%%%%%%%%%%%%%%%%%%%%%%%%%%%%%%%%%%%%%%%%%%%%%%%%%
 boundary mode              = electronic           
 boundary is built as a function of a smooth density
 function type              =  2 
 using the modified SCCS function with parameters 
 rhomax                     =      0.0050000 
 rhomin                     =      0.0001000 

%%%% DIELECTRIC %%%%%%%%%%%%%%%%%%%%%%%%%%%%%%%%%%%%%%%%%%%%%%%%%%%%%%%%%%%%%%%%%
 dielectric build on homogeneous background
 environment bulk permitt.  =    100.0000000 
 dielectric flags
 need gradient              =  F 
 need factor depend. sqrt   =  T 
 need gradient of logarithm =  T 
