
     Program PWSCF v.6.1 (svn rev. 13369) starts on  7Nov2017 at 16:30:56 

     This program is part of the open-source Quantum ESPRESSO suite
     for quantum simulation of materials; please cite
         "P. Giannozzi et al., J. Phys.:Condens. Matter 21 395502 (2009);
          URL http://www.quantum-espresso.org", 
     in publications or presentations arising from this work. More details at
     http://www.quantum-espresso.org/quote

     Serial version
     Reading input from charged.in

     Current dimensions of program PWSCF are:
     Max number of different atomic species (ntypx) = 10
     Max number of k-points (npk) =  40000
     Max angular momentum in pseudopotentials (lmaxx) =  3
               file C.pbe-rrkjus.UPF: wavefunction(s)  2S 2P renormalized
               file H.pbe-rrkjus.UPF: wavefunction(s)  1S renormalized
               file N.pbe-rrkjus.UPF: wavefunction(s)  2S renormalized
               file O.pbe-rrkjus.UPF: wavefunction(s)  2S renormalized

     gamma-point specific algorithms are used

     G-vector sticks info
     --------------------
     sticks:   dense  smooth     PW     G-vecs:    dense   smooth      PW
     Sum        9549    3809    949               701475   177509   22119



     bravais-lattice index     =            1
     lattice parameter (alat)  =      20.0000  a.u.
     unit-cell volume          =    8000.0000 (a.u.)^3
     number of atoms/cell      =           10
     number of atomic types    =            4
     number of electrons       =        24.00
     number of Kohn-Sham states=           12
     kinetic-energy cutoff     =      30.0000  Ry
     charge density cutoff     =     300.0000  Ry
     convergence threshold     =      5.0E-03
     mixing beta               =       0.7000
     number of iterations used =            8  plain     mixing
     Exchange-correlation      =  SLA  PW   PBE  PBE ( 1  4  3  4 0 0)


     Environ Module
     ==============

     Plese cite
         O. Andreussi, I. Dabo and N. Marzari, J. Chem. Phys. 136, 064102 (2012)         
     in publications or presentations arising from this work.

     compensation onset threshold      =               0.1000E+03 
     static permittivity               =                   100.00 
     epsilon calculation mode          =               electronic 

     Electrostatic Setup
     -------------------
     electrostatic problem to solve    = generalized              
     numerical solver adopted          = cg                       
     type of auxiliary density adopted = none                     
     type of core tool for poisson     = fft                      
     type of core tool for s(r) deriv  = analytic                 



     celldm(1)=  20.000000  celldm(2)=   0.000000  celldm(3)=   0.000000
     celldm(4)=   0.000000  celldm(5)=   0.000000  celldm(6)=   0.000000

     crystal axes: (cart. coord. in units of alat)
               a(1) = (   1.000000   0.000000   0.000000 )  
               a(2) = (   0.000000   1.000000   0.000000 )  
               a(3) = (   0.000000   0.000000   1.000000 )  

     reciprocal axes: (cart. coord. in units 2 pi/alat)
               b(1) = (  1.000000  0.000000  0.000000 )  
               b(2) = (  0.000000  1.000000  0.000000 )  
               b(3) = (  0.000000  0.000000  1.000000 )  


     PseudoPot. # 1 for C  read from file:
     /Users/oliviero/PWSCF/espresso-6.1-Environ-1.0/Environ/tests/../..//pseudo/C.pbe-rrkjus.UPF
     MD5 check sum: 00fb224312de0c5b6853bd333518df6f
     Pseudo is Ultrasoft, Zval =  4.0
     Generated by new atomic code, or converted to UPF format
     Using radial grid of  627 points,  4 beta functions with: 
                l(1) =   0
                l(2) =   0
                l(3) =   1
                l(4) =   1
     Q(r) pseudized with 0 coefficients 


     PseudoPot. # 2 for H  read from file:
     /Users/oliviero/PWSCF/espresso-6.1-Environ-1.0/Environ/tests/../..//pseudo/H.pbe-rrkjus.UPF
     MD5 check sum: 7cc9d459525c9a0585f487a71c3c9563
     Pseudo is Ultrasoft, Zval =  1.0
     Generated by new atomic code, or converted to UPF format
     Using radial grid of 1061 points,  2 beta functions with: 
                l(1) =   0
                l(2) =   0
     Q(r) pseudized with 0 coefficients 


     PseudoPot. # 3 for N  read from file:
     /Users/oliviero/PWSCF/espresso-6.1-Environ-1.0/Environ/tests/../..//pseudo/N.pbe-rrkjus.UPF
     MD5 check sum: 0c3fbe5807a93f9ba59d5a7019aa238b
     Pseudo is Ultrasoft, Zval =  5.0
     Generated by new atomic code, or converted to UPF format
     Using radial grid of 1257 points,  4 beta functions with: 
                l(1) =   0
                l(2) =   0
                l(3) =   1
                l(4) =   1
     Q(r) pseudized with 0 coefficients 


     PseudoPot. # 4 for O  read from file:
     /Users/oliviero/PWSCF/espresso-6.1-Environ-1.0/Environ/tests/../..//pseudo/O.pbe-rrkjus.UPF
     MD5 check sum: 390ba29e75625707450f3bd3f0eb6be9
     Pseudo is Ultrasoft, Zval =  6.0
     Generated by new atomic code, or converted to UPF format
     Using radial grid of 1269 points,  4 beta functions with: 
                l(1) =   0
                l(2) =   0
                l(3) =   1
                l(4) =   1
     Q(r) pseudized with 0 coefficients 


     atomic species   valence    mass     pseudopotential
        C              4.00    12.00000     C ( 1.00)
        H              1.00     1.00000     H ( 1.00)
        N              5.00    14.00000     N ( 1.00)
        O              6.00    16.00000     O ( 1.00)

     No symmetry found



   Cartesian axes

     site n.     atom                  positions (alat units)
         1           C   tau(   1) = (   0.0000000   0.0000000   0.0000000  )
         2           C   tau(   2) = (   0.0000000   0.0000000   0.1455089  )
         3           N   tau(   3) = (   0.1170969   0.0000000  -0.0545024  )
         4           H   tau(   4) = (   0.0476617  -0.0825466   0.1792090  )
         5           H   tau(   5) = (  -0.0953183  -0.0000030   0.1792090  )
         6           H   tau(   6) = (   0.0476566   0.0825496   0.1792090  )
         7           O   tau(   7) = (  -0.0984002  -0.0000019  -0.0641310  )
         8           H   tau(   8) = (   0.1263131  -0.0000015  -0.1475548  )
         9           H   tau(   9) = (   0.1944645   0.0000134  -0.0025716  )
        10           H   tau(  10) = (  -0.0770366  -0.0000045  -0.1522861  )

     number of k points=     1
                       cart. coord. in units 2pi/alat
        k(    1) = (   0.0000000   0.0000000   0.0000000), wk =   2.0000000

     Dense  grid:   350738 G-vectors     FFT dimensions: ( 120, 120, 120)

     Smooth grid:    88755 G-vectors     FFT dimensions: (  72,  72,  72)

     Estimated max dynamical RAM per process >     298.98MB

     Initial potential from superposition of free atoms
     Check: negative starting charge=   -0.000452

     starting charge   24.42266, renormalised to   24.00000

     negative rho (up, down):  4.438E-04 0.000E+00
     Starting wfc are   22 randomized atomic wfcs

     total cpu time spent up to now is        8.7 secs

     Self-consistent Calculation

     iteration #  1     ecut=    30.00 Ry     beta=0.70
     Davidson diagonalization with overlap
     ethr =  1.00E-02,  avg # of iterations =  2.0

     negative rho (up, down):  1.277E-04 0.000E+00

     add environment contribution to local potential
     polarization accuracy = 3.4E-05, # of iterations =  13

     total cpu time spent up to now is       19.5 secs

     total energy              =     -80.23412306 Ry
     Harris-Foulkes estimate   =     -83.01879009 Ry
     estimated scf accuracy    <       3.73442311 Ry
     electrostatic embedding   =       0.00490874 Ry
     correction to one-el term =       0.00000000 Ry

     iteration #  2     ecut=    30.00 Ry     beta=0.70
     Davidson diagonalization with overlap
     ethr =  1.00E-02,  avg # of iterations =  4.0

     negative rho (up, down):  6.916E-04 0.000E+00

     add environment contribution to local potential
     polarization accuracy = 4.1E-05, # of iterations =  17

     total cpu time spent up to now is       32.3 secs

     total energy              =     -80.96980034 Ry
     Harris-Foulkes estimate   =     -77.32350789 Ry
     estimated scf accuracy    <       1.54022121 Ry
     electrostatic embedding   =      -0.14394148 Ry
     correction to one-el term =      -4.32732111 Ry

     iteration #  3     ecut=    30.00 Ry     beta=0.70
     Davidson diagonalization with overlap
     ethr =  6.42E-03,  avg # of iterations =  3.0

     negative rho (up, down):  3.247E-04 0.000E+00

     add environment contribution to local potential
     polarization accuracy = 4.8E-05, # of iterations =  18

     total cpu time spent up to now is       45.3 secs

     total energy              =     -81.31081197 Ry
     Harris-Foulkes estimate   =     -77.76440408 Ry
     estimated scf accuracy    <       0.24314211 Ry
     electrostatic embedding   =      -0.11659322 Ry
     correction to one-el term =      -3.55939962 Ry

     iteration #  4     ecut=    30.00 Ry     beta=0.70
     Davidson diagonalization with overlap
     ethr =  1.01E-03,  avg # of iterations =  4.0

     negative rho (up, down):  8.631E-05 0.000E+00

     add environment contribution to local potential
     polarization accuracy = 6.9E-05, # of iterations =  20

     total cpu time spent up to now is       58.5 secs

     total energy              =     -81.36115555 Ry
     Harris-Foulkes estimate   =     -77.94980415 Ry
     estimated scf accuracy    <       0.02088107 Ry
     electrostatic embedding   =      -0.10399732 Ry
     correction to one-el term =      -3.31796193 Ry

     iteration #  5     ecut=    30.00 Ry     beta=0.70
     Davidson diagonalization with overlap
     ethr =  8.70E-05,  avg # of iterations =  4.0

     negative rho (up, down):  2.757E-04 0.000E+00

     total cpu time spent up to now is       63.3 secs

     End of self-consistent calculation

          k = 0.0000 0.0000 0.0000 ( 11060 PWs)   bands (ev):

   -29.3425 -23.6045 -19.0853 -16.4162 -15.1233 -13.8486 -12.1103 -11.3676
   -10.0087  -9.9943  -9.7582  -7.8448

     highest occupied level (ev):    -7.8448

!    total energy              =     -81.36606086 Ry
     Harris-Foulkes estimate   =     -78.16211711 Ry
     estimated scf accuracy    <       0.00247732 Ry

     The total energy is the sum of the following terms:

     one-electron contribution =    -242.66569822 Ry
     hartree contribution      =     123.14346421 Ry
     xc contribution           =     -22.94587611 Ry
     ewald contribution        =      64.30784006 Ry
     electrostatic embedding   =      -0.10403443 Ry
     correction to one-el term =      -3.10175637 Ry

     convergence has been achieved in   5 iterations

     Forces acting on atoms (cartesian axes, Ry/au):

     atom    1 type  1   force =     0.21838946    0.00001026    0.10006227
     atom    2 type  1   force =    -0.03322123   -0.00001087   -0.08128041
     atom    3 type  3   force =    -0.13986776   -0.00000354    0.04567179
     atom    4 type  2   force =     0.01762512   -0.02831821    0.00830061
     atom    5 type  2   force =    -0.03266438   -0.00000182    0.01163889
     atom    6 type  2   force =     0.01763005    0.02832846    0.00830312
     atom    7 type  4   force =    -0.08248318   -0.00003057   -0.00936339
     atom    8 type  2   force =     0.00509736    0.00000791   -0.04799220
     atom    9 type  2   force =     0.03815335    0.00001197    0.03882967
     atom   10 type  2   force =    -0.00865877    0.00000641   -0.07417036

     Total force =     0.329229     Total SCF correction =     0.120979
     SCF correction compared to forces is large: reduce conv_thr to get better values

     Writing output data file pwscf.save

     init_run     :      7.84s CPU      8.50s WALL (       1 calls)
     electrons    :     49.05s CPU     54.75s WALL (       1 calls)
     forces       :      2.44s CPU      2.86s WALL (       1 calls)

     Called by init_run:
     wfcinit      :      0.21s CPU      0.21s WALL (       1 calls)
     potinit      :      1.77s CPU      1.89s WALL (       1 calls)

     Called by electrons:
     c_bands      :      2.09s CPU      2.03s WALL (       5 calls)
     sum_band     :      6.67s CPU      6.91s WALL (       5 calls)
     v_of_rho     :      7.24s CPU      7.92s WALL (       6 calls)
     newd         :      3.68s CPU      5.55s WALL (       6 calls)
     mix_rho      :      0.60s CPU      0.70s WALL (       5 calls)

     Called by c_bands:
     init_us_2    :      0.08s CPU      0.11s WALL (      11 calls)
     regterg      :      1.99s CPU      1.92s WALL (       5 calls)

     Called by sum_band:
     sum_band:bec :      0.00s CPU      0.00s WALL (       5 calls)
     addusdens    :      5.33s CPU      5.47s WALL (       5 calls)

     Called by *egterg:
     h_psi        :      1.81s CPU      1.81s WALL (      23 calls)
     s_psi        :      0.11s CPU      0.04s WALL (      23 calls)
     g_psi        :      0.01s CPU      0.01s WALL (      17 calls)
     rdiaghg      :      0.01s CPU      0.01s WALL (      22 calls)

     Called by h_psi:
     h_psi:pot    :      1.79s CPU      1.79s WALL (      23 calls)
     h_psi:calbec :      0.06s CPU      0.06s WALL (      23 calls)
     vloc_psi     :      1.62s CPU      1.69s WALL (      23 calls)
     add_vuspsi   :      0.12s CPU      0.04s WALL (      23 calls)

     General routines
     calbec       :      0.08s CPU      0.09s WALL (      32 calls)
     fft          :     16.19s CPU     16.68s WALL (     295 calls)
     ffts         :      0.10s CPU      0.11s WALL (      11 calls)
     fftw         :      1.44s CPU      1.51s WALL (     244 calls)
     interpolate  :      0.85s CPU      0.96s WALL (      11 calls)
     davcio       :      0.00s CPU      0.00s WALL (       1 calls)


     Environ routines
     calc_eelect  :      0.03s CPU      0.03s WALL (      10 calls)
     calc_velect  :     23.94s CPU     26.47s WALL (       8 calls)
     dielectric   :      0.49s CPU      0.62s WALL (       6 calls)
     calc_felect  :      0.70s CPU      0.76s WALL (       1 calls)

     PWSCF        :  0m59.61s CPU     1m 6.56s WALL


   This run was terminated on:  16:32: 2   7Nov2017            

=------------------------------------------------------------------------------=
   JOB DONE.
=------------------------------------------------------------------------------=

%%%% IONS %%%%%%%%%%%%%%%%%%%%%%%%%%%%%%%%%%%%%%%%%%%%%%%%%%%%%%%%%%%%%%%%%%%%%%
 number of ions             =         10
 ionic center of charge     =      0.0095530    -0.0000002     0.0063981
 total ionic charge         =    -25.0000000
 ionic dipole               =      0.0000000     0.0000000     0.0000000
 ionic quadrupole (pc)      =    -79.0828058    -5.4513517  -105.8059629
 ionic quadrupole (gauss)   =    -82.2078058    -8.5763517  -108.9309629
 ion   1 type =  1 coordinates =      0.0000000     0.0000000     0.0000000
 ion   2 type =  1 coordinates =      0.0000000     0.0000000     2.9101782
 ion   3 type =  3 coordinates =      2.3419379     0.0000000    -1.0900479
 ion   4 type =  2 coordinates =      0.9532347    -1.6509323     3.5841800
 ion   5 type =  2 coordinates =     -1.9063663    -0.0000596     3.5841809
 ion   6 type =  2 coordinates =      0.9531315     1.6509919     3.5841800
 ion   7 type =  4 coordinates =     -1.9680045    -0.0000375    -1.2826193
 ion   8 type =  2 coordinates =      2.5262613    -0.0000303    -2.9510950
 ion   9 type =  2 coordinates =      3.8892907     0.0002681    -0.0514326
 ion  10 type =  2 coordinates =     -1.5407317    -0.0000890    -3.0457220

%%%% SYSTEM %%%%%%%%%%%%%%%%%%%%%%%%%%%%%%%%%%%%%%%%%%%%%%%%%%%%%%%%%%%%%%%%%%%%
 system is built from all present ionic types
 system defined dimension   =  0 
 system defined axis        =  3 
 system center              =      0.0095530    -0.0000002     0.0063981 
 system width               =      0.5223840 

%%%% ELECTRONS %%%%%%%%%%%%%%%%%%%%%%%%%%%%%%%%%%%%%%%%%%%%%%%%%%%%%%%%%%%%%%%%%
 number of electrons        =         24
 total electronic charge    =     24.0000000
 number of spin components  =  1

%%%% BOUNDARY %%%%%%%%%%%%%%%%%%%%%%%%%%%%%%%%%%%%%%%%%%%%%%%%%%%%%%%%%%%%%%%%%%
 boundary mode              = electronic           
 boundary is built as a function of a smooth density
 function type              =  2 
 using the modified SCCS function with parameters 
 rhomax                     =      0.0050000 
 rhomin                     =      0.0001000 
 volume of the QM region    =    989.6663489 
 surface of the QM region   =    490.3846933 

%%%% DIELECTRIC %%%%%%%%%%%%%%%%%%%%%%%%%%%%%%%%%%%%%%%%%%%%%%%%%%%%%%%%%%%%%%%%%
 dielectric build on homogeneous background
 environment bulk permitt.  =    100.0000000 
 dielectric flags
 need gradient              =  F 
 need factor depend. sqrt   =  T 
 need gradient of logarithm =  T 

%%%% COMPUTE ELECTROSTATIC POTENTIAL %%%%%%%%%%%%%%%%%%%%%%%%%%%%%%%%%%%%%%%%%%%
 Iteration #          1
  pAp =    111.62626433100341       rzold =    89.913290944589576       alpha =   0.80548508438812627     
 delta_qm =   0.443631E-01 delta_en =   0.340086E+04 tol =   0.100000E-03
 Iteration #          2
  pAp =    3870.2827056181582       rzold =    250.09814062917508       alpha =    6.4620122004557703E-002
 delta_qm =   0.406183E-02 delta_en =   0.285093E+02 tol =   0.100000E-03
 Iteration #          3
  pAp =    2.9717888297379127       rzold =   0.56943269848408595       alpha =   0.19161277301601043     
 delta_qm =   0.137325E-02 delta_en =   0.325870E+01 tol =   0.100000E-03
 Iteration #          4
  pAp =   0.31943615692105021       rzold =    6.4010067685911096E-002  alpha =   0.20038454100777142     
 delta_qm =   0.734935E-03 delta_en =   0.933344E+00 tol =   0.100000E-03
 Iteration #          5
  pAp =    2.0082293359364931E-002  rzold =    6.4902880141482940E-003  alpha =   0.32318460337208910     
 delta_qm =   0.340289E-03 delta_en =   0.200097E+00 tol =   0.100000E-03
 Iteration #          6
  pAp =    3.3123749891048968E-003  rzold =    1.3883378900051825E-003  alpha =   0.41913669031185175     
 delta_qm =   0.160394E-03 delta_en =   0.444548E-01 tol =   0.100000E-03
 Iteration #          7
  pAp =    1.5288824119969301E-003  rzold =    3.1581548514685736E-004  alpha =   0.20656623600918989     
 delta_qm =   0.118320E-03 delta_en =   0.241913E-01 tol =   0.100000E-03
 Iteration #          8
  pAp =    2.5823824513547414E-004  rzold =    8.7247345566934280E-005  alpha =   0.33785601943338611     
 delta_qm =   0.109213E-03 delta_en =   0.206107E-01 tol =   0.100000E-03
 Iteration #          9
  pAp =    3.5289417665524311E-005  rzold =    2.5813926219730075E-005  alpha =   0.73149198619247169     
 delta_qm =   0.672418E-04 delta_en =   0.781308E-02 tol =   0.100000E-03
 Iteration #         10
  pAp =    2.7495778630175533E-005  rzold =    2.1177131967293153E-005  alpha =   0.77019575448763922     
 delta_qm =   0.272653E-04 delta_en =   0.128459E-02 tol =   0.100000E-03
 Iteration #         11
  pAp =    1.1119505479725081E-005  rzold =    5.7558677298917736E-006  alpha =   0.51763702445102633     
 delta_qm =   0.143007E-04 delta_en =   0.353394E-03 tol =   0.100000E-03
 Iteration #         12
  pAp =    2.7212255711852885E-006  rzold =    1.0116363697911295E-006  alpha =   0.37175763027630576     
 delta_qm =   0.847871E-05 delta_en =   0.124223E-03 tol =   0.100000E-03
 Iteration #         13
  pAp =    1.1558700494395200E-006  rzold =    3.6879861605715157E-007  alpha =   0.31906581214383190     
 delta_qm =   0.441326E-05 delta_en =   0.336561E-04 tol =   0.100000E-03
 Charges are converged, EXIT

%%%% ELECTRONS %%%%%%%%%%%%%%%%%%%%%%%%%%%%%%%%%%%%%%%%%%%%%%%%%%%%%%%%%%%%%%%%%
 number of electrons        =         24
 total electronic charge    =     24.0000000
 number of spin components  =  1

%%%% BOUNDARY %%%%%%%%%%%%%%%%%%%%%%%%%%%%%%%%%%%%%%%%%%%%%%%%%%%%%%%%%%%%%%%%%%
 boundary mode              = electronic           
 boundary is built as a function of a smooth density
 function type              =  2 
 using the modified SCCS function with parameters 
 rhomax                     =      0.0050000 
 rhomin                     =      0.0001000 
 volume of the QM region    =    837.2222917 
 surface of the QM region   =    448.8362277 

%%%% DIELECTRIC %%%%%%%%%%%%%%%%%%%%%%%%%%%%%%%%%%%%%%%%%%%%%%%%%%%%%%%%%%%%%%%%%
 dielectric build on homogeneous background
 environment bulk permitt.  =    100.0000000 
 dielectric flags
 need gradient              =  F 
 need factor depend. sqrt   =  T 
 need gradient of logarithm =  T 

%%%% COMPUTE ELECTROSTATIC POTENTIAL %%%%%%%%%%%%%%%%%%%%%%%%%%%%%%%%%%%%%%%%%%%
 Warning: bad guess with residual norm =   0.428243E+03, reset to no guess
 Iteration #          1
  pAp =    113.64521500400640       rzold =    93.357218391405056       alpha =   0.82147953513145167     
 delta_qm =   0.632714E-01 delta_en =   0.691765E+04 tol =   0.100000E-03
 Iteration #          2
  pAp =    5444.4117135393462       rzold =    290.21776289782161       alpha =    5.3305623852086412E-002
 delta_qm =   0.745466E-02 delta_en =   0.960283E+02 tol =   0.100000E-03
 Iteration #          3
  pAp =    12.748917088078276       rzold =    1.6404886668309999       alpha =   0.12867670685261950     
 delta_qm =   0.217537E-02 delta_en =   0.817731E+01 tol =   0.100000E-03
 Iteration #          4
  pAp =   0.43682408717765925       rzold =    8.6755679566571015E-002  alpha =   0.19860553049421678     
 delta_qm =   0.912697E-03 delta_en =   0.143945E+01 tol =   0.100000E-03
 Iteration #          5
  pAp =    2.0219113817934089E-002  rzold =    6.3997664140914619E-003  alpha =   0.31652061864427278     
 delta_qm =   0.478065E-03 delta_en =   0.394928E+00 tol =   0.100000E-03
 Iteration #          6
  pAp =    8.6878443355166875E-003  rzold =    2.3710825212023071E-003  alpha =   0.27291954478386643     
 delta_qm =   0.372921E-03 delta_en =   0.240313E+00 tol =   0.100000E-03
 Iteration #          7
  pAp =    5.4484649483856028E-003  rzold =    1.1359518013342872E-003  alpha =   0.20849024672001851     
 delta_qm =   0.332663E-03 delta_en =   0.191229E+00 tol =   0.100000E-03
 Iteration #          8
  pAp =    4.1978797499272737E-004  rzold =    1.9000378854990829E-004  alpha =   0.45261846424543251     
 delta_qm =   0.304568E-03 delta_en =   0.160292E+00 tol =   0.100000E-03
 Iteration #          9
  pAp =    1.3853994863286518E-004  rzold =    1.1537762502595451E-004  alpha =   0.83281123000636093     
 delta_qm =   0.189302E-03 delta_en =   0.619230E-01 tol =   0.100000E-03
 Iteration #         10
  pAp =    1.8241469521408120E-004  rzold =    1.2218014319104826E-004  alpha =   0.66979331378789475     
 delta_qm =   0.745700E-04 delta_en =   0.960886E-02 tol =   0.100000E-03
 Iteration #         11
  pAp =    6.5340318327141564E-005  rzold =    2.7724421154802118E-005  alpha =   0.42430802090668318     
 delta_qm =   0.493064E-04 delta_en =   0.420097E-02 tol =   0.100000E-03
 Iteration #         12
  pAp =    2.1452706346540869E-005  rzold =    7.5044694532881478E-006  alpha =   0.34981457966482643     
 delta_qm =   0.341490E-04 delta_en =   0.201512E-02 tol =   0.100000E-03
 Iteration #         13
  pAp =    5.6898477190058997E-006  rzold =    2.2454324868402444E-006  alpha =   0.39463841524963600     
 delta_qm =   0.225336E-04 delta_en =   0.877417E-03 tol =   0.100000E-03
 Iteration #         14
  pAp =    5.1339898058122263E-006  rzold =    1.2486995921129182E-006  alpha =   0.24322206302382146     
 delta_qm =   0.180193E-04 delta_en =   0.561074E-03 tol =   0.100000E-03
 Iteration #         15
  pAp =    2.6094254179465789E-005  rzold =    2.1705519882759218E-006  alpha =    8.3181223473479560E-002
 delta_qm =   0.140467E-04 delta_en =   0.340953E-03 tol =   0.100000E-03
 Iteration #         16
  pAp =    1.3832276152182654E-006  rzold =    5.1860978288509957E-007  alpha =   0.37492729119875612     
 delta_qm =   0.963586E-05 delta_en =   0.160444E-03 tol =   0.100000E-03
 Iteration #         17
  pAp =    6.0660345732012518E-007  rzold =    2.6480974448263410E-007  alpha =   0.43654506298483731     
 delta_qm =   0.484363E-05 delta_en =   0.405401E-04 tol =   0.100000E-03
 Charges are converged, EXIT

%%%% ELECTRONS %%%%%%%%%%%%%%%%%%%%%%%%%%%%%%%%%%%%%%%%%%%%%%%%%%%%%%%%%%%%%%%%%
 number of electrons        =         24
 total electronic charge    =     24.0000000
 number of spin components  =  1

%%%% BOUNDARY %%%%%%%%%%%%%%%%%%%%%%%%%%%%%%%%%%%%%%%%%%%%%%%%%%%%%%%%%%%%%%%%%%
 boundary mode              = electronic           
 boundary is built as a function of a smooth density
 function type              =  2 
 using the modified SCCS function with parameters 
 rhomax                     =      0.0050000 
 rhomin                     =      0.0001000 
 volume of the QM region    =    756.7481994 
 surface of the QM region   =    424.0528665 

%%%% DIELECTRIC %%%%%%%%%%%%%%%%%%%%%%%%%%%%%%%%%%%%%%%%%%%%%%%%%%%%%%%%%%%%%%%%%
 dielectric build on homogeneous background
 environment bulk permitt.  =    100.0000000 
 dielectric flags
 need gradient              =  F 
 need factor depend. sqrt   =  T 
 need gradient of logarithm =  T 

%%%% COMPUTE ELECTROSTATIC POTENTIAL %%%%%%%%%%%%%%%%%%%%%%%%%%%%%%%%%%%%%%%%%%%
 Warning: bad guess with residual norm =   0.160062E+04, reset to no guess
 Iteration #          1
  pAp =    113.00963949018860       rzold =    93.906901772221403       alpha =   0.83096364341888118     
 delta_qm =   0.666885E-01 delta_en =   0.768503E+04 tol =   0.100000E-03
 Iteration #          2
  pAp =    6935.8387966775254       rzold =    321.13644650037020       alpha =    4.6301025141213516E-002
 delta_qm =   0.779145E-02 delta_en =   0.104901E+03 tol =   0.100000E-03
 Iteration #          3
  pAp =    12.390779824776009       rzold =    1.4992234663007964       alpha =   0.12099508566063139     
 delta_qm =   0.240281E-02 delta_en =   0.997659E+01 tol =   0.100000E-03
 Iteration #          4
  pAp =   0.72711937535327398       rzold =   0.12201621018853810       alpha =   0.16780767274872302     
 delta_qm =   0.101472E-02 delta_en =   0.177926E+01 tol =   0.100000E-03
 Iteration #          5
  pAp =    3.2888888387726564E-002  rzold =    8.5490655538228745E-003  alpha =   0.25993780796231486     
 delta_qm =   0.597481E-03 delta_en =   0.616867E+00 tol =   0.100000E-03
 Iteration #          6
  pAp =    1.0966678548574943E-002  rzold =    2.8689786410153908E-003  alpha =   0.26160871117975809     
 delta_qm =   0.454601E-03 delta_en =   0.357112E+00 tol =   0.100000E-03
 Iteration #          7
  pAp =    7.8675674580779027E-003  rzold =    1.6479390316404864E-003  alpha =   0.20945979051612587     
 delta_qm =   0.405163E-03 delta_en =   0.283663E+00 tol =   0.100000E-03
 Iteration #          8
  pAp =    9.3961572102305656E-004  rzold =    3.7400455582406282E-004  alpha =   0.39803990871592215     
 delta_qm =   0.403551E-03 delta_en =   0.281410E+00 tol =   0.100000E-03
 Iteration #          9
  pAp =    2.8362900171846774E-004  rzold =    2.0940738636631920E-004  alpha =   0.73831443575075062     
 delta_qm =   0.315180E-03 delta_en =   0.171657E+00 tol =   0.100000E-03
 Iteration #         10
  pAp =    3.6853040851223754E-004  rzold =    2.6657772578525838E-004  alpha =   0.72335340484232069     
 delta_qm =   0.134944E-03 delta_en =   0.314667E-01 tol =   0.100000E-03
 Iteration #         11
  pAp =    3.8826651389500648E-004  rzold =    1.2841328279239586E-004  alpha =   0.33073489007378287     
 delta_qm =   0.912192E-04 delta_en =   0.143786E-01 tol =   0.100000E-03
 Iteration #         12
  pAp =    1.3701752100616052E-004  rzold =    4.1964100156641647E-005  alpha =   0.30626813161183142     
 delta_qm =   0.639930E-04 delta_en =   0.707635E-02 tol =   0.100000E-03
 Iteration #         13
  pAp =    1.8956937914013873E-005  rzold =    7.9398214610847740E-006  alpha =   0.41883459750191404     
 delta_qm =   0.448571E-04 delta_en =   0.347701E-02 tol =   0.100000E-03
 Iteration #         14
  pAp =    1.2822935009737101E-005  rzold =    3.8384270100348129E-006  alpha =   0.29934075210707234     
 delta_qm =   0.336659E-04 delta_en =   0.195850E-02 tol =   0.100000E-03
 Iteration #         15
  pAp =    1.4533988568367860E-004  rzold =    1.0105742776915653E-005  alpha =    6.9531792524662142E-002
 delta_qm =   0.293739E-04 delta_en =   0.149096E-02 tol =   0.100000E-03
 Iteration #         16
  pAp =    3.0640927314510247E-006  rzold =    1.5831104569237195E-006  alpha =   0.51666532173588142     
 delta_qm =   0.195367E-04 delta_en =   0.659549E-03 tol =   0.100000E-03
 Iteration #         17
  pAp =    1.6826151001366778E-006  rzold =    8.7924530369487777E-007  alpha =   0.52254689953956623     
 delta_qm =   0.103514E-04 delta_en =   0.185159E-03 tol =   0.100000E-03
 Iteration #         18
  pAp =    7.0300016873925728E-007  rzold =    3.1053701717210228E-007  alpha =   0.44173107060416716     
 delta_qm =   0.526921E-05 delta_en =   0.479772E-04 tol =   0.100000E-03
 Charges are converged, EXIT

%%%% ELECTRONS %%%%%%%%%%%%%%%%%%%%%%%%%%%%%%%%%%%%%%%%%%%%%%%%%%%%%%%%%%%%%%%%%
 number of electrons        =         24
 total electronic charge    =     24.0000000
 number of spin components  =  1

%%%% BOUNDARY %%%%%%%%%%%%%%%%%%%%%%%%%%%%%%%%%%%%%%%%%%%%%%%%%%%%%%%%%%%%%%%%%%
 boundary mode              = electronic           
 boundary is built as a function of a smooth density
 function type              =  2 
 using the modified SCCS function with parameters 
 rhomax                     =      0.0050000 
 rhomin                     =      0.0001000 
 volume of the QM region    =    716.7724828 
 surface of the QM region   =    412.3141151 

%%%% DIELECTRIC %%%%%%%%%%%%%%%%%%%%%%%%%%%%%%%%%%%%%%%%%%%%%%%%%%%%%%%%%%%%%%%%%
 dielectric build on homogeneous background
 environment bulk permitt.  =    100.0000000 
 dielectric flags
 need gradient              =  F 
 need factor depend. sqrt   =  T 
 need gradient of logarithm =  T 

%%%% COMPUTE ELECTROSTATIC POTENTIAL %%%%%%%%%%%%%%%%%%%%%%%%%%%%%%%%%%%%%%%%%%%
 Warning: bad guess with residual norm =   0.109398E+04, reset to no guess
 Iteration #          1
  pAp =    111.91550057836621       rzold =    93.723456767331683       alpha =   0.83744839886324796     
 delta_qm =   0.773705E-01 delta_en =   0.103441E+05 tol =   0.100000E-03
 Iteration #          2
  pAp =    8012.7732911065877       rzold =    337.98492308683291       alpha =    4.2180766983881082E-002
 delta_qm =   0.103812E-01 delta_en =   0.186227E+03 tol =   0.100000E-03
 Iteration #          3
  pAp =    19.398900150952191       rzold =    2.1364185073713751       alpha =   0.11013090900756606     
 delta_qm =   0.298698E-02 delta_en =   0.154173E+02 tol =   0.100000E-03
 Iteration #          4
  pAp =    1.0426601527591866       rzold =   0.16156397979898243       alpha =   0.15495363409778004     
 delta_qm =   0.122910E-02 delta_en =   0.261048E+01 tol =   0.100000E-03
 Iteration #          5
  pAp =    4.9176499126597405E-002  rzold =    1.1291888450897002E-002  alpha =   0.22961960797225023     
 delta_qm =   0.772803E-03 delta_en =   0.103200E+01 tol =   0.100000E-03
 Iteration #          6
  pAp =    1.6633982817824119E-002  rzold =    3.7797053522622376E-003  alpha =   0.22722792211929543     
 delta_qm =   0.593800E-03 delta_en =   0.609290E+00 tol =   0.100000E-03
 Iteration #          7
  pAp =    9.7401749999896543E-003  rzold =    2.1612030056509576E-003  alpha =   0.22188543898371982     
 delta_qm =   0.543388E-03 delta_en =   0.510228E+00 tol =   0.100000E-03
 Iteration #          8
  pAp =    1.5046663278917177E-003  rzold =    5.5387562867506915E-004  alpha =   0.36810528580854135     
 delta_qm =   0.558954E-03 delta_en =   0.539878E+00 tol =   0.100000E-03
 Iteration #          9
  pAp =    4.1585938848904907E-004  rzold =    2.8129075912949886E-004  alpha =   0.67640834117396909     
 delta_qm =   0.471791E-03 delta_en =   0.384630E+00 tol =   0.100000E-03
 Iteration #         10
  pAp =    4.7356595867181485E-004  rzold =    3.7140995122581682E-004  alpha =   0.78428346553348238     
 delta_qm =   0.216988E-03 delta_en =   0.813607E-01 tol =   0.100000E-03
 Iteration #         11
  pAp =    7.9906529874210707E-004  rzold =    2.6863354387075524E-004  alpha =   0.33618472018950091     
 delta_qm =   0.149867E-03 delta_en =   0.388113E-01 tol =   0.100000E-03
 Iteration #         12
  pAp =    3.3848421221146526E-004  rzold =    9.7646286343219203E-005  alpha =   0.28848106594175649     
 delta_qm =   0.113415E-03 delta_en =   0.222271E-01 tol =   0.100000E-03
 Iteration #         13
  pAp =    5.3729281090702194E-005  rzold =    1.9875914122020431E-005  alpha =   0.36992704384909297     
 delta_qm =   0.862987E-04 delta_en =   0.128692E-01 tol =   0.100000E-03
 Iteration #         14
  pAp =    2.0331935297342317E-005  rzold =    9.5129980477182412E-006  alpha =   0.46788453280990572     
 delta_qm =   0.597840E-04 delta_en =   0.617608E-02 tol =   0.100000E-03
 Iteration #         15
  pAp =    1.4899065059976836E-005  rzold =    5.0656800055714379E-006  alpha =   0.33999985805681915     
 delta_qm =   0.428590E-04 delta_en =   0.317415E-02 tol =   0.100000E-03
 Iteration #         16
  pAp =    2.5973425611864194E-004  rzold =    1.6694003643424233E-005  alpha =    6.4273399638893655E-002
 delta_qm =   0.410259E-04 delta_en =   0.290843E-02 tol =   0.100000E-03
 Iteration #         17
  pAp =    6.6525297742166931E-006  rzold =    3.1496781163950883E-006  alpha =   0.47345569629802209     
 delta_qm =   0.242212E-04 delta_en =   0.101376E-02 tol =   0.100000E-03
 Iteration #         18
  pAp =    3.1666924780028081E-006  rzold =    1.2463990147817081E-006  alpha =   0.39359648069388659     
 delta_qm =   0.144421E-04 delta_en =   0.360419E-03 tol =   0.100000E-03
 Iteration #         19
  pAp =    4.0731239987061451E-006  rzold =    8.2828400857272713E-007  alpha =   0.20335349693155352     
 delta_qm =   0.956832E-05 delta_en =   0.158203E-03 tol =   0.100000E-03
 Iteration #         20
  pAp =    3.6619534387622009E-007  rzold =    1.5510798436227256E-007  alpha =   0.42356623850111419     
 delta_qm =   0.629988E-05 delta_en =   0.685817E-04 tol =   0.100000E-03
 Charges are converged, EXIT

%%%% ELECTRONS %%%%%%%%%%%%%%%%%%%%%%%%%%%%%%%%%%%%%%%%%%%%%%%%%%%%%%%%%%%%%%%%%
 number of electrons        =         24
 total electronic charge    =     24.0000000
 number of spin components  =  1

%%%% BOUNDARY %%%%%%%%%%%%%%%%%%%%%%%%%%%%%%%%%%%%%%%%%%%%%%%%%%%%%%%%%%%%%%%%%%
 boundary mode              = electronic           
 boundary is built as a function of a smooth density
 function type              =  2 
 using the modified SCCS function with parameters 
 rhomax                     =      0.0050000 
 rhomin                     =      0.0001000 
 volume of the QM region    =    716.7724828 
 surface of the QM region   =    412.3141151 

%%%% DIELECTRIC %%%%%%%%%%%%%%%%%%%%%%%%%%%%%%%%%%%%%%%%%%%%%%%%%%%%%%%%%%%%%%%%%
 dielectric build on homogeneous background
 environment bulk permitt.  =    100.0000000 
 dielectric flags
 need gradient              =  F 
 need factor depend. sqrt   =  T 
 need gradient of logarithm =  T 
