
     Program PWSCF v.6.7MaX starts on  1Oct2021 at 20:48:31 

     This program is part of the open-source Quantum ESPRESSO suite
     for quantum simulation of materials; please cite
         "P. Giannozzi et al., J. Phys.:Condens. Matter 21 395502 (2009);
         "P. Giannozzi et al., J. Phys.:Condens. Matter 29 465901 (2017);
          URL http://www.quantum-espresso.org", 
     in publications or presentations arising from this work. More details at
     http://www.quantum-espresso.org/quote

     Parallel version (MPI), running on     1 processors

     MPI processes distributed on     1 nodes
     Reading input from neutral.in

     Current dimensions of program PWSCF are:
     Max number of different atomic species (ntypx) = 10
     Max number of k-points (npk) =  40000
     Max angular momentum in pseudopotentials (lmaxx) =  3

     Reading input from environ.in

     ================================================================================

     Reading ENVIRON namelist

     Reading BOUNDARY namelist

     Checking boundary derivatives
     derivatives               = chain          ! SCCS default

     Reading ELECTROSTATIC namelist

     Setting up electrostatic problem
     problem                   = generalized    
     solver                    = cg             

     Checking PBC correction

     ================================================================================
 
     file H.pbe-rrkjus.UPF: wavefunction(s)  1S renormalized
     file O.pbe-rrkjus.UPF: wavefunction(s)  2S renormalized

     gamma-point specific algorithms are used

     Subspace diagonalization in iterative solution of the eigenvalue problem:
     a serial algorithm will be used

 
     G-vector sticks info
     --------------------
     sticks:   dense  smooth     PW     G-vecs:    dense   smooth      PW
     Sum        9549    3809    949               701475   177509   22119
 


     bravais-lattice index     =            1
     lattice parameter (alat)  =      20.0000  a.u.
     unit-cell volume          =    8000.0000 (a.u.)^3
     number of atoms/cell      =            3
     number of atomic types    =            2
     number of electrons       =         8.00
     number of Kohn-Sham states=            4
     kinetic-energy cutoff     =      30.0000  Ry
     charge density cutoff     =     300.0000  Ry
     scf convergence threshold =      5.0E-03
     mixing beta               =       0.7000
     number of iterations used =            8  plain     mixing
     Exchange-correlation= SLA  PW   PBE  PBE
                           (   1   4   3   4   0   0   0)
 

     Environ Module
     ==============

     Please cite
         O. Andreussi, I. Dabo and N. Marzari, J. Chem. Phys. 136, 064102 (2012)         
     in publications or presentations arising from this work.

     compensation onset threshold      =               0.1000E+03
     static permittivity               =                   100.00
     epsilon calculation mode          =               electronic

     Electrostatic Setup
     -------------------
     electrostatic problem to solve    = generalized             
     numerical solver adopted          = cg                      
     type of auxiliary density adopted = none                    
     type of core tool for poisson     = fft                     
     type of core tool for correction  = 1d-analytic             



     celldm(1)=  20.000000  celldm(2)=   0.000000  celldm(3)=   0.000000
     celldm(4)=   0.000000  celldm(5)=   0.000000  celldm(6)=   0.000000

     crystal axes: (cart. coord. in units of alat)
               a(1) = (   1.000000   0.000000   0.000000 )  
               a(2) = (   0.000000   1.000000   0.000000 )  
               a(3) = (   0.000000   0.000000   1.000000 )  

     reciprocal axes: (cart. coord. in units 2 pi/alat)
               b(1) = (  1.000000  0.000000  0.000000 )  
               b(2) = (  0.000000  1.000000  0.000000 )  
               b(3) = (  0.000000  0.000000  1.000000 )  


     PseudoPot. # 1 for H  read from file:
     /home/simplogic86/Work/QE1/Environ/tests/../..//pseudo/H.pbe-rrkjus.UPF
     MD5 check sum: 2d52a7f45632fd764c17cc6affed14c8
     Pseudo is Ultrasoft, Zval =  1.0
     Generated by new atomic code, or converted to UPF format
     Using radial grid of 1061 points,  2 beta functions with: 
                l(1) =   0
                l(2) =   0
     Q(r) pseudized with 0 coefficients 


     PseudoPot. # 2 for O  read from file:
     /home/simplogic86/Work/QE1/Environ/tests/../..//pseudo/O.pbe-rrkjus.UPF
     MD5 check sum: fadcf19ee70a498d3030e2e79cf929a4
     Pseudo is Ultrasoft, Zval =  6.0
     Generated by new atomic code, or converted to UPF format
     Using radial grid of 1269 points,  4 beta functions with: 
                l(1) =   0
                l(2) =   0
                l(3) =   1
                l(4) =   1
     Q(r) pseudized with 0 coefficients 


     atomic species   valence    mass     pseudopotential
        H              1.00     1.00000     H ( 1.00)
        O              6.00    16.00000     O ( 1.00)

     No symmetry found



   Cartesian axes

     site n.     atom                  positions (alat units)
         1           O   tau(   1) = (   0.5895000   0.6025000   0.5750000  )
         2           H   tau(   2) = (   0.6725000   0.5610000   0.5750000  )
         3           H   tau(   3) = (   0.5280000   0.5330000   0.5750000  )

     number of k points=     1
                       cart. coord. in units 2pi/alat
        k(    1) = (   0.0000000   0.0000000   0.0000000), wk =   2.0000000

     Dense  grid:   350738 G-vectors     FFT dimensions: ( 120, 120, 120)

     Smooth grid:    88755 G-vectors     FFT dimensions: (  72,  72,  72)

     Estimated max dynamical RAM per process >     530.91 MB

     Initial potential from superposition of free atoms

     starting charge    7.80759, renormalised to    8.00000

     negative rho (up, down):  7.936E-04 0.000E+00
     Starting wfcs are    6 randomized atomic wfcs

     total cpu time spent up to now is        3.5 secs

     Self-consistent Calculation

     iteration #  1     ecut=    30.00 Ry     beta= 0.70
     Davidson diagonalization with overlap
     ethr =  1.00E-02,  avg # of iterations =  2.0

     negative rho (up, down):  2.568E-04 0.000E+00

     add environment contribution to local potential
     Polarization accuracy = 6.0E-06, # of iterations =  12

     total cpu time spent up to now is        8.9 secs

     total energy              =     -34.06919233 Ry
     estimated scf accuracy    <       0.67469661 Ry
     electrostatic embedding   =       0.00000000 Ry
     correction to one-el term =       0.00000000 Ry

     iteration #  2     ecut=    30.00 Ry     beta= 0.70
     Davidson diagonalization with overlap
     ethr =  8.43E-03,  avg # of iterations =  2.0

     negative rho (up, down):  2.177E-03 0.000E+00

     add environment contribution to local potential
     Polarization accuracy = 4.8E-06, # of iterations =  14

     total cpu time spent up to now is       14.3 secs

     total energy              =     -34.24021977 Ry
     estimated scf accuracy    <       0.27747553 Ry
     electrostatic embedding   =      -0.03816575 Ry
     correction to one-el term =      -0.36789327 Ry

     iteration #  3     ecut=    30.00 Ry     beta= 0.70
     Davidson diagonalization with overlap
     ethr =  3.47E-03,  avg # of iterations =  2.0

     negative rho (up, down):  3.028E-04 0.000E+00

     add environment contribution to local potential
     Polarization accuracy = 5.5E-06, # of iterations =  14

     total cpu time spent up to now is       19.6 secs

     total energy              =     -34.29260681 Ry
     estimated scf accuracy    <       0.00750576 Ry
     electrostatic embedding   =      -0.02938654 Ry
     correction to one-el term =      -0.23152106 Ry

     iteration #  4     ecut=    30.00 Ry     beta= 0.70
     Davidson diagonalization with overlap
     ethr =  9.38E-05,  avg # of iterations =  2.0

     negative rho (up, down):  2.090E-04 0.000E+00

     the potential shift due to the Gaussian-smeared nuclei is    -0.0214 ev

     total cpu time spent up to now is       21.0 secs

     End of self-consistent calculation

          k = 0.0000 0.0000 0.0000 ( 11060 PWs)   bands (ev):

   -24.7330 -12.4717  -8.9521  -6.9905

     highest occupied level (ev):    -6.9905

!    total energy              =     -34.29533026 Ry
     estimated scf accuracy    <       0.00071018 Ry

     The total energy is the sum of the following terms:
     one-electron contribution =     -63.96418267 Ry
     hartree contribution      =      33.61095994 Ry
     xc contribution           =      -8.42571201 Ry
     ewald contribution        =       4.55735774 Ry
     electrostatic embedding   =      -0.03278798 Ry
     correction to one-el term =      -0.04096528 Ry

     WARNING: you are using the parabolic pbc correction;
              the potential shift above must be added to 
              band and Fermi energies.

     convergence has been achieved in   4 iterations

     Forces acting on atoms (cartesian axes, Ry/au):

     atom    1 type  2   force =     0.00213247   -0.01105356   -0.00005391
     atom    2 type  1   force =    -0.01364552    0.00306376    0.00002720
     atom    3 type  1   force =     0.01151305    0.00798980    0.00002671

     Total force =     0.022775     Total SCF correction =     0.033430
     SCF correction compared to forces is large: reduce conv_thr to get better values

     Writing output data file /home/simplogic86/Work/QE1/Environ/tests/../..//tempdir/pwscf.save/
 
     init_run     :      3.22s CPU      3.48s WALL (       1 calls)
     electrons    :     16.75s CPU     17.54s WALL (       1 calls)
     forces       :      0.64s CPU      0.71s WALL (       1 calls)

     Called by init_run:
     wfcinit      :      0.04s CPU      0.04s WALL (       1 calls)
     potinit      :      1.25s CPU      1.33s WALL (       1 calls)
     hinit0       :      1.36s CPU      1.39s WALL (       1 calls)

     Called by electrons:
     c_bands      :      0.24s CPU      0.24s WALL (       4 calls)
     sum_band     :      0.78s CPU      0.93s WALL (       4 calls)
     v_of_rho     :      2.00s CPU      2.24s WALL (       5 calls)
     newd         :      0.59s CPU      0.76s WALL (       5 calls)
     mix_rho      :      0.18s CPU      0.18s WALL (       4 calls)

     Called by c_bands:
     init_us_2    :      0.01s CPU      0.02s WALL (       9 calls)
     regterg      :      0.22s CPU      0.22s WALL (       4 calls)

     Called by *egterg:
     rdiaghg      :      0.00s CPU      0.00s WALL (      12 calls)
     h_psi        :      0.24s CPU      0.24s WALL (      13 calls)
     s_psi        :      0.00s CPU      0.00s WALL (      13 calls)
     g_psi        :      0.00s CPU      0.00s WALL (       8 calls)

     Called by h_psi:
     h_psi:calbec :      0.00s CPU      0.00s WALL (      13 calls)
     vloc_psi     :      0.23s CPU      0.23s WALL (      13 calls)
     add_vuspsi   :      0.00s CPU      0.00s WALL (      13 calls)

     General routines
     calbec       :      0.00s CPU      0.00s WALL (      21 calls)
     fft          :      0.94s CPU      0.96s WALL (      55 calls)
     ffts         :      0.03s CPU      0.03s WALL (       9 calls)
     fftw         :      0.19s CPU      0.19s WALL (      62 calls)
     interpolate  :      0.13s CPU      0.13s WALL (       5 calls)
 
     Parallel routines
 
     Environ routines
 
     PWSCF        :     20.65s CPU     21.80s WALL

 
   This run was terminated on:  20:48:52   1Oct2021            

=------------------------------------------------------------------------------=
   JOB DONE.
=------------------------------------------------------------------------------=

%%%% CELL %%%%%%%%%%%%%%%%%%%%%%%%%%%%%%%%%%%%%%%%%%%%%%%%%%%%%%%%%%%%%%%%%%%%%%

 cell label                 = system         

 cell volume                =    8000.000000

%%%% IONS %%%%%%%%%%%%%%%%%%%%%%%%%%%%%%%%%%%%%%%%%%%%%%%%%%%%%%%%%%%%%%%%%%%%%%

 total charge               =     -8.0000000
 center of charge           =     11.8437500    11.7725000    11.5000000
 dipole                     =      0.0000000     0.0000000     0.0000000
 quadrupole (pc)            =     -4.2453875    -2.0049500     0.0000000
 quadrupole (gauss)         =     -5.2453875    -3.0049500    -1.0000000

   i | type | coordinates
 -----------------------------------------------------------------------
   1 |    2 |                     11.7900000    12.0500000    11.5000000
   2 |    1 |                     13.4500000    11.2200000    11.5000000
   3 |    1 |                     10.5600000    10.6600000    11.5000000

%%%% SYSTEM %%%%%%%%%%%%%%%%%%%%%%%%%%%%%%%%%%%%%%%%%%%%%%%%%%%%%%%%%%%%%%%%%%%%

 system is built from all present ionic types

 system defined dimension   =              0
 system defined axis        =              3

 system center              =     11.8437500    11.7725000    11.5000000
 system width               =      1.6987261

%%%% IONS %%%%%%%%%%%%%%%%%%%%%%%%%%%%%%%%%%%%%%%%%%%%%%%%%%%%%%%%%%%%%%%%%%%%%%

 total charge               =     -8.0000000
 center of charge           =     11.8437500    11.7725000    11.5000000
 dipole                     =      0.0000000     0.0000000     0.0000000
 quadrupole (pc)            =     -4.2453875    -2.0049500     0.0000000
 quadrupole (gauss)         =     -5.2453875    -3.0049500    -1.0000000

   i | type | coordinates
 -----------------------------------------------------------------------
   1 |    2 |                     11.7900000    12.0500000    11.5000000
   2 |    1 |                     13.4500000    11.2200000    11.5000000
   3 |    1 |                     10.5600000    10.6600000    11.5000000

%%%% SYSTEM %%%%%%%%%%%%%%%%%%%%%%%%%%%%%%%%%%%%%%%%%%%%%%%%%%%%%%%%%%%%%%%%%%%%

 system is built from all present ionic types

 system defined dimension   =              0
 system defined axis        =              3

 system center              =     11.8437500    11.7725000    11.5000000
 system width               =      1.6987261

%%%% CHARGES %%%%%%%%%%%%%%%%%%%%%%%%%%%%%%%%%%%%%%%%%%%%%%%%%%%%%%%%%%%%%%%%%%%

 total number of charges    =              4

 total charge               =     -8.0000000

%%%% CHARGES %%%%%%%%%%%%%%%%%%%%%%%%%%%%%%%%%%%%%%%%%%%%%%%%%%%%%%%%%%%%%%%%%%%

 total number of charges    =              4

 total charge               =     -8.0000000

%%%% CELL %%%%%%%%%%%%%%%%%%%%%%%%%%%%%%%%%%%%%%%%%%%%%%%%%%%%%%%%%%%%%%%%%%%%%%

 cell label                 = system         

 cell volume                =    8000.000000

%%%% ELECTRONS %%%%%%%%%%%%%%%%%%%%%%%%%%%%%%%%%%%%%%%%%%%%%%%%%%%%%%%%%%%%%%%%%

 number of electrons        =              8

 total electronic charge    =      8.0000000

%%%% ELECTRONS %%%%%%%%%%%%%%%%%%%%%%%%%%%%%%%%%%%%%%%%%%%%%%%%%%%%%%%%%%%%%%%%%

 number of electrons        =              8

 total electronic charge    =      8.0000000

%%%% CHARGES %%%%%%%%%%%%%%%%%%%%%%%%%%%%%%%%%%%%%%%%%%%%%%%%%%%%%%%%%%%%%%%%%%%

 total number of charges    =             11

 total charge               =     -0.0000000

%%%% CHARGES %%%%%%%%%%%%%%%%%%%%%%%%%%%%%%%%%%%%%%%%%%%%%%%%%%%%%%%%%%%%%%%%%%%

 total number of charges    =             11

 total charge               =     -0.0000000

%%%% BOUNDARY %%%%%%%%%%%%%%%%%%%%%%%%%%%%%%%%%%%%%%%%%%%%%%%%%%%%%%%%%%%%%%%%%%

 boundary label             = solvent             
 boundary mode              = electronic          

 boundary is built as a type-2 function of a smooth density

 using the modified SCCS function:
 rhomax                     =      0.0050000
 rhomin                     =      0.0001000

 volume of the QM region    =    925.9497833

 surface of the QM region   =    444.2662167

%%%% DENSITY %%%%%%%%%%%%%%%%%%%%%%%%%%%%%%%%%%%%%%%%%%%%%%%%%%%%%%%%%%%%%%%%%%%

 density label              = dvtot                                             

 integral of density        =    0.000000000    

%%%% DENSITY %%%%%%%%%%%%%%%%%%%%%%%%%%%%%%%%%%%%%%%%%%%%%%%%%%%%%%%%%%%%%%%%%%%

 density label              = vreference                                        

 integral of density        =    0.000000000    

%%%% DENSITY %%%%%%%%%%%%%%%%%%%%%%%%%%%%%%%%%%%%%%%%%%%%%%%%%%%%%%%%%%%%%%%%%%%

 density label              = velectrostatic                                    

 integral of density        =    0.000000000    

%%%% CHARGES %%%%%%%%%%%%%%%%%%%%%%%%%%%%%%%%%%%%%%%%%%%%%%%%%%%%%%%%%%%%%%%%%%%

 total number of charges    =             11

 total charge               =     -0.0000000

%%%% DENSITY %%%%%%%%%%%%%%%%%%%%%%%%%%%%%%%%%%%%%%%%%%%%%%%%%%%%%%%%%%%%%%%%%%%

 density label              = vsoftcavity                                       

 integral of density        =    0.000000000    

%%%% ELECTRONS %%%%%%%%%%%%%%%%%%%%%%%%%%%%%%%%%%%%%%%%%%%%%%%%%%%%%%%%%%%%%%%%%

 number of electrons        =              8

 total electronic charge    =      8.0000000

%%%% ELECTRONS %%%%%%%%%%%%%%%%%%%%%%%%%%%%%%%%%%%%%%%%%%%%%%%%%%%%%%%%%%%%%%%%%

 number of electrons        =              8

 total electronic charge    =      8.0000000

%%%% CHARGES %%%%%%%%%%%%%%%%%%%%%%%%%%%%%%%%%%%%%%%%%%%%%%%%%%%%%%%%%%%%%%%%%%%

 total number of charges    =             11

 total charge               =      0.0000000

%%%% CHARGES %%%%%%%%%%%%%%%%%%%%%%%%%%%%%%%%%%%%%%%%%%%%%%%%%%%%%%%%%%%%%%%%%%%

 total number of charges    =             11

 total charge               =      0.0000000

%%%% BOUNDARY %%%%%%%%%%%%%%%%%%%%%%%%%%%%%%%%%%%%%%%%%%%%%%%%%%%%%%%%%%%%%%%%%%

 boundary label             = solvent             
 boundary mode              = electronic          

 boundary is built as a type-2 function of a smooth density

 using the modified SCCS function:
 rhomax                     =      0.0050000
 rhomin                     =      0.0001000

 volume of the QM region    =    308.5565240

 surface of the QM region   =    219.9269543

%%%% DENSITY %%%%%%%%%%%%%%%%%%%%%%%%%%%%%%%%%%%%%%%%%%%%%%%%%%%%%%%%%%%%%%%%%%%

 density label              = vreference                                        

 integral of density        =  -0.6769893288E-13

%%%% COMPUTE ELECTROSTATIC POTENTIAL %%%%%%%%%%%%%%%%%%%%%%%%%%%%%%%%%%%%%%%%%%%

   i |      alpha     |       pAp      |      rzold     |    delta_qm    |    delta_en    |       tol
 ---------------------------------------------------------------------------------------------------------
   1 |   0.958062E+00 |   0.273732E+02 |   0.262252E+02 |   0.131371E-01 |   0.298224E+03 |   0.100000E-04
   2 |   0.652661E-01 |   0.202717E+03 |   0.132305E+02 |   0.497054E-02 |   0.426924E+02 |   0.100000E-04
   3 |   0.153818E+00 |   0.498219E+01 |   0.766351E+00 |   0.915709E-03 |   0.144897E+01 |   0.100000E-04
   4 |   0.260158E+00 |   0.534681E-01 |   0.139101E-01 |   0.440235E-03 |   0.334898E+00 |   0.100000E-04
   5 |   0.597328E+00 |   0.135744E-02 |   0.810834E-03 |   0.110301E-03 |   0.210233E-01 |   0.100000E-04
   6 |   0.378082E+00 |   0.265335E-03 |   0.100318E-03 |   0.484391E-04 |   0.405449E-02 |   0.100000E-04
   7 |   0.861186E+00 |   0.476230E-05 |   0.410123E-05 |   0.310121E-04 |   0.166190E-02 |   0.100000E-04
   8 |   0.576350E+00 |   0.521181E-05 |   0.300383E-05 |   0.229442E-04 |   0.909685E-03 |   0.100000E-04
   9 |   0.368964E+00 |   0.718547E-05 |   0.265118E-05 |   0.176914E-04 |   0.540837E-03 |   0.100000E-04
  10 |   0.352658E+00 |   0.310468E-05 |   0.109489E-05 |   0.113771E-04 |   0.223669E-03 |   0.100000E-04
  11 |   0.685310E+00 |   0.394700E-06 |   0.270492E-06 |   0.309324E-05 |   0.165338E-04 |   0.100000E-04
  12 |   0.614348E+00 |   0.396112E-07 |   0.243351E-07 |   0.186428E-05 |   0.600573E-05 |   0.100000E-04

 Charges are converged, EXIT

%%%% DENSITY %%%%%%%%%%%%%%%%%%%%%%%%%%%%%%%%%%%%%%%%%%%%%%%%%%%%%%%%%%%%%%%%%%%

 density label              = velectrostatic                                    

 integral of density        =   -44.49113357    

%%%% CHARGES %%%%%%%%%%%%%%%%%%%%%%%%%%%%%%%%%%%%%%%%%%%%%%%%%%%%%%%%%%%%%%%%%%%

 total number of charges    =             11

 total charge               =      0.0000000

%%%% DENSITY %%%%%%%%%%%%%%%%%%%%%%%%%%%%%%%%%%%%%%%%%%%%%%%%%%%%%%%%%%%%%%%%%%%

 density label              = vsoftcavity                                       

 integral of density        =    15.51142789    

%%%% DENSITY %%%%%%%%%%%%%%%%%%%%%%%%%%%%%%%%%%%%%%%%%%%%%%%%%%%%%%%%%%%%%%%%%%%

 density label              = dvtot                                             

 integral of density        =   -28.97970568    

%%%% ELECTRONS %%%%%%%%%%%%%%%%%%%%%%%%%%%%%%%%%%%%%%%%%%%%%%%%%%%%%%%%%%%%%%%%%

 number of electrons        =              8

 total electronic charge    =      8.0000000

%%%% ELECTRONS %%%%%%%%%%%%%%%%%%%%%%%%%%%%%%%%%%%%%%%%%%%%%%%%%%%%%%%%%%%%%%%%%

 number of electrons        =              8

 total electronic charge    =      8.0000000

%%%% CHARGES %%%%%%%%%%%%%%%%%%%%%%%%%%%%%%%%%%%%%%%%%%%%%%%%%%%%%%%%%%%%%%%%%%%

 total number of charges    =             11

 total charge               =     -0.0000000

%%%% CHARGES %%%%%%%%%%%%%%%%%%%%%%%%%%%%%%%%%%%%%%%%%%%%%%%%%%%%%%%%%%%%%%%%%%%

 total number of charges    =             11

 total charge               =     -0.0000000

%%%% BOUNDARY %%%%%%%%%%%%%%%%%%%%%%%%%%%%%%%%%%%%%%%%%%%%%%%%%%%%%%%%%%%%%%%%%%

 boundary label             = solvent             
 boundary mode              = electronic          

 boundary is built as a type-2 function of a smooth density

 using the modified SCCS function:
 rhomax                     =      0.0050000
 rhomin                     =      0.0001000

 volume of the QM region    =    326.8736697

 surface of the QM region   =    229.0180177

%%%% DENSITY %%%%%%%%%%%%%%%%%%%%%%%%%%%%%%%%%%%%%%%%%%%%%%%%%%%%%%%%%%%%%%%%%%%

 density label              = vreference                                        

 integral of density        =  -0.1579641767E-12

%%%% COMPUTE ELECTROSTATIC POTENTIAL %%%%%%%%%%%%%%%%%%%%%%%%%%%%%%%%%%%%%%%%%%%

 Warning: Bad guess with residual norm =   0.430798E+03, reset to no guess

   i |      alpha     |       pAp      |      rzold     |    delta_qm    |    delta_en    |       tol
 ---------------------------------------------------------------------------------------------------------
   1 |   0.972822E+00 |   0.292076E+02 |   0.284138E+02 |   0.153994E-01 |   0.409780E+03 |   0.100000E-04
   2 |   0.629864E-01 |   0.149292E+03 |   0.940336E+01 |   0.566189E-02 |   0.553944E+02 |   0.100000E-04
   3 |   0.148250E+00 |   0.429938E+01 |   0.637384E+00 |   0.108489E-02 |   0.203384E+01 |   0.100000E-04
   4 |   0.243633E+00 |   0.552204E-01 |   0.134535E-01 |   0.493906E-03 |   0.421533E+00 |   0.100000E-04
   5 |   0.604566E+00 |   0.110284E-02 |   0.666742E-03 |   0.127472E-03 |   0.280785E-01 |   0.100000E-04
   6 |   0.345055E+00 |   0.252483E-03 |   0.871204E-04 |   0.757667E-04 |   0.991974E-02 |   0.100000E-04
   7 |   0.525413E+00 |   0.894812E-05 |   0.470146E-05 |   0.548382E-04 |   0.519650E-02 |   0.100000E-04
   8 |   0.709156E+00 |   0.365230E-05 |   0.259005E-05 |   0.287448E-04 |   0.142779E-02 |   0.100000E-04
   9 |   0.580463E+00 |   0.210684E-05 |   0.122294E-05 |   0.203675E-04 |   0.716833E-03 |   0.100000E-04
  10 |   0.249116E+00 |   0.371933E-05 |   0.926546E-06 |   0.161635E-04 |   0.451457E-03 |   0.100000E-04
  11 |   0.751793E+00 |   0.300656E-06 |   0.226031E-06 |   0.635617E-05 |   0.698127E-04 |   0.100000E-04
  12 |   0.439698E+00 |   0.108928E-06 |   0.478955E-07 |   0.472046E-05 |   0.385046E-04 |   0.100000E-04
  13 |   0.461321E+00 |   0.881280E-07 |   0.406553E-07 |   0.294545E-05 |   0.149916E-04 |   0.100000E-04
  14 |   0.536255E+00 |   0.450671E-07 |   0.241675E-07 |   0.167198E-05 |   0.483063E-05 |   0.100000E-04

 Charges are converged, EXIT

%%%% DENSITY %%%%%%%%%%%%%%%%%%%%%%%%%%%%%%%%%%%%%%%%%%%%%%%%%%%%%%%%%%%%%%%%%%%

 density label              = velectrostatic                                    

 integral of density        =   -48.08053160    

%%%% CHARGES %%%%%%%%%%%%%%%%%%%%%%%%%%%%%%%%%%%%%%%%%%%%%%%%%%%%%%%%%%%%%%%%%%%

 total number of charges    =             11

 total charge               =     -0.0000000

%%%% DENSITY %%%%%%%%%%%%%%%%%%%%%%%%%%%%%%%%%%%%%%%%%%%%%%%%%%%%%%%%%%%%%%%%%%%

 density label              = vsoftcavity                                       

 integral of density        =    11.46312622    

%%%% DENSITY %%%%%%%%%%%%%%%%%%%%%%%%%%%%%%%%%%%%%%%%%%%%%%%%%%%%%%%%%%%%%%%%%%%

 density label              = dvtot                                             

 integral of density        =   -36.61740538    

%%%% ELECTRONS %%%%%%%%%%%%%%%%%%%%%%%%%%%%%%%%%%%%%%%%%%%%%%%%%%%%%%%%%%%%%%%%%

 number of electrons        =              8

 total electronic charge    =      8.0000000

%%%% ELECTRONS %%%%%%%%%%%%%%%%%%%%%%%%%%%%%%%%%%%%%%%%%%%%%%%%%%%%%%%%%%%%%%%%%

 number of electrons        =              8

 total electronic charge    =      8.0000000

%%%% CHARGES %%%%%%%%%%%%%%%%%%%%%%%%%%%%%%%%%%%%%%%%%%%%%%%%%%%%%%%%%%%%%%%%%%%

 total number of charges    =             11

 total charge               =      0.0000000

%%%% CHARGES %%%%%%%%%%%%%%%%%%%%%%%%%%%%%%%%%%%%%%%%%%%%%%%%%%%%%%%%%%%%%%%%%%%

 total number of charges    =             11

 total charge               =      0.0000000

%%%% BOUNDARY %%%%%%%%%%%%%%%%%%%%%%%%%%%%%%%%%%%%%%%%%%%%%%%%%%%%%%%%%%%%%%%%%%

 boundary label             = solvent             
 boundary mode              = electronic          

 boundary is built as a type-2 function of a smooth density

 using the modified SCCS function:
 rhomax                     =      0.0050000
 rhomin                     =      0.0001000

 volume of the QM region    =    294.9449863

 surface of the QM region   =    214.0801880

%%%% DENSITY %%%%%%%%%%%%%%%%%%%%%%%%%%%%%%%%%%%%%%%%%%%%%%%%%%%%%%%%%%%%%%%%%%%

 density label              = vreference                                        

 integral of density        =  -0.8572566525E-13

%%%% COMPUTE ELECTROSTATIC POTENTIAL %%%%%%%%%%%%%%%%%%%%%%%%%%%%%%%%%%%%%%%%%%%

 Warning: Bad guess with residual norm =   0.307227E+03, reset to no guess

   i |      alpha     |       pAp      |      rzold     |    delta_qm    |    delta_en    |       tol
 ---------------------------------------------------------------------------------------------------------
   1 |   0.980561E+00 |   0.291150E+02 |   0.285490E+02 |   0.130983E-01 |   0.296465E+03 |   0.100000E-04
   2 |   0.681407E-01 |   0.786468E+02 |   0.535905E+01 |   0.599953E-02 |   0.621982E+02 |   0.100000E-04
   3 |   0.112069E+00 |   0.894273E+01 |   0.100220E+01 |   0.116868E-02 |   0.236013E+01 |   0.100000E-04
   4 |   0.216332E+00 |   0.907635E-01 |   0.196351E-01 |   0.507062E-03 |   0.444289E+00 |   0.100000E-04
   5 |   0.571940E+00 |   0.135567E-02 |   0.775359E-03 |   0.159812E-03 |   0.441332E-01 |   0.100000E-04
   6 |   0.323853E+00 |   0.545261E-03 |   0.176584E-03 |   0.950297E-04 |   0.156050E-01 |   0.100000E-04
   7 |   0.412770E+00 |   0.236679E-04 |   0.976943E-05 |   0.736894E-04 |   0.938326E-02 |   0.100000E-04
   8 |   0.715609E+00 |   0.595332E-05 |   0.426025E-05 |   0.347915E-04 |   0.209166E-02 |   0.100000E-04
   9 |   0.272855E+00 |   0.138683E-04 |   0.378402E-05 |   0.225642E-04 |   0.879797E-03 |   0.100000E-04
  10 |   0.387453E+00 |   0.493948E-05 |   0.191382E-05 |   0.146796E-04 |   0.372367E-03 |   0.100000E-04
  11 |   0.785268E+00 |   0.299497E-06 |   0.235185E-06 |   0.588283E-05 |   0.598022E-04 |   0.100000E-04
  12 |   0.432724E+00 |   0.125179E-06 |   0.541679E-07 |   0.412469E-05 |   0.293985E-04 |   0.100000E-04
  13 |   0.594198E+00 |   0.290627E-07 |   0.172690E-07 |   0.304510E-05 |   0.160231E-04 |   0.100000E-04
  14 |   0.470510E+00 |   0.466889E-07 |   0.219676E-07 |   0.178695E-05 |   0.551786E-05 |   0.100000E-04

 Charges are converged, EXIT

%%%% DENSITY %%%%%%%%%%%%%%%%%%%%%%%%%%%%%%%%%%%%%%%%%%%%%%%%%%%%%%%%%%%%%%%%%%%

 density label              = velectrostatic                                    

 integral of density        =   -43.13847405    

%%%% CHARGES %%%%%%%%%%%%%%%%%%%%%%%%%%%%%%%%%%%%%%%%%%%%%%%%%%%%%%%%%%%%%%%%%%%

 total number of charges    =             11

 total charge               =      0.0000000

%%%% DENSITY %%%%%%%%%%%%%%%%%%%%%%%%%%%%%%%%%%%%%%%%%%%%%%%%%%%%%%%%%%%%%%%%%%%

 density label              = vsoftcavity                                       

 integral of density        =    11.18752934    

%%%% DENSITY %%%%%%%%%%%%%%%%%%%%%%%%%%%%%%%%%%%%%%%%%%%%%%%%%%%%%%%%%%%%%%%%%%%

 density label              = dvtot                                             

 integral of density        =   -31.95094471    

%%%% ELECTRONS %%%%%%%%%%%%%%%%%%%%%%%%%%%%%%%%%%%%%%%%%%%%%%%%%%%%%%%%%%%%%%%%%

 number of electrons        =              8

 total electronic charge    =      8.0000000

%%%% ELECTRONS %%%%%%%%%%%%%%%%%%%%%%%%%%%%%%%%%%%%%%%%%%%%%%%%%%%%%%%%%%%%%%%%%

 number of electrons        =              8

 total electronic charge    =      8.0000000

%%%% CHARGES %%%%%%%%%%%%%%%%%%%%%%%%%%%%%%%%%%%%%%%%%%%%%%%%%%%%%%%%%%%%%%%%%%%

 total number of charges    =             11

 total charge               =      0.0000000

%%%% CHARGES %%%%%%%%%%%%%%%%%%%%%%%%%%%%%%%%%%%%%%%%%%%%%%%%%%%%%%%%%%%%%%%%%%%

 total number of charges    =             11

 total charge               =      0.0000000

%%%% BOUNDARY %%%%%%%%%%%%%%%%%%%%%%%%%%%%%%%%%%%%%%%%%%%%%%%%%%%%%%%%%%%%%%%%%%

 boundary label             = solvent             
 boundary mode              = electronic          

 boundary is built as a type-2 function of a smooth density

 using the modified SCCS function:
 rhomax                     =      0.0050000
 rhomin                     =      0.0001000

 volume of the QM region    =    294.9449863

 surface of the QM region   =    214.0801880

%%%% DENSITY %%%%%%%%%%%%%%%%%%%%%%%%%%%%%%%%%%%%%%%%%%%%%%%%%%%%%%%%%%%%%%%%%%%

 density label              = dvtot                                             

 integral of density        =   -31.95094471    

%%%% DENSITY %%%%%%%%%%%%%%%%%%%%%%%%%%%%%%%%%%%%%%%%%%%%%%%%%%%%%%%%%%%%%%%%%%%

 density label              = vreference                                        

 integral of density        =  -0.8572566525E-13

%%%% DENSITY %%%%%%%%%%%%%%%%%%%%%%%%%%%%%%%%%%%%%%%%%%%%%%%%%%%%%%%%%%%%%%%%%%%

 density label              = velectrostatic                                    

 integral of density        =   -43.13847405    

%%%% CHARGES %%%%%%%%%%%%%%%%%%%%%%%%%%%%%%%%%%%%%%%%%%%%%%%%%%%%%%%%%%%%%%%%%%%

 total number of charges    =             11

 total charge               =      0.0000000

%%%% DENSITY %%%%%%%%%%%%%%%%%%%%%%%%%%%%%%%%%%%%%%%%%%%%%%%%%%%%%%%%%%%%%%%%%%%

 density label              = vsoftcavity                                       

 integral of density        =    11.18752934    
