
     Program PWSCF v.6.1 (svn rev. 13369) starts on  1Feb2018 at 12:29:41 

     This program is part of the open-source Quantum ESPRESSO suite
     for quantum simulation of materials; please cite
         "P. Giannozzi et al., J. Phys.:Condens. Matter 21 395502 (2009);
          URL http://www.quantum-espresso.org", 
     in publications or presentations arising from this work. More details at
     http://www.quantum-espresso.org/quote

     Parallel version (MPI), running on     1 processors
     Reading input from charged.in

     Current dimensions of program PWSCF are:
     Max number of different atomic species (ntypx) = 10
     Max number of k-points (npk) =  40000
     Max angular momentum in pseudopotentials (lmaxx) =  3
               file C.pbe-rrkjus.UPF: wavefunction(s)  2S 2P renormalized
               file H.pbe-rrkjus.UPF: wavefunction(s)  1S renormalized
               file N.pbe-rrkjus.UPF: wavefunction(s)  2S renormalized
               file O.pbe-rrkjus.UPF: wavefunction(s)  2S renormalized

     gamma-point specific algorithms are used

     Subspace diagonalization in iterative solution of the eigenvalue problem:
     a serial algorithm will be used

 
     G-vector sticks info
     --------------------
     sticks:   dense  smooth     PW     G-vecs:    dense   smooth      PW
     Sum        9549    3809    949               701475   177509   22119
 


     bravais-lattice index     =            1
     lattice parameter (alat)  =      20.0000  a.u.
     unit-cell volume          =    8000.0000 (a.u.)^3
     number of atoms/cell      =           10
     number of atomic types    =            4
     number of electrons       =        24.00
     number of Kohn-Sham states=           12
     kinetic-energy cutoff     =      30.0000  Ry
     charge density cutoff     =     300.0000  Ry
     convergence threshold     =      5.0E-03
     mixing beta               =       0.7000
     number of iterations used =            8  plain     mixing
     Exchange-correlation      =  SLA  PW   PBE  PBE ( 1  4  3  4 0 0)
 

     Environ Module
     ==============

     Plese cite
         O. Andreussi, I. Dabo and N. Marzari, J. Chem. Phys. 136, 064102 (2012)         
     in publications or presentations arising from this work.

     compensation onset threshold      =               0.1000E+03 
     static permittivity               =                   100.00 
     epsilon calculation mode          =               electronic 

     Electrostatic Setup
     -------------------
     electrostatic problem to solve    = generalized              
     numerical solver adopted          = cg                       
     type of auxiliary density adopted = none                     
     type of core tool for poisson     = fft                      
     type of core tool for s(r) deriv  = analytic                 



     celldm(1)=  20.000000  celldm(2)=   0.000000  celldm(3)=   0.000000
     celldm(4)=   0.000000  celldm(5)=   0.000000  celldm(6)=   0.000000

     crystal axes: (cart. coord. in units of alat)
               a(1) = (   1.000000   0.000000   0.000000 )  
               a(2) = (   0.000000   1.000000   0.000000 )  
               a(3) = (   0.000000   0.000000   1.000000 )  

     reciprocal axes: (cart. coord. in units 2 pi/alat)
               b(1) = (  1.000000  0.000000  0.000000 )  
               b(2) = (  0.000000  1.000000  0.000000 )  
               b(3) = (  0.000000  0.000000  1.000000 )  


     PseudoPot. # 1 for C  read from file:
     /home/fnattino/Programs/qe-6.1/Environ/tests/../..//pseudo/C.pbe-rrkjus.UPF
     MD5 check sum: 00fb224312de0c5b6853bd333518df6f
     Pseudo is Ultrasoft, Zval =  4.0
     Generated by new atomic code, or converted to UPF format
     Using radial grid of  627 points,  4 beta functions with: 
                l(1) =   0
                l(2) =   0
                l(3) =   1
                l(4) =   1
     Q(r) pseudized with 0 coefficients 


     PseudoPot. # 2 for H  read from file:
     /home/fnattino/Programs/qe-6.1/Environ/tests/../..//pseudo/H.pbe-rrkjus.UPF
     MD5 check sum: 7cc9d459525c9a0585f487a71c3c9563
     Pseudo is Ultrasoft, Zval =  1.0
     Generated by new atomic code, or converted to UPF format
     Using radial grid of 1061 points,  2 beta functions with: 
                l(1) =   0
                l(2) =   0
     Q(r) pseudized with 0 coefficients 


     PseudoPot. # 3 for N  read from file:
     /home/fnattino/Programs/qe-6.1/Environ/tests/../..//pseudo/N.pbe-rrkjus.UPF
     MD5 check sum: 0c3fbe5807a93f9ba59d5a7019aa238b
     Pseudo is Ultrasoft, Zval =  5.0
     Generated by new atomic code, or converted to UPF format
     Using radial grid of 1257 points,  4 beta functions with: 
                l(1) =   0
                l(2) =   0
                l(3) =   1
                l(4) =   1
     Q(r) pseudized with 0 coefficients 


     PseudoPot. # 4 for O  read from file:
     /home/fnattino/Programs/qe-6.1/Environ/tests/../..//pseudo/O.pbe-rrkjus.UPF
     MD5 check sum: 390ba29e75625707450f3bd3f0eb6be9
     Pseudo is Ultrasoft, Zval =  6.0
     Generated by new atomic code, or converted to UPF format
     Using radial grid of 1269 points,  4 beta functions with: 
                l(1) =   0
                l(2) =   0
                l(3) =   1
                l(4) =   1
     Q(r) pseudized with 0 coefficients 


     atomic species   valence    mass     pseudopotential
        C              4.00    12.00000     C ( 1.00)
        H              1.00     1.00000     H ( 1.00)
        N              5.00    14.00000     N ( 1.00)
        O              6.00    16.00000     O ( 1.00)

     No symmetry found



   Cartesian axes

     site n.     atom                  positions (alat units)
         1           C   tau(   1) = (   0.0000000   0.0000000   0.0000000  )
         2           C   tau(   2) = (   0.0000000   0.0000000   0.1455089  )
         3           N   tau(   3) = (   0.1170969   0.0000000  -0.0545024  )
         4           H   tau(   4) = (   0.0476617  -0.0825466   0.1792090  )
         5           H   tau(   5) = (  -0.0953183  -0.0000030   0.1792090  )
         6           H   tau(   6) = (   0.0476566   0.0825496   0.1792090  )
         7           O   tau(   7) = (  -0.0984002  -0.0000019  -0.0641310  )
         8           H   tau(   8) = (   0.1263131  -0.0000015  -0.1475548  )
         9           H   tau(   9) = (   0.1944645   0.0000134  -0.0025716  )
        10           H   tau(  10) = (  -0.0770366  -0.0000045  -0.1522861  )

     number of k points=     1
                       cart. coord. in units 2pi/alat
        k(    1) = (   0.0000000   0.0000000   0.0000000), wk =   2.0000000

     Dense  grid:   350738 G-vectors     FFT dimensions: ( 120, 120, 120)

     Smooth grid:    88755 G-vectors     FFT dimensions: (  72,  72,  72)

     Estimated max dynamical RAM per process >     298.98MB

     Initial potential from superposition of free atoms
     Check: negative starting charge=   -0.000452

     starting charge   24.42266, renormalised to   24.00000

     negative rho (up, down):  4.438E-04 0.000E+00
     Starting wfc are   22 randomized atomic wfcs

     total cpu time spent up to now is        4.1 secs

     per-process dynamical memory:   648.2 Mb

     Self-consistent Calculation

     iteration #  1     ecut=    30.00 Ry     beta=0.70
     Davidson diagonalization with overlap
     ethr =  1.00E-02,  avg # of iterations =  2.0

     negative rho (up, down):  1.277E-04 0.000E+00

     add environment contribution to local potential
     polarization accuracy = 9.7E-06, # of iterations =  14

     total cpu time spent up to now is        9.3 secs

     total energy              =     -80.23412306 Ry
     Harris-Foulkes estimate   =     -83.01879009 Ry
     estimated scf accuracy    <       3.73442311 Ry
     electrostatic embedding   =       0.00490874 Ry
     correction to one-el term =       0.00000000 Ry

     iteration #  2     ecut=    30.00 Ry     beta=0.70
     Davidson diagonalization with overlap
     ethr =  1.00E-02,  avg # of iterations =  4.0

     negative rho (up, down):  6.916E-04 0.000E+00

     add environment contribution to local potential
     polarization accuracy = 8.9E-06, # of iterations =  18

     total cpu time spent up to now is       15.4 secs

     total energy              =     -80.94270381 Ry
     Harris-Foulkes estimate   =     -77.32338732 Ry
     estimated scf accuracy    <       1.54024443 Ry
     electrostatic embedding   =      -0.16630516 Ry
     correction to one-el term =      -4.27799130 Ry

     iteration #  3     ecut=    30.00 Ry     beta=0.70
     Davidson diagonalization with overlap
     ethr =  6.42E-03,  avg # of iterations =  3.0

     negative rho (up, down):  3.247E-04 0.000E+00

     add environment contribution to local potential
     polarization accuracy = 3.1E-06, # of iterations =  21

     total cpu time spent up to now is       22.0 secs

     total energy              =     -81.30068744 Ry
     Harris-Foulkes estimate   =     -77.76426355 Ry
     estimated scf accuracy    <       0.24314428 Ry
     electrostatic embedding   =      -0.13335191 Ry
     correction to one-el term =      -3.53265748 Ry

     iteration #  4     ecut=    30.00 Ry     beta=0.70
     Davidson diagonalization with overlap
     ethr =  1.01E-03,  avg # of iterations =  4.0

     negative rho (up, down):  8.632E-05 0.000E+00

     add environment contribution to local potential
     polarization accuracy = 6.4E-06, # of iterations =  22

     total cpu time spent up to now is       28.7 secs

     total energy              =     -81.36022810 Ry
     Harris-Foulkes estimate   =     -77.94968000 Ry
     estimated scf accuracy    <       0.02088258 Ry
     electrostatic embedding   =      -0.10933258 Ry
     correction to one-el term =      -3.31182392 Ry

     iteration #  5     ecut=    30.00 Ry     beta=0.70
     Davidson diagonalization with overlap
     ethr =  8.70E-05,  avg # of iterations =  4.0

     negative rho (up, down):  2.757E-04 0.000E+00

     total cpu time spent up to now is       30.6 secs

     End of self-consistent calculation

          k = 0.0000 0.0000 0.0000 ( 11060 PWs)   bands (ev):

   -29.3424 -23.6044 -19.0852 -16.4161 -15.1233 -13.8485 -12.1103 -11.3676
   -10.0087  -9.9943  -9.7582  -7.8447

     highest occupied level (ev):    -7.8447

!    total energy              =     -81.36606144 Ry
     Harris-Foulkes estimate   =     -78.16204905 Ry
     estimated scf accuracy    <       0.00247674 Ry

     The total energy is the sum of the following terms:

     one-electron contribution =    -242.66558870 Ry
     hartree contribution      =     123.14341507 Ry
     xc contribution           =     -22.94586895 Ry
     ewald contribution        =      64.30784006 Ry
     electrostatic embedding   =      -0.10403608 Ry
     correction to one-el term =      -3.10182283 Ry

     convergence has been achieved in   5 iterations

     Forces acting on atoms (cartesian axes, Ry/au):

     atom    1 type  1   force =     0.21838877    0.00001225    0.10004858
     atom    2 type  1   force =    -0.03322673   -0.00000642   -0.08128526
     atom    3 type  3   force =    -0.13986430    0.00000006    0.04565241
     atom    4 type  2   force =     0.01762099   -0.02832797    0.00831394
     atom    5 type  2   force =    -0.03266899   -0.00000319    0.01164211
     atom    6 type  2   force =     0.01762444    0.02833233    0.00831491
     atom    7 type  4   force =    -0.08247091   -0.00002753   -0.00937547
     atom    8 type  2   force =     0.00509633    0.00000609   -0.04798359
     atom    9 type  2   force =     0.03815610    0.00001014    0.03883478
     atom   10 type  2   force =    -0.00865570    0.00000424   -0.07416240

     Total force =     0.329219     Total SCF correction =     0.120964
     SCF correction compared to forces is large: reduce conv_thr to get better values

     Writing output data file pwscf.save
 
     init_run     :      3.81s CPU      3.97s WALL (       1 calls)
     electrons    :     25.03s CPU     26.57s WALL (       1 calls)
     forces       :      0.80s CPU      0.87s WALL (       1 calls)

     Called by init_run:
     wfcinit      :      0.09s CPU      0.10s WALL (       1 calls)
     potinit      :      1.54s CPU      1.59s WALL (       1 calls)

     Called by electrons:
     c_bands      :      0.85s CPU      0.86s WALL (       5 calls)
     sum_band     :      2.23s CPU      2.49s WALL (       5 calls)
     v_of_rho     :      3.20s CPU      3.32s WALL (       6 calls)
     newd         :      1.38s CPU      1.62s WALL (       6 calls)
     mix_rho      :      0.25s CPU      0.25s WALL (       5 calls)

     Called by c_bands:
     init_us_2    :      0.05s CPU      0.05s WALL (      11 calls)
     regterg      :      0.78s CPU      0.79s WALL (       5 calls)

     Called by sum_band:
     sum_band:bec :      0.00s CPU      0.00s WALL (       5 calls)
     addusdens    :      1.64s CPU      1.89s WALL (       5 calls)

     Called by *egterg:
     h_psi        :      0.76s CPU      0.77s WALL (      23 calls)
     s_psi        :      0.02s CPU      0.02s WALL (      23 calls)
     g_psi        :      0.00s CPU      0.01s WALL (      17 calls)
     rdiaghg      :      0.00s CPU      0.01s WALL (      22 calls)

     Called by h_psi:
     h_psi:pot    :      0.76s CPU      0.77s WALL (      23 calls)
     h_psi:calbec :      0.02s CPU      0.02s WALL (      23 calls)
     vloc_psi     :      0.71s CPU      0.72s WALL (      23 calls)
     add_vuspsi   :      0.04s CPU      0.02s WALL (      23 calls)

     General routines
     calbec       :      0.03s CPU      0.03s WALL (      32 calls)
     fft          :      6.68s CPU      7.27s WALL (     327 calls)
     ffts         :      0.03s CPU      0.04s WALL (      11 calls)
     fftw         :      0.60s CPU      0.55s WALL (     244 calls)
     interpolate  :      0.33s CPU      0.35s WALL (      11 calls)
     davcio       :      0.00s CPU      0.00s WALL (       1 calls)
 
     Parallel routines
     fft_scatter  :      1.83s CPU      2.01s WALL (     582 calls)
 
     Environ routines
     calc_eelect  :      0.01s CPU      0.01s WALL (      10 calls)
     calc_velect  :     14.21s CPU     14.99s WALL (       8 calls)
     dielectric   :      0.32s CPU      0.32s WALL (       7 calls)
     calc_felect  :      0.16s CPU      0.16s WALL (       1 calls)
 
     PWSCF        :    29.83s CPU        31.61s WALL

 
   This run was terminated on:  12:30:13   1Feb2018            

=------------------------------------------------------------------------------=
   JOB DONE.
=------------------------------------------------------------------------------=

%%%% IONS %%%%%%%%%%%%%%%%%%%%%%%%%%%%%%%%%%%%%%%%%%%%%%%%%%%%%%%%%%%%%%%%%%%%%%
 number of ions             =         10
 ionic center of charge     =      0.0095530    -0.0000002     0.0063981
 total ionic charge         =    -25.0000000
 ionic dipole               =      0.0000000     0.0000000     0.0000000
 ionic quadrupole (pc)      =    -79.0828058    -5.4513517  -105.8059629
 ionic quadrupole (gauss)   =    -82.2078058    -8.5763517  -108.9309629
 ion   1 type =  1 coordinates =      0.0000000     0.0000000     0.0000000
 ion   2 type =  1 coordinates =      0.0000000     0.0000000     2.9101782
 ion   3 type =  3 coordinates =      2.3419379     0.0000000    -1.0900479
 ion   4 type =  2 coordinates =      0.9532347    -1.6509323     3.5841800
 ion   5 type =  2 coordinates =     -1.9063663    -0.0000596     3.5841809
 ion   6 type =  2 coordinates =      0.9531315     1.6509919     3.5841800
 ion   7 type =  4 coordinates =     -1.9680045    -0.0000375    -1.2826193
 ion   8 type =  2 coordinates =      2.5262613    -0.0000303    -2.9510950
 ion   9 type =  2 coordinates =      3.8892907     0.0002681    -0.0514326
 ion  10 type =  2 coordinates =     -1.5407317    -0.0000890    -3.0457220

%%%% SYSTEM %%%%%%%%%%%%%%%%%%%%%%%%%%%%%%%%%%%%%%%%%%%%%%%%%%%%%%%%%%%%%%%%%%%%
 system is built from all present ionic types
 system defined dimension   =  0 
 system defined axis        =  3 
 system center              =      0.0095530    -0.0000002     0.0063981 
 system width               =      0.2021425 

%%%% ELECTRONS %%%%%%%%%%%%%%%%%%%%%%%%%%%%%%%%%%%%%%%%%%%%%%%%%%%%%%%%%%%%%%%%%
 number of electrons        =         24
 total electronic charge    =     24.0000000
 number of spin components  =  1

%%%% BOUNDARY %%%%%%%%%%%%%%%%%%%%%%%%%%%%%%%%%%%%%%%%%%%%%%%%%%%%%%%%%%%%%%%%%%
 boundary mode              = electronic           
 boundary is built as a function of a smooth density
 function type              =  2 
 using the modified SCCS function with parameters 
 rhomax                     =      0.0050000 
 rhomin                     =      0.0001000 
 volume of the QM region    =   2771.6247530 
 surface of the QM region   =    905.6008160 

%%%% DIELECTRIC %%%%%%%%%%%%%%%%%%%%%%%%%%%%%%%%%%%%%%%%%%%%%%%%%%%%%%%%%%%%%%%%%
 dielectric build on homogeneous background
 environment bulk permitt.  =    100.0000000 
 dielectric flags
 need gradient              =  F 
 need factor depend. sqrt   =  T 
 total dielectric charge    =      0.0000000

%%%% ELECTRONS %%%%%%%%%%%%%%%%%%%%%%%%%%%%%%%%%%%%%%%%%%%%%%%%%%%%%%%%%%%%%%%%%
 number of electrons        =         24
 total electronic charge    =     24.0000000
 number of spin components  =  1

%%%% BOUNDARY %%%%%%%%%%%%%%%%%%%%%%%%%%%%%%%%%%%%%%%%%%%%%%%%%%%%%%%%%%%%%%%%%%
 boundary mode              = electronic           
 boundary is built as a function of a smooth density
 function type              =  2 
 using the modified SCCS function with parameters 
 rhomax                     =      0.0050000 
 rhomin                     =      0.0001000 
 volume of the QM region    =    989.6663489 
 surface of the QM region   =    490.3846933 

%%%% DIELECTRIC %%%%%%%%%%%%%%%%%%%%%%%%%%%%%%%%%%%%%%%%%%%%%%%%%%%%%%%%%%%%%%%%%
 dielectric build on homogeneous background
 environment bulk permitt.  =    100.0000000 
 dielectric flags
 need gradient              =  F 
 need factor depend. sqrt   =  T 
 total dielectric charge    =      0.0000000

%%%% COMPUTE ELECTROSTATIC POTENTIAL %%%%%%%%%%%%%%%%%%%%%%%%%%%%%%%%%%%%%%%%%%%
 Iteration #          1
  pAp =    111.626264331000       rzold =    89.9132909445864       alpha = 
  0.805485084388120     
 delta_qm =   0.443631E-01 delta_en =   0.340086E+04 tol =   0.100000E-04
 Iteration #          2
  pAp =    3870.28270561792       rzold =    250.098140629123       alpha = 
  6.462012200454818E-002
 delta_qm =   0.406183E-02 delta_en =   0.285093E+02 tol =   0.100000E-04
 Iteration #          3
  pAp =    2.97178882973593       rzold =   0.569432698483693       alpha = 
  0.191612773016006     
 delta_qm =   0.137325E-02 delta_en =   0.325870E+01 tol =   0.100000E-04
 Iteration #          4
  pAp =   0.319436156920842       rzold =   6.401006768586992E-002  alpha = 
  0.200384541007773     
 delta_qm =   0.734935E-03 delta_en =   0.933344E+00 tol =   0.100000E-04
 Iteration #          5
  pAp =   2.008229335935380E-002  rzold =   6.490288014144694E-003  alpha = 
  0.323184603372089     
 delta_qm =   0.340289E-03 delta_en =   0.200097E+00 tol =   0.100000E-04
 Iteration #          6
  pAp =   3.312374989103896E-003  rzold =   1.388337890004513E-003  alpha = 
  0.419136690311776     
 delta_qm =   0.160394E-03 delta_en =   0.444548E-01 tol =   0.100000E-04
 Iteration #          7
  pAp =   1.528882411998151E-003  rzold =   3.158154851469690E-004  alpha = 
  0.206566236009098     
 delta_qm =   0.118320E-03 delta_en =   0.241913E-01 tol =   0.100000E-04
 Iteration #          8
  pAp =   2.582382451350833E-004  rzold =   8.724734556683285E-005  alpha = 
  0.337856019433505     
 delta_qm =   0.109213E-03 delta_en =   0.206107E-01 tol =   0.100000E-04
 Iteration #          9
  pAp =   3.528941766501467E-005  rzold =   2.581392621966078E-005  alpha = 
  0.731491986201072     
 delta_qm =   0.672417E-04 delta_en =   0.781305E-02 tol =   0.100000E-04
 Iteration #         10
  pAp =   2.749577856322719E-005  rzold =   2.117713196375241E-005  alpha = 
  0.770195756234183     
 delta_qm =   0.272655E-04 delta_en =   0.128461E-02 tol =   0.100000E-04
 Iteration #         11
  pAp =   1.111949330413950E-005  rzold =   5.755867093583264E-006  alpha = 
  0.517637534026888     
 delta_qm =   0.143037E-04 delta_en =   0.353542E-03 tol =   0.100000E-04
 Iteration #         12
  pAp =   2.720295692690614E-006  rzold =   1.011587695578723E-006  alpha = 
  0.371866815176321     
 delta_qm =   0.845151E-05 delta_en =   0.123427E-03 tol =   0.100000E-04
 Iteration #         13
  pAp =   1.125540855537814E-006  rzold =   3.671909650246889E-007  alpha = 
  0.326235127954760     
 delta_qm =   0.442366E-05 delta_en =   0.338149E-04 tol =   0.100000E-04
 Iteration #         14
  pAp =   1.687308668414335E-007  rzold =   7.379328690260380E-008  alpha = 
  0.437343138715406     
 delta_qm =   0.237121E-05 delta_en =   0.971596E-05 tol =   0.100000E-04
 Charges are converged, EXIT

%%%% ELECTRONS %%%%%%%%%%%%%%%%%%%%%%%%%%%%%%%%%%%%%%%%%%%%%%%%%%%%%%%%%%%%%%%%%
 number of electrons        =         23
 total electronic charge    =     24.0000000
 number of spin components  =  1

%%%% BOUNDARY %%%%%%%%%%%%%%%%%%%%%%%%%%%%%%%%%%%%%%%%%%%%%%%%%%%%%%%%%%%%%%%%%%
 boundary mode              = electronic           
 boundary is built as a function of a smooth density
 function type              =  2 
 using the modified SCCS function with parameters 
 rhomax                     =      0.0050000 
 rhomin                     =      0.0001000 
 volume of the QM region    =    837.2308034 
 surface of the QM region   =    448.8388378 

%%%% DIELECTRIC %%%%%%%%%%%%%%%%%%%%%%%%%%%%%%%%%%%%%%%%%%%%%%%%%%%%%%%%%%%%%%%%%
 dielectric build on homogeneous background
 environment bulk permitt.  =    100.0000000 
 dielectric flags
 need gradient              =  F 
 need factor depend. sqrt   =  T 
 total dielectric charge    =      0.9891309

%%%% COMPUTE ELECTROSTATIC POTENTIAL %%%%%%%%%%%%%%%%%%%%%%%%%%%%%%%%%%%%%%%%%%%
 Warning: bad guess with residual norm =   0.986773E+04, reset to no guess
 Iteration #          1
  pAp =    113.645274704578       rzold =    93.3573159830805       alpha = 
  0.821479962328075     
 delta_qm =   0.632718E-01 delta_en =   0.691773E+04 tol =   0.100000E-04
 Iteration #          2
  pAp =    5444.36071794131       rzold =    290.216238051421       alpha = 
  5.330584307080259E-002
 delta_qm =   0.745460E-02 delta_en =   0.960267E+02 tol =   0.100000E-04
 Iteration #          3
  pAp =    12.7486610255980       rzold =    1.64045137536972       alpha = 
  0.128676366253355     
 delta_qm =   0.217535E-02 delta_en =   0.817712E+01 tol =   0.100000E-04
 Iteration #          4
  pAp =   0.436796631658618       rzold =   8.675119317335543E-002  alpha = 
  0.198607743022058     
 delta_qm =   0.912711E-03 delta_en =   0.143950E+01 tol =   0.100000E-04
 Iteration #          5
  pAp =   2.021848520610068E-002  rzold =   6.399774410974083E-003  alpha = 
  0.316530855093092     
 delta_qm =   0.478060E-03 delta_en =   0.394920E+00 tol =   0.100000E-04
 Iteration #          6
  pAp =   8.687874931234801E-003  rzold =   2.371094622336214E-003  alpha = 
  0.272919976530925     
 delta_qm =   0.372923E-03 delta_en =   0.240316E+00 tol =   0.100000E-04
 Iteration #          7
  pAp =   5.448394200266771E-003  rzold =   1.135903208560908E-003  alpha = 
  0.208484035260387     
 delta_qm =   0.332665E-03 delta_en =   0.191231E+00 tol =   0.100000E-04
 Iteration #          8
  pAp =   4.197764942491790E-004  rzold =   1.900018435255976E-004  alpha = 
  0.452626209729630     
 delta_qm =   0.304569E-03 delta_en =   0.160293E+00 tol =   0.100000E-04
 Iteration #          9
  pAp =   1.385445591711734E-004  rzold =   1.153792349034113E-004  alpha = 
  0.832795135324361     
 delta_qm =   0.189302E-03 delta_en =   0.619236E-01 tol =   0.100000E-04
 Iteration #         10
  pAp =   1.824047694354692E-004  rzold =   1.221768084335287E-004  alpha = 
  0.669811479226436     
 delta_qm =   0.745699E-04 delta_en =   0.960884E-02 tol =   0.100000E-04
 Iteration #         11
  pAp =   6.532859029117294E-005  rzold =   2.772285728835389E-005  alpha = 
  0.424360255820486     
 delta_qm =   0.492988E-04 delta_en =   0.419968E-02 tol =   0.100000E-04
 Iteration #         12
  pAp =   2.141915583505872E-005  rzold =   7.499190767458698E-006  alpha = 
  0.350116074844746     
 delta_qm =   0.341611E-04 delta_en =   0.201654E-02 tol =   0.100000E-04
 Iteration #         13
  pAp =   5.627664148952495E-006  rzold =   2.238848022803104E-006  alpha = 
  0.397829003925160     
 delta_qm =   0.224740E-04 delta_en =   0.872776E-03 tol =   0.100000E-04
 Iteration #         14
  pAp =   3.231250116522355E-006  rzold =   1.161159396397179E-006  alpha = 
  0.359352991729059     
 delta_qm =   0.149792E-04 delta_en =   0.387721E-03 tol =   0.100000E-04
 Iteration #         15
  pAp =   5.936835214777029E-006  rzold =   7.466728712205432E-007  alpha = 
  0.125769512578359     
 delta_qm =   0.142404E-04 delta_en =   0.350420E-03 tol =   0.100000E-04
 Iteration #         16
  pAp =   5.644581393893282E-006  rzold =   9.561553550414722E-007  alpha = 
  0.169393492328042     
 delta_qm =   0.952180E-05 delta_en =   0.156669E-03 tol =   0.100000E-04
 Iteration #         17
  pAp =   6.262838865777374E-007  rzold =   2.686530134630996E-007  alpha = 
  0.428963636492591     
 delta_qm =   0.484757E-05 delta_en =   0.406062E-04 tol =   0.100000E-04
 Iteration #         18
  pAp =   3.092344904866115E-007  rzold =   1.153760160652011E-007  alpha = 
  0.373102029736868     
 delta_qm =   0.226691E-05 delta_en =   0.888002E-05 tol =   0.100000E-04
 Charges are converged, EXIT

%%%% ELECTRONS %%%%%%%%%%%%%%%%%%%%%%%%%%%%%%%%%%%%%%%%%%%%%%%%%%%%%%%%%%%%%%%%%
 number of electrons        =         23
 total electronic charge    =     24.0000000
 number of spin components  =  1

%%%% BOUNDARY %%%%%%%%%%%%%%%%%%%%%%%%%%%%%%%%%%%%%%%%%%%%%%%%%%%%%%%%%%%%%%%%%%
 boundary mode              = electronic           
 boundary is built as a function of a smooth density
 function type              =  2 
 using the modified SCCS function with parameters 
 rhomax                     =      0.0050000 
 rhomin                     =      0.0001000 
 volume of the QM region    =    756.7504724 
 surface of the QM region   =    424.0528822 

%%%% DIELECTRIC %%%%%%%%%%%%%%%%%%%%%%%%%%%%%%%%%%%%%%%%%%%%%%%%%%%%%%%%%%%%%%%%%
 dielectric build on homogeneous background
 environment bulk permitt.  =    100.0000000 
 dielectric flags
 need gradient              =  F 
 need factor depend. sqrt   =  T 
 total dielectric charge    =      0.9898409

%%%% COMPUTE ELECTROSTATIC POTENTIAL %%%%%%%%%%%%%%%%%%%%%%%%%%%%%%%%%%%%%%%%%%%
 Warning: bad guess with residual norm =   0.107915E+05, reset to no guess
 Iteration #          1
  pAp =    113.009649202661       rzold =    93.9069237566007       alpha = 
  0.830963766538171     
 delta_qm =   0.666886E-01 delta_en =   0.768505E+04 tol =   0.100000E-04
 Iteration #          2
  pAp =    6935.81146613619       rzold =    321.135715832870       alpha = 
  4.630110224316246E-002
 delta_qm =   0.779148E-02 delta_en =   0.104902E+03 tol =   0.100000E-04
 Iteration #          3
  pAp =    12.3910858743165       rzold =    1.49924322979783       alpha = 
  0.120993692159407     
 delta_qm =   0.240284E-02 delta_en =   0.997683E+01 tol =   0.100000E-04
 Iteration #          4
  pAp =   0.727128128521037       rzold =   0.122017470250290       alpha = 
  0.167807385609564     
 delta_qm =   0.101473E-02 delta_en =   0.177927E+01 tol =   0.100000E-04
 Iteration #          5
  pAp =   3.288862491368904E-002  rzold =   8.549100473560755E-003  alpha = 
  0.259940952107195     
 delta_qm =   0.597481E-03 delta_en =   0.616867E+00 tol =   0.100000E-04
 Iteration #          6
  pAp =   1.096657404676211E-002  rzold =   2.868981262505277E-003  alpha = 
  0.261611443124514     
 delta_qm =   0.454600E-03 delta_en =   0.357110E+00 tol =   0.100000E-04
 Iteration #          7
  pAp =   7.867633540075436E-003  rzold =   1.647927153316410E-003  alpha = 
  0.209456521446042     
 delta_qm =   0.405162E-03 delta_en =   0.283663E+00 tol =   0.100000E-04
 Iteration #          8
  pAp =   9.396391596463588E-004  rzold =   3.740101365679142E-004  alpha = 
  0.398035919138019     
 delta_qm =   0.403551E-03 delta_en =   0.281411E+00 tol =   0.100000E-04
 Iteration #          9
  pAp =   2.836312445375460E-004  rzold =   2.094077544639641E-004  alpha = 
  0.738309895319885     
 delta_qm =   0.315180E-03 delta_en =   0.171657E+00 tol =   0.100000E-04
 Iteration #         10
  pAp =   3.685261564420528E-004  rzold =   2.665757491677634E-004  alpha = 
  0.723356387349618     
 delta_qm =   0.134946E-03 delta_en =   0.314676E-01 tol =   0.100000E-04
 Iteration #         11
  pAp =   3.883004043926570E-004  rzold =   1.284191679380689E-004  alpha = 
  0.330721180007345     
 delta_qm =   0.912205E-04 delta_en =   0.143790E-01 tol =   0.100000E-04
 Iteration #         12
  pAp =   1.370270874457705E-004  rzold =   4.196728469028734E-005  alpha = 
  0.306269989916382     
 delta_qm =   0.639751E-04 delta_en =   0.707238E-02 tol =   0.100000E-04
 Iteration #         13
  pAp =   1.889988725016609E-005  rzold =   7.937916116939752E-006  alpha = 
  0.419998067283179     
 delta_qm =   0.448683E-04 delta_en =   0.347874E-02 tol =   0.100000E-04
 Iteration #         14
  pAp =   7.758448759097915E-006  rzold =   3.642281192803860E-006  alpha = 
  0.469459979165649     
 delta_qm =   0.301036E-04 delta_en =   0.156596E-02 tol =   0.100000E-04
 Iteration #         15
  pAp =   4.809412119470277E-006  rzold =   1.684417414190201E-006  alpha = 
  0.350233536313317     
 delta_qm =   0.261985E-04 delta_en =   0.118603E-02 tol =   0.100000E-04
 Iteration #         16
  pAp =   7.467206846520942E-005  rzold =   5.210869809745626E-006  alpha = 
  6.978338643683656E-002
 delta_qm =   0.191728E-04 delta_en =   0.635209E-03 tol =   0.100000E-04
 Iteration #         17
  pAp =   1.936265858664187E-006  rzold =   9.384683208860556E-007  alpha = 
  0.484679475541389     
 delta_qm =   0.104170E-04 delta_en =   0.187511E-03 tol =   0.100000E-04
 Iteration #         18
  pAp =   8.065215789405652E-007  rzold =   3.250467428426561E-007  alpha = 
  0.403022995701656     
 delta_qm =   0.565832E-05 delta_en =   0.553246E-04 tol =   0.100000E-04
 Iteration #         19
  pAp =   7.839507960763390E-007  rzold =   1.615184310996833E-007  alpha = 
  0.206031337563633     
 delta_qm =   0.387388E-05 delta_en =   0.259321E-04 tol =   0.100000E-04
 Iteration #         20
  pAp =   6.732868762002893E-008  rzold =   3.037280372984841E-008  alpha = 
  0.451112368345245     
 delta_qm =   0.244768E-05 delta_en =   0.103527E-04 tol =   0.100000E-04
 Iteration #         21
  pAp =   1.063715350192213E-008  rzold =   6.570201350462055E-009  alpha = 
  0.617665369713319     
 delta_qm =   0.132935E-05 delta_en =   0.305369E-05 tol =   0.100000E-04
 Charges are converged, EXIT

%%%% ELECTRONS %%%%%%%%%%%%%%%%%%%%%%%%%%%%%%%%%%%%%%%%%%%%%%%%%%%%%%%%%%%%%%%%%
 number of electrons        =         23
 total electronic charge    =     24.0000000
 number of spin components  =  1

%%%% BOUNDARY %%%%%%%%%%%%%%%%%%%%%%%%%%%%%%%%%%%%%%%%%%%%%%%%%%%%%%%%%%%%%%%%%%
 boundary mode              = electronic           
 boundary is built as a function of a smooth density
 function type              =  2 
 using the modified SCCS function with parameters 
 rhomax                     =      0.0050000 
 rhomin                     =      0.0001000 
 volume of the QM region    =    716.7729151 
 surface of the QM region   =    412.3136184 

%%%% DIELECTRIC %%%%%%%%%%%%%%%%%%%%%%%%%%%%%%%%%%%%%%%%%%%%%%%%%%%%%%%%%%%%%%%%%
 dielectric build on homogeneous background
 environment bulk permitt.  =    100.0000000 
 dielectric flags
 need gradient              =  F 
 need factor depend. sqrt   =  T 
 total dielectric charge    =      0.9896940

%%%% COMPUTE ELECTROSTATIC POTENTIAL %%%%%%%%%%%%%%%%%%%%%%%%%%%%%%%%%%%%%%%%%%%
 Warning: bad guess with residual norm =   0.144406E+05, reset to no guess
 Iteration #          1
  pAp =    111.915472843179       rzold =    93.7234364957428       alpha = 
  0.837448425268884     
 delta_qm =   0.773699E-01 delta_en =   0.103440E+05 tol =   0.100000E-04
 Iteration #          2
  pAp =    8012.73267327188       rzold =    337.983874327683       alpha = 
  4.218084991841770E-002
 delta_qm =   0.103813E-01 delta_en =   0.186229E+03 tol =   0.100000E-04
 Iteration #          3
  pAp =    19.3995765961577       rzold =    2.13648687089677       alpha = 
  0.110130592815099     
 delta_qm =   0.298704E-02 delta_en =   0.154179E+02 tol =   0.100000E-04
 Iteration #          4
  pAp =    1.04270384499408       rzold =   0.161570609849279       alpha = 
  0.154953499620207     
 delta_qm =   0.122910E-02 delta_en =   0.261045E+01 tol =   0.100000E-04
 Iteration #          5
  pAp =   4.917623156732275E-002  rzold =   1.129185271342336E-002  alpha = 
  0.229620130569881     
 delta_qm =   0.772796E-03 delta_en =   0.103199E+01 tol =   0.100000E-04
 Iteration #          6
  pAp =   1.663297118281973E-002  rzold =   3.779547951025912E-003  alpha = 
  0.227232279157065     
 delta_qm =   0.593796E-03 delta_en =   0.609282E+00 tol =   0.100000E-04
 Iteration #          7
  pAp =   9.740252453689112E-003  rzold =   2.161196060618585E-003  alpha = 
  0.221882961544804     
 delta_qm =   0.543380E-03 delta_en =   0.510212E+00 tol =   0.100000E-04
 Iteration #          8
  pAp =   1.504670268331188E-003  rzold =   5.538735234621902E-004  alpha = 
  0.368102922693146     
 delta_qm =   0.558942E-03 delta_en =   0.539856E+00 tol =   0.100000E-04
 Iteration #          9
  pAp =   4.158664567551774E-004  rzold =   2.812886515505258E-004  alpha = 
  0.676391776690280     
 delta_qm =   0.471786E-03 delta_en =   0.384621E+00 tol =   0.100000E-04
 Iteration #         10
  pAp =   4.735441751020698E-004  rzold =   3.713982406295177E-004  alpha = 
  0.784294813782610     
 delta_qm =   0.216985E-03 delta_en =   0.813584E-01 tol =   0.100000E-04
 Iteration #         11
  pAp =   7.991315938152218E-004  rzold =   2.686411137960782E-004  alpha = 
  0.336166303366294     
 delta_qm =   0.149867E-03 delta_en =   0.388113E-01 tol =   0.100000E-04
 Iteration #         12
  pAp =   3.385084378768888E-004  rzold =   9.765067536667176E-005  alpha = 
  0.288473386303552     
 delta_qm =   0.113420E-03 delta_en =   0.222291E-01 tol =   0.100000E-04
 Iteration #         13
  pAp =   5.375462490263468E-005  rzold =   1.987860099682617E-005  alpha = 
  0.369802617594898     
 delta_qm =   0.862794E-04 delta_en =   0.128635E-01 tol =   0.100000E-04
 Iteration #         14
  pAp =   2.092034107781871E-005  rzold =   9.537898229740284E-006  alpha = 
  0.455915044322727     
 delta_qm =   0.586241E-04 delta_en =   0.593876E-02 tol =   0.100000E-04
 Iteration #         15
  pAp =   8.421094604506552E-005  rzold =   7.604517066942447E-006  alpha = 
  9.030319007309201E-002
 delta_qm =   0.578643E-04 delta_en =   0.578583E-02 tol =   0.100000E-04
 Iteration #         16
  pAp =   4.137757073266942E-005  rzold =   9.507179687666765E-006  alpha = 
  0.229766501979789     
 delta_qm =   0.403135E-04 delta_en =   0.280831E-02 tol =   0.100000E-04
 Iteration #         17
  pAp =   6.667030841998258E-006  rzold =   3.069428918073376E-006  alpha = 
  0.460389188353207     
 delta_qm =   0.255515E-04 delta_en =   0.112818E-02 tol =   0.100000E-04
 Iteration #         18
  pAp =   7.116759880457952E-006  rzold =   1.818533232700076E-006  alpha = 
  0.255528254886556     
 delta_qm =   0.176976E-04 delta_en =   0.541219E-03 tol =   0.100000E-04
 Iteration #         19
  pAp =   2.929241894403374E-006  rzold =   9.358021835149469E-007  alpha = 
  0.319469069899245     
 delta_qm =   0.967272E-05 delta_en =   0.161674E-03 tol =   0.100000E-04
 Iteration #         20
  pAp =   3.203687429332784E-007  rzold =   1.474610862075507E-007  alpha = 
  0.460285497447114     
 delta_qm =   0.630183E-05 delta_en =   0.686241E-04 tol =   0.100000E-04
 Iteration #         21
  pAp =   6.398724996193375E-008  rzold =   3.521475747345993E-008  alpha = 
  0.550340223941634     
 delta_qm =   0.400255E-05 delta_en =   0.276832E-04 tol =   0.100000E-04
 Iteration #         22
  pAp =   3.593760294624401E-008  rzold =   2.142413680837832E-008  alpha = 
  0.596148186077543     
 delta_qm =   0.192023E-05 delta_en =   0.637164E-05 tol =   0.100000E-04
 Charges are converged, EXIT

%%%% ELECTRONS %%%%%%%%%%%%%%%%%%%%%%%%%%%%%%%%%%%%%%%%%%%%%%%%%%%%%%%%%%%%%%%%%
 number of electrons        =         23
 total electronic charge    =     24.0000000
 number of spin components  =  1

%%%% BOUNDARY %%%%%%%%%%%%%%%%%%%%%%%%%%%%%%%%%%%%%%%%%%%%%%%%%%%%%%%%%%%%%%%%%%
 boundary mode              = electronic           
 boundary is built as a function of a smooth density
 function type              =  2 
 using the modified SCCS function with parameters 
 rhomax                     =      0.0050000 
 rhomin                     =      0.0001000 
 volume of the QM region    =    716.7729151 
 surface of the QM region   =    412.3136184 

%%%% DIELECTRIC %%%%%%%%%%%%%%%%%%%%%%%%%%%%%%%%%%%%%%%%%%%%%%%%%%%%%%%%%%%%%%%%%
 dielectric build on homogeneous background
 environment bulk permitt.  =    100.0000000 
 dielectric flags
 need gradient              =  F 
 need factor depend. sqrt   =  T 
 total dielectric charge    =      0.9894595
