
     Program PWSCF v.6.7MaX starts on 22Jan2021 at 11:36:58 

     This program is part of the open-source Quantum ESPRESSO suite
     for quantum simulation of materials; please cite
         "P. Giannozzi et al., J. Phys.:Condens. Matter 21 395502 (2009);
         "P. Giannozzi et al., J. Phys.:Condens. Matter 29 465901 (2017);
          URL http://www.quantum-espresso.org", 
     in publications or presentations arising from this work. More details at
     http://www.quantum-espresso.org/quote

     Parallel version (MPI), running on     1 processors

     MPI processes distributed on     1 nodes
     Reading input from neutral.in

     Current dimensions of program PWSCF are:
     Max number of different atomic species (ntypx) = 10
     Max number of k-points (npk) =  40000
     Max angular momentum in pseudopotentials (lmaxx) =  3
     file H.pbe-rrkjus.UPF: wavefunction(s)  1S renormalized
     file O.pbe-rrkjus.UPF: wavefunction(s)  2S renormalized

     gamma-point specific algorithms are used

     Subspace diagonalization in iterative solution of the eigenvalue problem:
     a serial algorithm will be used


     G-vector sticks info
     --------------------
     sticks:   dense  smooth     PW     G-vecs:    dense   smooth      PW
     Sum        9549    3809    949               701475   177509   22119



     bravais-lattice index     =            1
     lattice parameter (alat)  =      20.0000  a.u.
     unit-cell volume          =    8000.0000 (a.u.)^3
     number of atoms/cell      =            3
     number of atomic types    =            2
     number of electrons       =         8.00
     number of Kohn-Sham states=            4
     kinetic-energy cutoff     =      30.0000  Ry
     charge density cutoff     =     300.0000  Ry
     scf convergence threshold =      5.0E-03
     mixing beta               =       0.7000
     number of iterations used =            8  plain     mixing
     Exchange-correlation= SLA  PW   PBE  PBE
                           (   1   4   3   4   0   0   0)


     Environ Module
     ==============

     Plese cite
         O. Andreussi, I. Dabo and N. Marzari, J. Chem. Phys. 136, 064102 (2012)         
     in publications or presentations arising from this work.

     compensation onset threshold      =               0.1000E+03 
     static permittivity               =                   100.00 
     epsilon calculation mode          =               electronic 

     Electrostatic Setup
     -------------------
     electrostatic problem to solve    = generalized              
     numerical solver adopted          = cg                       
     type of auxiliary density adopted = none                     
     type of core tool for poisson     = fft                      



     celldm(1)=  20.000000  celldm(2)=   0.000000  celldm(3)=   0.000000
     celldm(4)=   0.000000  celldm(5)=   0.000000  celldm(6)=   0.000000

     crystal axes: (cart. coord. in units of alat)
               a(1) = (   1.000000   0.000000   0.000000 )  
               a(2) = (   0.000000   1.000000   0.000000 )  
               a(3) = (   0.000000   0.000000   1.000000 )  

     reciprocal axes: (cart. coord. in units 2 pi/alat)
               b(1) = (  1.000000  0.000000  0.000000 )  
               b(2) = (  0.000000  1.000000  0.000000 )  
               b(3) = (  0.000000  0.000000  1.000000 )  


     PseudoPot. # 1 for H  read from file:
     /Users/gabrielmedrano/Desktop/q-e/Environ/tests/../..//pseudo/H.pbe-rrkjus.UPF
     MD5 check sum: 2d52a7f45632fd764c17cc6affed14c8
     Pseudo is Ultrasoft, Zval =  1.0
     Generated by new atomic code, or converted to UPF format
     Using radial grid of 1061 points,  2 beta functions with: 
                l(1) =   0
                l(2) =   0
     Q(r) pseudized with 0 coefficients 


     PseudoPot. # 2 for O  read from file:
     /Users/gabrielmedrano/Desktop/q-e/Environ/tests/../..//pseudo/O.pbe-rrkjus.UPF
     MD5 check sum: fadcf19ee70a498d3030e2e79cf929a4
     Pseudo is Ultrasoft, Zval =  6.0
     Generated by new atomic code, or converted to UPF format
     Using radial grid of 1269 points,  4 beta functions with: 
                l(1) =   0
                l(2) =   0
                l(3) =   1
                l(4) =   1
     Q(r) pseudized with 0 coefficients 


     atomic species   valence    mass     pseudopotential
        H              1.00     1.00000     H ( 1.00)
        O              6.00    16.00000     O ( 1.00)

     No symmetry found



   Cartesian axes

     site n.     atom                  positions (alat units)
         1           O   tau(   1) = (   0.5895000   0.6025000   0.5750000  )
         2           H   tau(   2) = (   0.6725000   0.5610000   0.5750000  )
         3           H   tau(   3) = (   0.5280000   0.5330000   0.5750000  )

     number of k points=     1
                       cart. coord. in units 2pi/alat
        k(    1) = (   0.0000000   0.0000000   0.0000000), wk =   2.0000000

     Dense  grid:   350738 G-vectors     FFT dimensions: ( 120, 120, 120)

     Smooth grid:    88755 G-vectors     FFT dimensions: (  72,  72,  72)

     Estimated max dynamical RAM per process >     530.91 MB

     Initial potential from superposition of free atoms

     starting charge    7.80759, renormalised to    8.00000

     negative rho (up, down):  7.936E-04 0.000E+00
     Starting wfcs are    6 randomized atomic wfcs

     total cpu time spent up to now is        4.3 secs

     Self-consistent Calculation

     iteration #  1     ecut=    30.00 Ry     beta= 0.70
     Davidson diagonalization with overlap
     ethr =  1.00E-02,  avg # of iterations =  2.0

     negative rho (up, down):  2.568E-04 0.000E+00

     add environment contribution to local potential
     polarization accuracy = 6.0E-06, # of iterations =  12

     total cpu time spent up to now is       11.3 secs

     total energy              =     -34.06919233 Ry
     estimated scf accuracy    <       0.67469661 Ry
     electrostatic embedding   =       0.00000000 Ry
     correction to one-el term =      -0.00000000 Ry

     iteration #  2     ecut=    30.00 Ry     beta= 0.70
     Davidson diagonalization with overlap
     ethr =  8.43E-03,  avg # of iterations =  2.0

     negative rho (up, down):  2.177E-03 0.000E+00

     add environment contribution to local potential
     polarization accuracy = 3.3E-06, # of iterations =  14

     total cpu time spent up to now is       19.3 secs

     total energy              =     -34.24021956 Ry
     estimated scf accuracy    <       0.27747587 Ry
     electrostatic embedding   =      -0.03816583 Ry
     correction to one-el term =      -0.36789752 Ry

     iteration #  3     ecut=    30.00 Ry     beta= 0.70
     Davidson diagonalization with overlap
     ethr =  3.47E-03,  avg # of iterations =  2.0

     negative rho (up, down):  3.027E-04 0.000E+00

     add environment contribution to local potential
     polarization accuracy = 5.0E-06, # of iterations =  15

     total cpu time spent up to now is       27.3 secs

     total energy              =     -34.29260769 Ry
     estimated scf accuracy    <       0.00750639 Ry
     electrostatic embedding   =      -0.02938544 Ry
     correction to one-el term =      -0.23145147 Ry

     iteration #  4     ecut=    30.00 Ry     beta= 0.70
     Davidson diagonalization with overlap
     ethr =  9.38E-05,  avg # of iterations =  2.0

     negative rho (up, down):  2.090E-04 0.000E+00

     the potential shift due to the Gaussian-smeared nuclei is    -0.0214 ev

     total cpu time spent up to now is       29.7 secs

     End of self-consistent calculation

          k = 0.0000 0.0000 0.0000 ( 11060 PWs)   bands (ev):

   -24.7329 -12.4716  -8.9520  -6.9904

     highest occupied level (ev):    -6.9904

!    total energy              =     -34.29533046 Ry
     estimated scf accuracy    <       0.00071001 Ry

     The total energy is the sum of the following terms:
     one-electron contribution =     -63.96415181 Ry
     hartree contribution      =      33.61094544 Ry
     xc contribution           =      -8.42570909 Ry
     ewald contribution        =       4.55735774 Ry
     electrostatic embedding   =      -0.03278924 Ry
     correction to one-el term =      -0.04098351 Ry

     WARNING: you are using the parabolic pbc correction;
              the potential shift above must be added to 
              band and Fermi energies.

     convergence has been achieved in   4 iterations
 forces lc
       1    0.0484   -0.2500   -0.0001
       2    0.0383   -0.0384   -0.0000
       3   -0.0212   -0.0499   -0.0000

     Forces acting on atoms (cartesian axes, Ry/au):

     atom    1 type  2   force =     0.00212892   -0.01105082   -0.00005370
     atom    2 type  1   force =    -0.01363561    0.00306261    0.00002710
     atom    3 type  1   force =     0.01150670    0.00798821    0.00002660

     Total force =     0.022764     Total SCF correction =     0.033430
     SCF correction compared to forces is large: reduce conv_thr to get better values

     Writing output data file /Users/gabrielmedrano/Desktop/q-e/Environ/tests/../..//tempdir/pwscf.save/

     init_run     :      3.78s CPU      4.22s WALL (       1 calls)
     electrons    :     24.50s CPU     25.41s WALL (       1 calls)
     forces       :      0.86s CPU      0.92s WALL (       1 calls)

     Called by init_run:
     wfcinit      :      0.04s CPU      0.05s WALL (       1 calls)
     potinit      :      1.75s CPU      1.91s WALL (       1 calls)
     hinit0       :      1.35s CPU      1.42s WALL (       1 calls)

     Called by electrons:
     c_bands      :      0.29s CPU      0.30s WALL (       4 calls)
     sum_band     :      2.26s CPU      1.52s WALL (       4 calls)
     v_of_rho     :      3.07s CPU      3.57s WALL (       5 calls)
     newd         :      1.01s CPU      1.30s WALL (       5 calls)
     mix_rho      :      0.30s CPU      0.35s WALL (       4 calls)

     Called by c_bands:
     init_us_2    :      0.02s CPU      0.02s WALL (       9 calls)
     regterg      :      0.27s CPU      0.28s WALL (       4 calls)

     Called by *egterg:
     rdiaghg      :      0.00s CPU      0.00s WALL (      12 calls)
     h_psi        :      0.27s CPU      0.29s WALL (      13 calls)
     s_psi        :      0.01s CPU      0.00s WALL (      13 calls)
     g_psi        :      0.00s CPU      0.00s WALL (       8 calls)

     Called by h_psi:
     h_psi:calbec :      0.00s CPU      0.00s WALL (      13 calls)
     vloc_psi     :      0.25s CPU      0.26s WALL (      13 calls)
     add_vuspsi   :      0.02s CPU      0.03s WALL (      13 calls)

     General routines
     calbec       :      0.01s CPU      0.01s WALL (      21 calls)
     fft          :      9.88s CPU     10.32s WALL (     206 calls)
     ffts         :      0.05s CPU      0.05s WALL (       9 calls)
     fftw         :      0.22s CPU      0.22s WALL (      62 calls)
     interpolate  :      0.27s CPU      0.31s WALL (       5 calls)

     Parallel routines
     fft_scatt_xy :      0.84s CPU      0.84s WALL (     149 calls)
     fft_scatt_yz :      1.13s CPU      1.14s WALL (     149 calls)

     Environ routines
     calc_eelect  :      0.02s CPU      0.02s WALL (       8 calls)
     calc_velect  :     12.98s CPU     13.58s WALL (       6 calls)
     dielectric   :      0.28s CPU      0.33s WALL (       6 calls)
     calc_felect  :      0.32s CPU      0.33s WALL (       1 calls)

     PWSCF        :     29.20s CPU     30.70s WALL


   This run was terminated on:  11:37:29  22Jan2021            

=------------------------------------------------------------------------------=
   JOB DONE.
=------------------------------------------------------------------------------=
 Calling electrostatic_initbase now
 electrolyte_distance:    0.0000000000000000     
 sc_distance:    0.0000000000000000     
 velectrostatic started
 vreference created

%%%% IONS %%%%%%%%%%%%%%%%%%%%%%%%%%%%%%%%%%%%%%%%%%%%%%%%%%%%%%%%%%%%%%%%%%%%%%
 number of ions             =          3
 ionic center of charge     =      0.5921875     0.5886250     0.5750000
 total ionic charge         =     -8.0000000
 ionic dipole               =      0.0000000     0.0000000     0.0000000
 ionic quadrupole (pc)      =     -4.2453875    -2.0049500     0.0000000
 ionic quadrupole (gauss)   =     -5.2453875    -3.0049500    -1.0000000
 ion   1 type =  2 coordinates =     11.7900000    12.0500000    11.5000000
 ion   2 type =  1 coordinates =     13.4500000    11.2200000    11.5000000
 ion   3 type =  1 coordinates =     10.5600000    10.6600000    11.5000000

%%%% SYSTEM %%%%%%%%%%%%%%%%%%%%%%%%%%%%%%%%%%%%%%%%%%%%%%%%%%%%%%%%%%%%%%%%%%%%
 system is built from all present ionic types
 system defined dimension   =  0 
 system defined axis        =  3 
 system center              =      0.5921875     0.5886250     0.5750000 
 system width               =      0.0849363 

%%%% IONS %%%%%%%%%%%%%%%%%%%%%%%%%%%%%%%%%%%%%%%%%%%%%%%%%%%%%%%%%%%%%%%%%%%%%%
 number of ions             =          3
 ionic center of charge     =      0.5921875     0.5886250     0.5750000
 total ionic charge         =     -8.0000000
 ionic dipole               =      0.0000000     0.0000000     0.0000000
 ionic quadrupole (pc)      =     -4.2453875    -2.0049500     0.0000000
 ionic quadrupole (gauss)   =     -5.2453875    -3.0049500    -1.0000000
 ion   1 type =  2 coordinates =     11.7900000    12.0500000    11.5000000
 ion   2 type =  1 coordinates =     13.4500000    11.2200000    11.5000000
 ion   3 type =  1 coordinates =     10.5600000    10.6600000    11.5000000

%%%% SYSTEM %%%%%%%%%%%%%%%%%%%%%%%%%%%%%%%%%%%%%%%%%%%%%%%%%%%%%%%%%%%%%%%%%%%%
 system is built from all present ionic types
 system defined dimension   =  0 
 system defined axis        =  3 
 system center              =      0.5921875     0.5886250     0.5750000 
 system width               =      0.0849363 

%%%% ELECTRONS %%%%%%%%%%%%%%%%%%%%%%%%%%%%%%%%%%%%%%%%%%%%%%%%%%%%%%%%%%%%%%%%%
 number of electrons        =          8
 total electronic charge    =      8.0000000

%%%% ELECTRONS %%%%%%%%%%%%%%%%%%%%%%%%%%%%%%%%%%%%%%%%%%%%%%%%%%%%%%%%%%%%%%%%%
 number of electrons        =          8
 total electronic charge    =      8.0000000

%%%% BOUNDARY %%%%%%%%%%%%%%%%%%%%%%%%%%%%%%%%%%%%%%%%%%%%%%%%%%%%%%%%%%%%%%%%%%
 boundary label             = solvent              
 boundary mode              = electronic           
 boundary is built as a function of a smooth density
 function type              =  2 
 using the modified SCCS function with parameters 
 rhomax                     =      0.0050000 
 rhomin                     =      0.0001000 
 volume of the QM region    =    925.9497833 
 surface of the QM region   =    444.2662167 

%%%% DIELECTRIC %%%%%%%%%%%%%%%%%%%%%%%%%%%%%%%%%%%%%%%%%%%%%%%%%%%%%%%%%%%%%%%%%
 dielectric build on homogeneous background
 environment bulk permitt.  =    100.0000000 
 dielectric flags
 need gradient              =  F 
 need factor depend. sqrt   =  T 
 total dielectric charge    =      0.0000000

%%%% DENSITY %%%%%%%%%%%%%%%%%%%%%%%%%%%%%%%%%%%%%%%%%%%%%%%%%%%%%%%%%%%%%%%%%%%
 density label              = dvtot                                                                           
 integral of density        =      0.000000000    

%%%% DENSITY %%%%%%%%%%%%%%%%%%%%%%%%%%%%%%%%%%%%%%%%%%%%%%%%%%%%%%%%%%%%%%%%%%%
 density label              = vreference                                                                      
 integral of density        =      0.000000000    

%%%% DENSITY %%%%%%%%%%%%%%%%%%%%%%%%%%%%%%%%%%%%%%%%%%%%%%%%%%%%%%%%%%%%%%%%%%%
 density label              = velectrostatic                                                                  
 integral of density        =      0.000000000    

%%%% CHARGES %%%%%%%%%%%%%%%%%%%%%%%%%%%%%%%%%%%%%%%%%%%%%%%%%%%%%%%%%%%%%%%%%%%
 total number of charges    =         11
 total charge               =     -0.0000000

%%%% DENSITY %%%%%%%%%%%%%%%%%%%%%%%%%%%%%%%%%%%%%%%%%%%%%%%%%%%%%%%%%%%%%%%%%%%
 density label              = vsoftcavity                                                                     
 integral of density        =      0.000000000    

%%%% ELECTRONS %%%%%%%%%%%%%%%%%%%%%%%%%%%%%%%%%%%%%%%%%%%%%%%%%%%%%%%%%%%%%%%%%
 number of electrons        =          8
 total electronic charge    =      8.0000000

%%%% ELECTRONS %%%%%%%%%%%%%%%%%%%%%%%%%%%%%%%%%%%%%%%%%%%%%%%%%%%%%%%%%%%%%%%%%
 number of electrons        =          8
 total electronic charge    =      8.0000000

%%%% BOUNDARY %%%%%%%%%%%%%%%%%%%%%%%%%%%%%%%%%%%%%%%%%%%%%%%%%%%%%%%%%%%%%%%%%%
 boundary label             = solvent              
 boundary mode              = electronic           
 boundary is built as a function of a smooth density
 function type              =  2 
 using the modified SCCS function with parameters 
 rhomax                     =      0.0050000 
 rhomin                     =      0.0001000 
 volume of the QM region    =    308.5565240 
 surface of the QM region   =    219.9269543 

%%%% DIELECTRIC %%%%%%%%%%%%%%%%%%%%%%%%%%%%%%%%%%%%%%%%%%%%%%%%%%%%%%%%%%%%%%%%%
 dielectric build on homogeneous background
 environment bulk permitt.  =    100.0000000 
 dielectric flags
 need gradient              =  F 
 need factor depend. sqrt   =  T 
 total dielectric charge    =      0.0000000

%%%% DENSITY %%%%%%%%%%%%%%%%%%%%%%%%%%%%%%%%%%%%%%%%%%%%%%%%%%%%%%%%%%%%%%%%%%%
 density label              = vreference                                                                      
 integral of density        =     0.2182786006E-12

%%%% COMPUTE ELECTROSTATIC POTENTIAL %%%%%%%%%%%%%%%%%%%%%%%%%%%%%%%%%%%%%%%%%%%
 Iteration #          1
  pAp =    27.373188994324675       rzold =    26.225214160161926       alpha =   0.95806207181776448     
 delta_qm =   0.131371E-01 delta_en =   0.298224E+03 tol =   0.100000E-04
 Iteration #          2
  pAp =    202.71675014487096       rzold =    13.230539238309383       alpha =    6.5266137252369211E-002
 delta_qm =   0.497054E-02 delta_en =   0.426924E+02 tol =   0.100000E-04
 Iteration #          3
  pAp =    4.9821920181672734       rzold =   0.76635125186184516       alpha =   0.15381808831682720     
 delta_qm =   0.915709E-03 delta_en =   0.144897E+01 tol =   0.100000E-04
 Iteration #          4
  pAp =    5.3468083772122164E-002  rzold =    1.3910124762006648E-002  alpha =   0.26015753288056448     
 delta_qm =   0.440235E-03 delta_en =   0.334898E+00 tol =   0.100000E-04
 Iteration #          5
  pAp =    1.3574365082154602E-003  rzold =    8.1083434580476619E-004  alpha =   0.59732763992823590     
 delta_qm =   0.110301E-03 delta_en =   0.210233E-01 tol =   0.100000E-04
 Iteration #          6
  pAp =    2.6533535173749927E-004  rzold =    1.0031843874140186E-004  alpha =   0.37808169203419445     
 delta_qm =   0.484391E-04 delta_en =   0.405449E-02 tol =   0.100000E-04
 Iteration #          7
  pAp =    4.7623047617771128E-006  rzold =    4.1012283768442913E-006  alpha =   0.86118561956834261     
 delta_qm =   0.310121E-04 delta_en =   0.166190E-02 tol =   0.100000E-04
 Iteration #          8
  pAp =    5.2118072375391904E-006  rzold =    3.0038271134904858E-006  alpha =   0.57635038607237021     
 delta_qm =   0.229443E-04 delta_en =   0.909686E-03 tol =   0.100000E-04
 Iteration #          9
  pAp =    7.1854722837074305E-006  rzold =    2.6511803061356376E-006  alpha =   0.36896395970338769     
 delta_qm =   0.176913E-04 delta_en =   0.540834E-03 tol =   0.100000E-04
 Iteration #         10
  pAp =    3.1046811945710746E-006  rzold =    1.0948898683282763E-006  alpha =   0.35265774477676770     
 delta_qm =   0.113772E-04 delta_en =   0.223675E-03 tol =   0.100000E-04
 Iteration #         11
  pAp =    3.9470067722346622E-007  rzold =    2.7049197883798013E-007  alpha =   0.68530913283646755     
 delta_qm =   0.309298E-05 delta_en =   0.165310E-04 tol =   0.100000E-04
 Iteration #         12
  pAp =    3.9638588280931880E-008  rzold =    2.4336647934879930E-008  alpha =   0.61396353882227084     
 delta_qm =   0.186438E-05 delta_en =   0.600638E-05 tol =   0.100000E-04
 Charges are converged, EXIT

%%%% DENSITY %%%%%%%%%%%%%%%%%%%%%%%%%%%%%%%%%%%%%%%%%%%%%%%%%%%%%%%%%%%%%%%%%%%
 density label              = velectrostatic                                                                  
 integral of density        =     -44.49087612    

%%%% CHARGES %%%%%%%%%%%%%%%%%%%%%%%%%%%%%%%%%%%%%%%%%%%%%%%%%%%%%%%%%%%%%%%%%%%
 total number of charges    =         11
 total charge               =      0.0000000

%%%% DENSITY %%%%%%%%%%%%%%%%%%%%%%%%%%%%%%%%%%%%%%%%%%%%%%%%%%%%%%%%%%%%%%%%%%%
 density label              = vsoftcavity                                                                     
 integral of density        =      15.51114362    

%%%% DENSITY %%%%%%%%%%%%%%%%%%%%%%%%%%%%%%%%%%%%%%%%%%%%%%%%%%%%%%%%%%%%%%%%%%%
 density label              = dvtot                                                                           
 integral of density        =     -28.97973250    

%%%% ELECTRONS %%%%%%%%%%%%%%%%%%%%%%%%%%%%%%%%%%%%%%%%%%%%%%%%%%%%%%%%%%%%%%%%%
 number of electrons        =          8
 total electronic charge    =      8.0000000

%%%% ELECTRONS %%%%%%%%%%%%%%%%%%%%%%%%%%%%%%%%%%%%%%%%%%%%%%%%%%%%%%%%%%%%%%%%%
 number of electrons        =          8
 total electronic charge    =      8.0000000

%%%% BOUNDARY %%%%%%%%%%%%%%%%%%%%%%%%%%%%%%%%%%%%%%%%%%%%%%%%%%%%%%%%%%%%%%%%%%
 boundary label             = solvent              
 boundary mode              = electronic           
 boundary is built as a function of a smooth density
 function type              =  2 
 using the modified SCCS function with parameters 
 rhomax                     =      0.0050000 
 rhomin                     =      0.0001000 
 volume of the QM region    =    326.8737946 
 surface of the QM region   =    229.0180757 

%%%% DIELECTRIC %%%%%%%%%%%%%%%%%%%%%%%%%%%%%%%%%%%%%%%%%%%%%%%%%%%%%%%%%%%%%%%%%
 dielectric build on homogeneous background
 environment bulk permitt.  =    100.0000000 
 dielectric flags
 need gradient              =  F 
 need factor depend. sqrt   =  T 
 total dielectric charge    =     -0.0000336

%%%% DENSITY %%%%%%%%%%%%%%%%%%%%%%%%%%%%%%%%%%%%%%%%%%%%%%%%%%%%%%%%%%%%%%%%%%%
 density label              = vreference                                                                      
 integral of density        =     0.7594349371E-12

%%%% COMPUTE ELECTROSTATIC POTENTIAL %%%%%%%%%%%%%%%%%%%%%%%%%%%%%%%%%%%%%%%%%%%
 Warning: bad guess with residual norm =   0.430797E+03, reset to no guess
 Iteration #          1
  pAp =    29.207573449379311       rzold =    28.413768519710974       alpha =   0.97282194869614524     
 delta_qm =   0.153994E-01 delta_en =   0.409780E+03 tol =   0.100000E-04
 Iteration #          2
  pAp =    149.29164896768509       rzold =    9.4033516489183402       alpha =    6.2986454459711558E-002
 delta_qm =   0.566188E-02 delta_en =   0.553943E+02 tol =   0.100000E-04
 Iteration #          3
  pAp =    4.2993657729982031       rzold =   0.63738230192788214       alpha =   0.14825030843639936     
 delta_qm =   0.108489E-02 delta_en =   0.203384E+01 tol =   0.100000E-04
 Iteration #          4
  pAp =    5.5220285110169520E-002  rzold =    1.3453473391346664E-002  alpha =   0.24363281291477859     
 delta_qm =   0.493906E-03 delta_en =   0.421534E+00 tol =   0.100000E-04
 Iteration #          5
  pAp =    1.1028442751505106E-003  rzold =    6.6674175843140318E-004  alpha =   0.60456564308719796     
 delta_qm =   0.127472E-03 delta_en =   0.280784E-01 tol =   0.100000E-04
 Iteration #          6
  pAp =    2.5248202224012830E-004  rzold =    8.7120109469362997E-005  alpha =   0.34505470407911099     
 delta_qm =   0.757666E-04 delta_en =   0.991972E-02 tol =   0.100000E-04
 Iteration #          7
  pAp =    8.9480667096978630E-006  rzold =    4.7014372845608092E-006  alpha =   0.52541374992940304     
 delta_qm =   0.548382E-04 delta_en =   0.519649E-02 tol =   0.100000E-04
 Iteration #          8
  pAp =    3.6523129869522510E-006  rzold =    2.5900563303612030E-006  alpha =   0.70915508600004451     
 delta_qm =   0.287449E-04 delta_en =   0.142779E-02 tol =   0.100000E-04
 Iteration #          9
  pAp =    2.1068763232888927E-006  rzold =    1.2229447538751940E-006  alpha =   0.58045398315841490     
 delta_qm =   0.203676E-04 delta_en =   0.716845E-03 tol =   0.100000E-04
 Iteration #         10
  pAp =    3.7194094021231179E-006  rzold =    9.2657216499418330E-007  alpha =   0.24911808967984977     
 delta_qm =   0.161634E-04 delta_en =   0.451449E-03 tol =   0.100000E-04
 Iteration #         11
  pAp =    3.0065077185941935E-007  rzold =    2.2602919106890083E-007  alpha =   0.75179980304387628     
 delta_qm =   0.635745E-05 delta_en =   0.698408E-04 tol =   0.100000E-04
 Iteration #         12
  pAp =    1.0892584669651838E-007  rzold =    4.7894953307812840E-008  alpha =   0.43970237331507211     
 delta_qm =   0.471303E-05 delta_en =   0.383834E-04 tol =   0.100000E-04
 Iteration #         13
  pAp =    8.8163903159181367E-008  rzold =    4.0657228858295307E-008  alpha =   0.46115504646939254     
 delta_qm =   0.298849E-05 delta_en =   0.154329E-04 tol =   0.100000E-04
 Iteration #         14
  pAp =    4.6604899814605810E-008  rzold =    2.4254348724459195E-008  alpha =   0.52042486564595014     
 delta_qm =   0.138911E-05 delta_en =   0.333440E-05 tol =   0.100000E-04
 Charges are converged, EXIT

%%%% DENSITY %%%%%%%%%%%%%%%%%%%%%%%%%%%%%%%%%%%%%%%%%%%%%%%%%%%%%%%%%%%%%%%%%%%
 density label              = velectrostatic                                                                  
 integral of density        =     -48.08534598    

%%%% CHARGES %%%%%%%%%%%%%%%%%%%%%%%%%%%%%%%%%%%%%%%%%%%%%%%%%%%%%%%%%%%%%%%%%%%
 total number of charges    =         11
 total charge               =      0.0000000

%%%% DENSITY %%%%%%%%%%%%%%%%%%%%%%%%%%%%%%%%%%%%%%%%%%%%%%%%%%%%%%%%%%%%%%%%%%%
 density label              = vsoftcavity                                                                     
 integral of density        =      11.46647530    

%%%% DENSITY %%%%%%%%%%%%%%%%%%%%%%%%%%%%%%%%%%%%%%%%%%%%%%%%%%%%%%%%%%%%%%%%%%%
 density label              = dvtot                                                                           
 integral of density        =     -36.61887068    

%%%% ELECTRONS %%%%%%%%%%%%%%%%%%%%%%%%%%%%%%%%%%%%%%%%%%%%%%%%%%%%%%%%%%%%%%%%%
 number of electrons        =          8
 total electronic charge    =      8.0000000

%%%% ELECTRONS %%%%%%%%%%%%%%%%%%%%%%%%%%%%%%%%%%%%%%%%%%%%%%%%%%%%%%%%%%%%%%%%%
 number of electrons        =          8
 total electronic charge    =      8.0000000

%%%% BOUNDARY %%%%%%%%%%%%%%%%%%%%%%%%%%%%%%%%%%%%%%%%%%%%%%%%%%%%%%%%%%%%%%%%%%
 boundary label             = solvent              
 boundary mode              = electronic           
 boundary is built as a function of a smooth density
 function type              =  2 
 using the modified SCCS function with parameters 
 rhomax                     =      0.0050000 
 rhomin                     =      0.0001000 
 volume of the QM region    =    294.9432392 
 surface of the QM region   =    214.0793514 

%%%% DIELECTRIC %%%%%%%%%%%%%%%%%%%%%%%%%%%%%%%%%%%%%%%%%%%%%%%%%%%%%%%%%%%%%%%%%
 dielectric build on homogeneous background
 environment bulk permitt.  =    100.0000000 
 dielectric flags
 need gradient              =  F 
 need factor depend. sqrt   =  T 
 total dielectric charge    =      0.0002105

%%%% DENSITY %%%%%%%%%%%%%%%%%%%%%%%%%%%%%%%%%%%%%%%%%%%%%%%%%%%%%%%%%%%%%%%%%%%
 density label              = vreference                                                                      
 integral of density        =    -0.1482940113E-11

%%%% COMPUTE ELECTROSTATIC POTENTIAL %%%%%%%%%%%%%%%%%%%%%%%%%%%%%%%%%%%%%%%%%%%
 Warning: bad guess with residual norm =   0.307249E+03, reset to no guess
 Iteration #          1
  pAp =    29.114989859317326       rzold =    28.549007815872852       alpha =   0.98056045885025955     
 delta_qm =   0.130988E-01 delta_en =   0.296486E+03 tol =   0.100000E-04
 Iteration #          2
  pAp =    78.650590448950098       rzold =    5.3592764365772263       alpha =    6.8140320447508687E-002
 delta_qm =   0.599967E-02 delta_en =   0.622011E+02 tol =   0.100000E-04
 Iteration #          3
  pAp =    8.9432107032394299       rzold =    1.0022498568970670       alpha =   0.11206823702968664     
 delta_qm =   0.116870E-02 delta_en =   0.236020E+01 tol =   0.100000E-04
 Iteration #          4
  pAp =    9.0766403851691754E-002  rzold =    1.9635503171369594E-002  alpha =   0.21633007740896212     
 delta_qm =   0.507076E-03 delta_en =   0.444313E+00 tol =   0.100000E-04
 Iteration #          5
  pAp =    1.3556850745993459E-003  rzold =    7.7537422130103751E-004  alpha =   0.57194272905172217     
 delta_qm =   0.159816E-03 delta_en =   0.441352E-01 tol =   0.100000E-04
 Iteration #          6
  pAp =    5.4529304533295839E-004  rzold =    1.7659070289793074E-004  alpha =   0.32384550730901707     
 delta_qm =   0.950335E-04 delta_en =   0.156062E-01 tol =   0.100000E-04
 Iteration #          7
  pAp =    2.3668525946877370E-005  rzold =    9.7701369679646644E-006  alpha =   0.41279025951566095     
 delta_qm =   0.736912E-04 delta_en =   0.938372E-02 tol =   0.100000E-04
 Iteration #          8
  pAp =    5.9495448446487934E-006  rzold =    4.2598547083641294E-006  alpha =   0.71599673917838869     
 delta_qm =   0.347755E-04 delta_en =   0.208973E-02 tol =   0.100000E-04
 Iteration #          9
  pAp =    1.3836679441687268E-005  rzold =    3.7783089619226350E-006  alpha =   0.27306471743063676     
 delta_qm =   0.225589E-04 delta_en =   0.879383E-03 tol =   0.100000E-04
 Iteration #         10
  pAp =    4.9496159344114162E-006  rzold =    1.9151412158063548E-006  alpha =   0.38692723661479278     
 delta_qm =   0.146794E-04 delta_en =   0.372359E-03 tol =   0.100000E-04
 Iteration #         11
  pAp =    2.9953027512467767E-007  rzold =    2.3519507591097659E-007  alpha =   0.78521303335056214     
 delta_qm =   0.588091E-05 delta_en =   0.597631E-04 tol =   0.100000E-04
 Iteration #         12
  pAp =    1.2532352293136008E-007  rzold =    5.4186709580230861E-008  alpha =   0.43237461182693543     
 delta_qm =   0.413944E-05 delta_en =   0.296093E-04 tol =   0.100000E-04
 Iteration #         13
  pAp =    2.9624827809401166E-008  rzold =    1.7328596108546213E-008  alpha =   0.58493491405364872     
 delta_qm =   0.291472E-05 delta_en =   0.146803E-04 tol =   0.100000E-04
 Iteration #         14
  pAp =    6.7821634125451912E-008  rzold =    2.3087011627776689E-008  alpha =   0.34040777585912901     
 delta_qm =   0.266296E-05 delta_en =   0.122538E-04 tol =   0.100000E-04
 Iteration #         15
  pAp =    4.8538340120312970E-007  rzold =    4.7064549802477185E-008  alpha =    9.6963657359970132E-002
 delta_qm =   0.170714E-05 delta_en =   0.503596E-05 tol =   0.100000E-04
 Charges are converged, EXIT

%%%% DENSITY %%%%%%%%%%%%%%%%%%%%%%%%%%%%%%%%%%%%%%%%%%%%%%%%%%%%%%%%%%%%%%%%%%%
 density label              = velectrostatic                                                                  
 integral of density        =     -43.13490860    

%%%% CHARGES %%%%%%%%%%%%%%%%%%%%%%%%%%%%%%%%%%%%%%%%%%%%%%%%%%%%%%%%%%%%%%%%%%%
 total number of charges    =         11
 total charge               =     -0.0000000

%%%% DENSITY %%%%%%%%%%%%%%%%%%%%%%%%%%%%%%%%%%%%%%%%%%%%%%%%%%%%%%%%%%%%%%%%%%%
 density label              = vsoftcavity                                                                     
 integral of density        =      11.18770419    

%%%% DENSITY %%%%%%%%%%%%%%%%%%%%%%%%%%%%%%%%%%%%%%%%%%%%%%%%%%%%%%%%%%%%%%%%%%%
 density label              = dvtot                                                                           
 integral of density        =     -31.94720441    

%%%% ELECTRONS %%%%%%%%%%%%%%%%%%%%%%%%%%%%%%%%%%%%%%%%%%%%%%%%%%%%%%%%%%%%%%%%%
 number of electrons        =          8
 total electronic charge    =      8.0000000

%%%% ELECTRONS %%%%%%%%%%%%%%%%%%%%%%%%%%%%%%%%%%%%%%%%%%%%%%%%%%%%%%%%%%%%%%%%%
 number of electrons        =          8
 total electronic charge    =      8.0000000

%%%% BOUNDARY %%%%%%%%%%%%%%%%%%%%%%%%%%%%%%%%%%%%%%%%%%%%%%%%%%%%%%%%%%%%%%%%%%
 boundary label             = solvent              
 boundary mode              = electronic           
 boundary is built as a function of a smooth density
 function type              =  2 
 using the modified SCCS function with parameters 
 rhomax                     =      0.0050000 
 rhomin                     =      0.0001000 
 volume of the QM region    =    294.9432392 
 surface of the QM region   =    214.0793514 

%%%% DIELECTRIC %%%%%%%%%%%%%%%%%%%%%%%%%%%%%%%%%%%%%%%%%%%%%%%%%%%%%%%%%%%%%%%%%
 dielectric build on homogeneous background
 environment bulk permitt.  =    100.0000000 
 dielectric flags
 need gradient              =  F 
 need factor depend. sqrt   =  T 
 total dielectric charge    =      0.0000950

%%%% DENSITY %%%%%%%%%%%%%%%%%%%%%%%%%%%%%%%%%%%%%%%%%%%%%%%%%%%%%%%%%%%%%%%%%%%
 density label              = dvtot                                                                           
 integral of density        =     -31.94720441    

%%%% DENSITY %%%%%%%%%%%%%%%%%%%%%%%%%%%%%%%%%%%%%%%%%%%%%%%%%%%%%%%%%%%%%%%%%%%
 density label              = vreference                                                                      
 integral of density        =    -0.1482940113E-11

%%%% DENSITY %%%%%%%%%%%%%%%%%%%%%%%%%%%%%%%%%%%%%%%%%%%%%%%%%%%%%%%%%%%%%%%%%%%
 density label              = velectrostatic                                                                  
 integral of density        =     -43.13490860    

%%%% CHARGES %%%%%%%%%%%%%%%%%%%%%%%%%%%%%%%%%%%%%%%%%%%%%%%%%%%%%%%%%%%%%%%%%%%
 total number of charges    =         11
 total charge               =     -0.0000000

%%%% DENSITY %%%%%%%%%%%%%%%%%%%%%%%%%%%%%%%%%%%%%%%%%%%%%%%%%%%%%%%%%%%%%%%%%%%
 density label              = vsoftcavity                                                                     
 integral of density        =      11.18770419    
