
     Program PWSCF v.6.1 (svn rev. 13369) starts on  7Nov2017 at 16:30:20 

     This program is part of the open-source Quantum ESPRESSO suite
     for quantum simulation of materials; please cite
         "P. Giannozzi et al., J. Phys.:Condens. Matter 21 395502 (2009);
          URL http://www.quantum-espresso.org", 
     in publications or presentations arising from this work. More details at
     http://www.quantum-espresso.org/quote

     Serial version
     Reading input from neutral.in

     Current dimensions of program PWSCF are:
     Max number of different atomic species (ntypx) = 10
     Max number of k-points (npk) =  40000
     Max angular momentum in pseudopotentials (lmaxx) =  3
               file H.pbe-rrkjus.UPF: wavefunction(s)  1S renormalized
               file O.pbe-rrkjus.UPF: wavefunction(s)  2S renormalized

     gamma-point specific algorithms are used

     G-vector sticks info
     --------------------
     sticks:   dense  smooth     PW     G-vecs:    dense   smooth      PW
     Sum        9549    3809    949               701475   177509   22119



     bravais-lattice index     =            1
     lattice parameter (alat)  =      20.0000  a.u.
     unit-cell volume          =    8000.0000 (a.u.)^3
     number of atoms/cell      =            3
     number of atomic types    =            2
     number of electrons       =         8.00
     number of Kohn-Sham states=            4
     kinetic-energy cutoff     =      30.0000  Ry
     charge density cutoff     =     300.0000  Ry
     convergence threshold     =      5.0E-03
     mixing beta               =       0.7000
     number of iterations used =            8  plain     mixing
     Exchange-correlation      =  SLA  PW   PBE  PBE ( 1  4  3  4 0 0)


     Environ Module
     ==============

     Plese cite
         O. Andreussi, I. Dabo and N. Marzari, J. Chem. Phys. 136, 064102 (2012)         
     in publications or presentations arising from this work.

     compensation onset threshold      =               0.1000E+03 
     static permittivity               =                   100.00 
     epsilon calculation mode          =               electronic 

     Electrostatic Setup
     -------------------
     electrostatic problem to solve    = generalized              
     numerical solver adopted          = cg                       
     type of auxiliary density adopted = none                     
     type of core tool for poisson     = fft                      
     type of core tool for s(r) deriv  = analytic                 



     celldm(1)=  20.000000  celldm(2)=   0.000000  celldm(3)=   0.000000
     celldm(4)=   0.000000  celldm(5)=   0.000000  celldm(6)=   0.000000

     crystal axes: (cart. coord. in units of alat)
               a(1) = (   1.000000   0.000000   0.000000 )  
               a(2) = (   0.000000   1.000000   0.000000 )  
               a(3) = (   0.000000   0.000000   1.000000 )  

     reciprocal axes: (cart. coord. in units 2 pi/alat)
               b(1) = (  1.000000  0.000000  0.000000 )  
               b(2) = (  0.000000  1.000000  0.000000 )  
               b(3) = (  0.000000  0.000000  1.000000 )  


     PseudoPot. # 1 for H  read from file:
     /Users/oliviero/PWSCF/espresso-6.1-Environ-1.0/Environ/tests/../..//pseudo/H.pbe-rrkjus.UPF
     MD5 check sum: 7cc9d459525c9a0585f487a71c3c9563
     Pseudo is Ultrasoft, Zval =  1.0
     Generated by new atomic code, or converted to UPF format
     Using radial grid of 1061 points,  2 beta functions with: 
                l(1) =   0
                l(2) =   0
     Q(r) pseudized with 0 coefficients 


     PseudoPot. # 2 for O  read from file:
     /Users/oliviero/PWSCF/espresso-6.1-Environ-1.0/Environ/tests/../..//pseudo/O.pbe-rrkjus.UPF
     MD5 check sum: 390ba29e75625707450f3bd3f0eb6be9
     Pseudo is Ultrasoft, Zval =  6.0
     Generated by new atomic code, or converted to UPF format
     Using radial grid of 1269 points,  4 beta functions with: 
                l(1) =   0
                l(2) =   0
                l(3) =   1
                l(4) =   1
     Q(r) pseudized with 0 coefficients 


     atomic species   valence    mass     pseudopotential
        H              1.00     1.00000     H ( 1.00)
        O              6.00    16.00000     O ( 1.00)

     No symmetry found



   Cartesian axes

     site n.     atom                  positions (alat units)
         1           O   tau(   1) = (   0.5895000   0.6025000   0.5750000  )
         2           H   tau(   2) = (   0.6725000   0.5610000   0.5750000  )
         3           H   tau(   3) = (   0.5280000   0.5330000   0.5750000  )

     number of k points=     1
                       cart. coord. in units 2pi/alat
        k(    1) = (   0.0000000   0.0000000   0.0000000), wk =   2.0000000

     Dense  grid:   350738 G-vectors     FFT dimensions: ( 120, 120, 120)

     Smooth grid:    88755 G-vectors     FFT dimensions: (  72,  72,  72)

     Estimated max dynamical RAM per process >     270.62MB

     Initial potential from superposition of free atoms
     Check: negative starting charge=   -0.000775

     starting charge    7.80759, renormalised to    8.00000

     negative rho (up, down):  7.936E-04 0.000E+00
     Starting wfc are    6 randomized atomic wfcs

     total cpu time spent up to now is        5.3 secs

     Self-consistent Calculation

     iteration #  1     ecut=    30.00 Ry     beta=0.70
     Davidson diagonalization with overlap
     ethr =  1.00E-02,  avg # of iterations =  2.0

     negative rho (up, down):  2.595E-04 0.000E+00

     add environment contribution to local potential
     polarization accuracy = 1.7E-05, # of iterations =  11

     total cpu time spent up to now is       13.5 secs

     total energy              =     -34.06236055 Ry
     Harris-Foulkes estimate   =     -34.58697711 Ry
     estimated scf accuracy    <       0.68458994 Ry
     electrostatic embedding   =       0.00000000 Ry
     correction to one-el term =       0.00000000 Ry

     iteration #  2     ecut=    30.00 Ry     beta=0.70
     Davidson diagonalization with overlap
     ethr =  8.56E-03,  avg # of iterations =  2.0

     negative rho (up, down):  2.656E-03 0.000E+00

     add environment contribution to local potential
     polarization accuracy = 8.0E-05, # of iterations =  11

     total cpu time spent up to now is       22.7 secs

     total energy              =     -34.21517881 Ry
     Harris-Foulkes estimate   =     -33.98437444 Ry
     estimated scf accuracy    <       0.35516150 Ry
     electrostatic embedding   =      -0.03411370 Ry
     correction to one-el term =      -0.37974581 Ry

     iteration #  3     ecut=    30.00 Ry     beta=0.70
     Davidson diagonalization with overlap
     ethr =  4.44E-03,  avg # of iterations =  2.0

     negative rho (up, down):  2.207E-04 0.000E+00

     add environment contribution to local potential
     polarization accuracy = 5.9E-05, # of iterations =  11

     total cpu time spent up to now is       30.9 secs

     total energy              =     -34.28764975 Ry
     Harris-Foulkes estimate   =     -34.02683595 Ry
     estimated scf accuracy    <       0.01535962 Ry
     electrostatic embedding   =      -0.02910563 Ry
     correction to one-el term =      -0.24034835 Ry

     iteration #  4     ecut=    30.00 Ry     beta=0.70
     Davidson diagonalization with overlap
     ethr =  1.92E-04,  avg # of iterations =  2.0

     negative rho (up, down):  2.142E-04 0.000E+00

     total cpu time spent up to now is       34.1 secs

     End of self-consistent calculation

          k = 0.0000 0.0000 0.0000 ( 11060 PWs)   bands (ev):

   -24.6151 -12.3886  -8.8424  -6.8727

     highest occupied level (ev):    -6.8727

!    total energy              =     -34.29561101 Ry
     Harris-Foulkes estimate   =     -34.21506681 Ry
     estimated scf accuracy    <       0.00017527 Ry

     The total energy is the sum of the following terms:

     one-electron contribution =     -63.83533230 Ry
     hartree contribution      =      33.45957766 Ry
     xc contribution           =      -8.39663058 Ry
     ewald contribution        =       4.55735774 Ry
     electrostatic embedding   =      -0.03348369 Ry
     correction to one-el term =      -0.04709984 Ry

     convergence has been achieved in   4 iterations

     Forces acting on atoms (cartesian axes, Ry/au):

     atom    1 type  2   force =     0.00238423   -0.01240833   -0.00001163
     atom    2 type  1   force =    -0.00872697    0.00472336    0.00000553
     atom    3 type  1   force =     0.00634274    0.00768497    0.00000610

     Total force =     0.018905     Total SCF correction =     0.023087
     SCF correction compared to forces is large: reduce conv_thr to get better values

     Writing output data file pwscf.save

     init_run     :      4.50s CPU      5.13s WALL (       1 calls)
     electrons    :     26.05s CPU     29.03s WALL (       1 calls)
     forces       :      1.31s CPU      1.47s WALL (       1 calls)

     Called by init_run:
     wfcinit      :      0.06s CPU      0.06s WALL (       1 calls)
     potinit      :      1.57s CPU      1.70s WALL (       1 calls)

     Called by electrons:
     c_bands      :      0.44s CPU      0.47s WALL (       4 calls)
     sum_band     :      2.72s CPU      2.81s WALL (       4 calls)
     v_of_rho     :      5.52s CPU      5.98s WALL (       5 calls)
     newd         :      1.46s CPU      1.99s WALL (       5 calls)
     mix_rho      :      0.43s CPU      0.49s WALL (       4 calls)

     Called by c_bands:
     init_us_2    :      0.03s CPU      0.05s WALL (       9 calls)
     regterg      :      0.41s CPU      0.43s WALL (       4 calls)

     Called by sum_band:
     sum_band:bec :      0.00s CPU      0.00s WALL (       4 calls)
     addusdens    :      1.81s CPU      1.86s WALL (       4 calls)

     Called by *egterg:
     h_psi        :      0.41s CPU      0.42s WALL (      13 calls)
     s_psi        :      0.01s CPU      0.01s WALL (      13 calls)
     g_psi        :      0.00s CPU      0.00s WALL (       8 calls)
     rdiaghg      :      0.00s CPU      0.00s WALL (      12 calls)

     Called by h_psi:
     h_psi:pot    :      0.41s CPU      0.42s WALL (      13 calls)
     h_psi:calbec :      0.01s CPU      0.01s WALL (      13 calls)
     vloc_psi     :      0.39s CPU      0.41s WALL (      13 calls)
     add_vuspsi   :      0.01s CPU      0.01s WALL (      13 calls)

     General routines
     calbec       :      0.01s CPU      0.01s WALL (      21 calls)
     fft          :     10.76s CPU     11.09s WALL (     195 calls)
     ffts         :      0.09s CPU      0.09s WALL (       9 calls)
     fftw         :      0.36s CPU      0.37s WALL (      62 calls)
     interpolate  :      0.70s CPU      0.79s WALL (       9 calls)
     davcio       :      0.00s CPU      0.00s WALL (       1 calls)


     Environ routines
     calc_eelect  :      0.02s CPU      0.02s WALL (       8 calls)
     calc_velect  :     11.82s CPU     13.14s WALL (       6 calls)
     dielectric   :      0.38s CPU      0.49s WALL (       5 calls)
     calc_felect  :      0.55s CPU      0.59s WALL (       1 calls)

     PWSCF        :    32.08s CPU        36.01s WALL


   This run was terminated on:  16:30:56   7Nov2017            

=------------------------------------------------------------------------------=
   JOB DONE.
=------------------------------------------------------------------------------=

%%%% IONS %%%%%%%%%%%%%%%%%%%%%%%%%%%%%%%%%%%%%%%%%%%%%%%%%%%%%%%%%%%%%%%%%%%%%%
 number of ions             =          3
 ionic center of charge     =      0.5921875     0.5886250     0.5750000
 total ionic charge         =     -8.0000000
 ionic dipole               =      0.0000000     0.0000000     0.0000000
 ionic quadrupole (pc)      =     -4.2453875    -2.0049500     0.0000000
 ionic quadrupole (gauss)   =     -5.2453875    -3.0049500    -1.0000000
 ion   1 type =  2 coordinates =     11.7900000    12.0500000    11.5000000
 ion   2 type =  1 coordinates =     13.4500000    11.2200000    11.5000000
 ion   3 type =  1 coordinates =     10.5600000    10.6600000    11.5000000

%%%% SYSTEM %%%%%%%%%%%%%%%%%%%%%%%%%%%%%%%%%%%%%%%%%%%%%%%%%%%%%%%%%%%%%%%%%%%%
 system is built from all present ionic types
 system defined dimension   =  0 
 system defined axis        =  3 
 system center              =      0.5921875     0.5886250     0.5750000 
 system width               =      0.1209436 

%%%% ELECTRONS %%%%%%%%%%%%%%%%%%%%%%%%%%%%%%%%%%%%%%%%%%%%%%%%%%%%%%%%%%%%%%%%%
 number of electrons        =          8
 total electronic charge    =      8.0000000
 number of spin components  =  1

%%%% BOUNDARY %%%%%%%%%%%%%%%%%%%%%%%%%%%%%%%%%%%%%%%%%%%%%%%%%%%%%%%%%%%%%%%%%%
 boundary mode              = electronic           
 boundary is built as a function of a smooth density
 function type              =  2 
 using the modified SCCS function with parameters 
 rhomax                     =      0.0050000 
 rhomin                     =      0.0001000 
 volume of the QM region    =    306.9268418 
 surface of the QM region   =    219.1546597 

%%%% DIELECTRIC %%%%%%%%%%%%%%%%%%%%%%%%%%%%%%%%%%%%%%%%%%%%%%%%%%%%%%%%%%%%%%%%%
 dielectric build on homogeneous background
 environment bulk permitt.  =    100.0000000 
 dielectric flags
 need gradient              =  F 
 need factor depend. sqrt   =  T 
 need gradient of logarithm =  T 

%%%% COMPUTE ELECTROSTATIC POTENTIAL %%%%%%%%%%%%%%%%%%%%%%%%%%%%%%%%%%%%%%%%%%%
 Iteration #          1
  pAp =    27.330520814641130       rzold =    26.186963186836948       alpha =   0.95815822041738885     
 delta_qm =   0.131445E-01 delta_en =   0.298560E+03 tol =   0.100000E-03
 Iteration #          2
  pAp =    203.00546467926696       rzold =    13.222962776190498       alpha =    6.5135994230902911E-002
 delta_qm =   0.495900E-02 delta_en =   0.424945E+02 tol =   0.100000E-03
 Iteration #          3
  pAp =    4.9224547934808891       rzold =   0.75798935376437582       alpha =   0.15398604671153668     
 delta_qm =   0.919245E-03 delta_en =   0.146018E+01 tol =   0.100000E-03
 Iteration #          4
  pAp =    5.4166892163212133E-002  rzold =    1.4046861425654441E-002  alpha =   0.25932559289776785     
 delta_qm =   0.439442E-03 delta_en =   0.333693E+00 tol =   0.100000E-03
 Iteration #          5
  pAp =    1.3531842185860725E-003  rzold =    8.0594161564543536E-004  alpha =   0.59558898528062576     
 delta_qm =   0.111637E-03 delta_en =   0.215357E-01 tol =   0.100000E-03
 Iteration #          6
  pAp =    2.7091139694700861E-004  rzold =    1.0255951816926344E-004  alpha =   0.37857218014834759     
 delta_qm =   0.483799E-04 delta_en =   0.404459E-02 tol =   0.100000E-03
 Iteration #          7
  pAp =    4.8880747431023235E-006  rzold =    4.0903768874101447E-006  alpha =   0.83680735307539456     
 delta_qm =   0.313395E-04 delta_en =   0.169718E-02 tol =   0.100000E-03
 Iteration #          8
  pAp =    7.4166361721865080E-006  rzold =    3.3660837738094092E-006  alpha =   0.45385585805499340     
 delta_qm =   0.240126E-04 delta_en =   0.996373E-03 tol =   0.100000E-03
 Iteration #          9
  pAp =    6.9641452491771765E-006  rzold =    2.8977476115855859E-006  alpha =   0.41609522890522116     
 delta_qm =   0.182038E-04 delta_en =   0.572621E-03 tol =   0.100000E-03
 Iteration #         10
  pAp =    2.6634571154584316E-006  rzold =    1.0687024044486539E-006  alpha =   0.40124633441477803     
 delta_qm =   0.114022E-04 delta_en =   0.224656E-03 tol =   0.100000E-03
 Iteration #         11
  pAp =    3.8469664154030748E-007  rzold =    2.6535638850265594E-007  alpha =   0.68978088147632710     
 delta_qm =   0.317669E-05 delta_en =   0.174378E-04 tol =   0.100000E-03
 Charges are converged, EXIT

%%%% ELECTRONS %%%%%%%%%%%%%%%%%%%%%%%%%%%%%%%%%%%%%%%%%%%%%%%%%%%%%%%%%%%%%%%%%
 number of electrons        =          8
 total electronic charge    =      8.0000000
 number of spin components  =  1

%%%% BOUNDARY %%%%%%%%%%%%%%%%%%%%%%%%%%%%%%%%%%%%%%%%%%%%%%%%%%%%%%%%%%%%%%%%%%
 boundary mode              = electronic           
 boundary is built as a function of a smooth density
 function type              =  2 
 using the modified SCCS function with parameters 
 rhomax                     =      0.0050000 
 rhomin                     =      0.0001000 
 volume of the QM region    =    332.8292968 
 surface of the QM region   =    231.8701018 

%%%% DIELECTRIC %%%%%%%%%%%%%%%%%%%%%%%%%%%%%%%%%%%%%%%%%%%%%%%%%%%%%%%%%%%%%%%%%
 dielectric build on homogeneous background
 environment bulk permitt.  =    100.0000000 
 dielectric flags
 need gradient              =  F 
 need factor depend. sqrt   =  T 
 need gradient of logarithm =  T 

%%%% COMPUTE ELECTROSTATIC POTENTIAL %%%%%%%%%%%%%%%%%%%%%%%%%%%%%%%%%%%%%%%%%%%
 Warning: bad guess with residual norm =   0.283521E+02, reset to no guess
 Iteration #          1
  pAp =    29.353412441617120       rzold =    28.544830845239471       alpha =   0.97245357424844936     
 delta_qm =   0.167280E-01 delta_en =   0.483538E+03 tol =   0.100000E-03
 Iteration #          2
  pAp =    153.58439243325270       rzold =    9.6743082295368534       alpha =    6.2990178079073214E-002
 delta_qm =   0.599003E-02 delta_en =   0.620014E+02 tol =   0.100000E-03
 Iteration #          3
  pAp =    4.0351025314441138       rzold =   0.60719014355607270       alpha =   0.15047700493964072     
 delta_qm =   0.115970E-02 delta_en =   0.232398E+01 tol =   0.100000E-03
 Iteration #          4
  pAp =    5.2847344942216920E-002  rzold =    1.2988293968249354E-002  alpha =   0.24577003787892662     
 delta_qm =   0.519332E-03 delta_en =   0.466051E+00 tol =   0.100000E-03
 Iteration #          5
  pAp =    1.0850832845078759E-003  rzold =    6.5810516878597074E-004  alpha =   0.60650198761880747     
 delta_qm =   0.134754E-03 delta_en =   0.313780E-01 tol =   0.100000E-03
 Iteration #          6
  pAp =    2.3507700143082108E-004  rzold =    8.1198616246070819E-005  alpha =   0.34541284664959498     
 delta_qm =   0.830618E-04 delta_en =   0.119219E-01 tol =   0.100000E-03
 Iteration #          7
  pAp =    8.4662167062697111E-006  rzold =    4.5587183978887737E-006  alpha =   0.53845992325152570     
 delta_qm =   0.597462E-04 delta_en =   0.616829E-02 tol =   0.100000E-03
 Iteration #          8
  pAp =    3.8044631137976654E-006  rzold =    2.6181148843640715E-006  alpha =   0.68816934375548056     
 delta_qm =   0.320887E-04 delta_en =   0.177930E-02 tol =   0.100000E-03
 Iteration #          9
  pAp =    3.3366500250343523E-006  rzold =    1.4079241084022037E-006  alpha =   0.42195738175678421     
 delta_qm =   0.242704E-04 delta_en =   0.101788E-02 tol =   0.100000E-03
 Iteration #         10
  pAp =    3.5023582643024843E-006  rzold =    1.1533948336979084E-006  alpha =   0.32931948894372004     
 delta_qm =   0.177245E-04 delta_en =   0.542866E-03 tol =   0.100000E-03
 Iteration #         11
  pAp =    2.6075246620404966E-007  rzold =    2.1314224615960058E-007  alpha =   0.81741219656502850     
 delta_qm =   0.680770E-05 delta_en =   0.800838E-04 tol =   0.100000E-03
 Charges are converged, EXIT

%%%% ELECTRONS %%%%%%%%%%%%%%%%%%%%%%%%%%%%%%%%%%%%%%%%%%%%%%%%%%%%%%%%%%%%%%%%%
 number of electrons        =          8
 total electronic charge    =      8.0000000
 number of spin components  =  1

%%%% BOUNDARY %%%%%%%%%%%%%%%%%%%%%%%%%%%%%%%%%%%%%%%%%%%%%%%%%%%%%%%%%%%%%%%%%%
 boundary mode              = electronic           
 boundary is built as a function of a smooth density
 function type              =  2 
 using the modified SCCS function with parameters 
 rhomax                     =      0.0050000 
 rhomin                     =      0.0001000 
 volume of the QM region    =    295.4239938 
 surface of the QM region   =    214.3039710 

%%%% DIELECTRIC %%%%%%%%%%%%%%%%%%%%%%%%%%%%%%%%%%%%%%%%%%%%%%%%%%%%%%%%%%%%%%%%%
 dielectric build on homogeneous background
 environment bulk permitt.  =    100.0000000 
 dielectric flags
 need gradient              =  F 
 need factor depend. sqrt   =  T 
 need gradient of logarithm =  T 

%%%% COMPUTE ELECTROSTATIC POTENTIAL %%%%%%%%%%%%%%%%%%%%%%%%%%%%%%%%%%%%%%%%%%%
 Warning: bad guess with residual norm =   0.567767E+03, reset to no guess
 Iteration #          1
  pAp =    28.990074576336077       rzold =    28.410015501516330       alpha =   0.97999111477646095     
 delta_qm =   0.131696E-01 delta_en =   0.299703E+03 tol =   0.100000E-03
 Iteration #          2
  pAp =    80.819598825311132       rzold =    5.5023362263793807       alpha =    6.8081706743836942E-002
 delta_qm =   0.602052E-02 delta_en =   0.626343E+02 tol =   0.100000E-03
 Iteration #          3
  pAp =    8.9866140921683506       rzold =    1.0146764384691775       alpha =   0.11290975978966841     
 delta_qm =   0.117239E-02 delta_en =   0.237515E+01 tol =   0.100000E-03
 Iteration #          4
  pAp =    9.1873134369757983E-002  rzold =    1.9940863641487908E-002  alpha =   0.21704782119692079     
 delta_qm =   0.509189E-03 delta_en =   0.448024E+00 tol =   0.100000E-03
 Iteration #          5
  pAp =    1.3778036001894694E-003  rzold =    7.8806249268494337E-004  alpha =   0.57197012155910498     
 delta_qm =   0.160177E-03 delta_en =   0.443348E-01 tol =   0.100000E-03
 Iteration #          6
  pAp =    5.4963782813981330E-004  rzold =    1.7858816362217002E-004  alpha =   0.32491970981433599     
 delta_qm =   0.945246E-04 delta_en =   0.154395E-01 tol =   0.100000E-03
 Iteration #          7
  pAp =    2.3772742185953763E-005  rzold =    9.8372403944490327E-006  alpha =   0.41380335164958010     
 delta_qm =   0.731551E-04 delta_en =   0.924768E-02 tol =   0.100000E-03
 Iteration #          8
  pAp =    5.8430043165642914E-006  rzold =    4.2393892500922624E-006  alpha =   0.72554956669705817     
 delta_qm =   0.341049E-04 delta_en =   0.200991E-02 tol =   0.100000E-03
 Iteration #          9
  pAp =    1.2534039188715009E-005  rzold =    3.5542093186132543E-006  alpha =   0.28356456088100296     
 delta_qm =   0.222313E-04 delta_en =   0.854034E-03 tol =   0.100000E-03
 Iteration #         10
  pAp =    5.3064413990510469E-006  rzold =    1.9583457934964557E-006  alpha =   0.36905067751180054     
 delta_qm =   0.145899E-04 delta_en =   0.367833E-03 tol =   0.100000E-03
 Iteration #         11
  pAp =    2.9848331174751796E-007  rzold =    2.3468917118026884E-007  alpha =   0.78627233732513824     
 delta_qm =   0.585315E-05 delta_en =   0.592003E-04 tol =   0.100000E-03
 Charges are converged, EXIT

%%%% ELECTRONS %%%%%%%%%%%%%%%%%%%%%%%%%%%%%%%%%%%%%%%%%%%%%%%%%%%%%%%%%%%%%%%%%
 number of electrons        =          8
 total electronic charge    =      8.0000000
 number of spin components  =  1

%%%% BOUNDARY %%%%%%%%%%%%%%%%%%%%%%%%%%%%%%%%%%%%%%%%%%%%%%%%%%%%%%%%%%%%%%%%%%
 boundary mode              = electronic           
 boundary is built as a function of a smooth density
 function type              =  2 
 using the modified SCCS function with parameters 
 rhomax                     =      0.0050000 
 rhomin                     =      0.0001000 
 volume of the QM region    =    295.4239938 
 surface of the QM region   =    214.3039710 

%%%% DIELECTRIC %%%%%%%%%%%%%%%%%%%%%%%%%%%%%%%%%%%%%%%%%%%%%%%%%%%%%%%%%%%%%%%%%
 dielectric build on homogeneous background
 environment bulk permitt.  =    100.0000000 
 dielectric flags
 need gradient              =  F 
 need factor depend. sqrt   =  T 
 need gradient of logarithm =  T 
