
     Program PWSCF v.7.0 starts on  2May2022 at 21:50:48 

     This program is part of the open-source Quantum ESPRESSO suite
     for quantum simulation of materials; please cite
         "P. Giannozzi et al., J. Phys.:Condens. Matter 21 395502 (2009);
         "P. Giannozzi et al., J. Phys.:Condens. Matter 29 465901 (2017);
         "P. Giannozzi et al., J. Chem. Phys. 152 154105 (2020);
          URL http://www.quantum-espresso.org", 
     in publications or presentations arising from this work. More details at
     http://www.quantum-espresso.org/quote

     Parallel version (MPI), running on     1 processors

     MPI processes distributed on     1 nodes
     19353 MiB available memory on the printing compute node when the environment starts

     Waiting for input...
     Reading input from standard input

     Current dimensions of program PWSCF are:
     Max number of different atomic species (ntypx) = 10
     Max number of k-points (npk) =  40000
     Max angular momentum in pseudopotentials (lmaxx) =  4

     Reading input from environ.in:
     * using full solvent mode
     * setting boundary derivatives method to SCCS default
     
     file C.pbe-rrkjus.UPF: wavefunction(s)  2S 2P renormalized
     file O.pbe-rrkjus.UPF: wavefunction(s)  2S renormalized

     Subspace diagonalization in iterative solution of the eigenvalue problem:
     a serial algorithm will be used


     G-vector sticks info
     --------------------
     sticks:   dense  smooth     PW     G-vecs:    dense   smooth      PW
     Sum        2205    1099    269               330909   116965   14571

     Using Slab Decomposition



     bravais-lattice index     =            8
     lattice parameter (alat)  =      10.6881  a.u.
     unit-cell volume          =    4181.1215 (a.u.)^3
     number of atoms/cell      =           10
     number of atomic types    =            3
     number of electrons       =        89.00
     number of Kohn-Sham states=           80
     kinetic-energy cutoff     =      35.0000  Ry
     charge density cutoff     =     280.0000  Ry
     scf convergence threshold =      5.0E-09
     mixing beta               =       0.2000
     number of iterations used =            8  plain     mixing
     Exchange-correlation= SLA  PW   PBE  PBE
                           (   1   4   3   4   0   0   0)

     ================================================================================

                                  Environ Setup Summary

     ================================================================================

     Please cite

          O. Andreussi, I. Dabo and N. Marzari, J. Chem. Phys. 136, 064102 (2012)

     in publications or presentations arising from this work.

     ================================================================================

     Parameters
     ==========

     compensation onset threshold      =               0.1000E+01
     static permittivity               =                    80.00

     Solvent Boundary
     ================

     solvent mode                      =                     full
     derivatives method                =                    chain
     numerical core for derivatives    =                      fft
     switching function adopted        =                     SCCS
     density limit for vacuum region   =               0.5000E-02
     density limit for bulk solvent    =               0.1000E-03

     Electrostatic Setup
     ===================

     electrostatic problem to solve    =              generalized
     numerical solver adopted          =                       cg
     type of auxiliary density adopted =                     none
     numerical core for poisson        =                      fft
     type of pbc corrections           =                parabolic
     numerical core for corrections    =                      1da

     ================================================================================


     celldm(1)=  10.688100  celldm(2)=   0.866025  celldm(3)=   3.954220
     celldm(4)=   0.000000  celldm(5)=   0.000000  celldm(6)=   0.000000

     crystal axes: (cart. coord. in units of alat)
               a(1) = (   1.000000   0.000000   0.000000 )  
               a(2) = (   0.000000   0.866025   0.000000 )  
               a(3) = (   0.000000   0.000000   3.954220 )  

     reciprocal axes: (cart. coord. in units 2 pi/alat)
               b(1) = (  1.000000  0.000000  0.000000 )  
               b(2) = (  0.000000  1.154701  0.000000 )  
               b(3) = (  0.000000  0.000000  0.252894 )  


     PseudoPot. # 1 for C  read from file:
     MD5 check sum: c9ac5a99bc85b198593446162950cd17
     Pseudo is Ultrasoft, Zval =  4.0
     Generated by new atomic code, or converted to UPF format
     Using radial grid of  627 points,  4 beta functions with: 
                l(1) =   0
                l(2) =   0
                l(3) =   1
                l(4) =   1
     Q(r) pseudized with 0 coefficients 


     PseudoPot. # 2 for O  read from file:
     MD5 check sum: fadcf19ee70a498d3030e2e79cf929a4
     Pseudo is Ultrasoft, Zval =  6.0
     Generated by new atomic code, or converted to UPF format
     Using radial grid of 1269 points,  4 beta functions with: 
                l(1) =   0
                l(2) =   0
                l(3) =   1
                l(4) =   1
     Q(r) pseudized with 0 coefficients 


     PseudoPot. # 3 for Pt read from file:
     MD5 check sum: b34016df742983190e94d0e746921a01
     Pseudo is Ultrasoft + core correction, Zval = 10.0
     Generated by new atomic code, or converted to UPF format
     Using radial grid of 1547 points,  3 beta functions with: 
                l(1) =   1
                l(2) =   2
                l(3) =   2
     Q(r) pseudized with 0 coefficients 


     atomic species   valence    mass     pseudopotential
        C              4.00     1.00000     C ( 1.00)
        O              6.00     1.00000     O ( 1.00)
        Pt            10.00     1.00000     Pt( 1.00)

     No symmetry found


                                    s                        frac. trans.

      isym =  1     identity                                     

 cryst.   s( 1) = (     1          0          0      )
                  (     0          1          0      )
                  (     0          0          1      )

 cart.    s( 1) = (  1.0000000  0.0000000  0.0000000 )
                  (  0.0000000  1.0000000  0.0000000 )
                  (  0.0000000  0.0000000  1.0000000 )


     point group C_1 (1)    
     there are  1 classes
     the character table:

       E    
A      1.00

     the symmetry operations in each class and the name of the first element:

     E        1
          identity                                               

   Cartesian axes

     site n.     atom                  positions (alat units)
         1           C   tau(   1) = (   0.4991611   0.4347567   1.2070461  )
         2           O   tau(   2) = (   0.4991542   0.4322212   1.4109013  )
         3           Pt  tau(   3) = (   0.7542339   0.0091745   0.8413229  )
         4           Pt  tau(   4) = (   0.2441023   0.0091745   0.8413226  )
         5           Pt  tau(   5) = (   0.0000034   0.4416918   0.8391348  )
         6           Pt  tau(   6) = (   0.4991682   0.4417635   0.8776299  )
         7           Pt  tau(   7) = (   0.0000038   0.7300598   0.4308181  )
         8           Pt  tau(   8) = (   0.4991683   0.7202168   0.4447460  )
         9           Pt  tau(   9) = (   0.2524172   0.2949237   0.4386572  )
        10           Pt  tau(  10) = (   0.7459196   0.2949237   0.4386575  )

   Crystallographic axes

     site n.     atom                  positions (cryst. coord.)
         1           C   tau(   1) = (  0.4991611  0.5020141  0.3052552  )
         2           O   tau(   2) = (  0.4991542  0.4990863  0.3568090  )
         3           Pt  tau(   3) = (  0.7542339  0.0105938  0.2127658  )
         4           Pt  tau(   4) = (  0.2441023  0.0105938  0.2127658  )
         5           Pt  tau(   5) = (  0.0000034  0.5100220  0.2122125  )
         6           Pt  tau(   6) = (  0.4991682  0.5101048  0.2219477  )
         7           Pt  tau(   7) = (  0.0000038  0.8430008  0.1089515  )
         8           Pt  tau(   8) = (  0.4991683  0.8316351  0.1124738  )
         9           Pt  tau(   9) = (  0.2524172  0.3405487  0.1109339  )
        10           Pt  tau(  10) = (  0.7459196  0.3405488  0.1109340  )

     number of k points=     1  Marzari-Vanderbilt smearing, width (Ry)=  0.0300
                       cart. coord. in units 2pi/alat
        k(    1) = (   0.0000000   0.0000000   0.0000000), wk =   2.0000000

                       cryst. coord.
        k(    1) = (   0.0000000   0.0000000   0.0000000), wk =   2.0000000

     Dense  grid:   330909 G-vectors     FFT dimensions: (  60,  50, 225)

     Smooth grid:   116965 G-vectors     FFT dimensions: (  45,  36, 160)

     Dynamical RAM for                 wfc:      17.85 MB

     Dynamical RAM for     wfc (w. buffer):      17.85 MB

     Dynamical RAM for           str. fact:      15.15 MB

     Dynamical RAM for           local pot:       0.00 MB

     Dynamical RAM for          nlocal pot:      26.77 MB

     Dynamical RAM for                qrad:       1.92 MB

     Dynamical RAM for          rho,v,vnew:      30.60 MB

     Dynamical RAM for               rhoin:      10.20 MB

     Dynamical RAM for            rho*nmix:      80.79 MB

     Dynamical RAM for           G-vectors:      19.83 MB

     Dynamical RAM for          h,s,v(r/c):       1.17 MB

     Dynamical RAM for          <psi|beta>:       0.15 MB

     Dynamical RAM for                 psi:      35.69 MB

     Dynamical RAM for                hpsi:      35.69 MB

     Dynamical RAM for                spsi:      35.69 MB

     Dynamical RAM for      wfcinit/wfcrot:      35.84 MB

     Dynamical RAM for           addusdens:     575.62 MB

     Dynamical RAM for          addusforce:     648.85 MB

     Estimated static dynamical RAM per process >     168.25 MB

     Estimated max dynamical RAM per process >     897.89 MB

     Check: negative core charge=   -0.000038

     Initial potential from superposition of free atoms

     starting charge      89.9988, renormalised to      89.0000

     negative rho (up, down):  7.106E-05 0.000E+00
     Starting wfcs are   56 randomized atomic wfcs +   24 random wfcs

     total cpu time spent up to now is        6.0 secs

     Self-consistent Calculation

     iteration #  1     ecut=    35.00 Ry     beta= 0.20
     Davidson diagonalization with overlap

---- Real-time Memory Report at c_bands before calling an iterative solver
           991 MiB given to the printing process from OS
             0 MiB allocation reported by mallinfo(arena+hblkhd)
         18956 MiB available memory on the node where the printing process lives
------------------
     ethr =  1.00E-02,  avg # of iterations =  8.0

     negative rho (up, down):  7.304E-05 0.000E+00

     total cpu time spent up to now is       11.2 secs

     total energy              =    -735.17449213 Ry
     estimated scf accuracy    <       2.30979550 Ry
     electrostatic embedding   =       0.03381190 Ry
     correction to one-el term =      -0.00000000 Ry

     iteration #  2     ecut=    35.00 Ry     beta= 0.20
     Davidson diagonalization with overlap

---- Real-time Memory Report at c_bands before calling an iterative solver
          1081 MiB given to the printing process from OS
             0 MiB allocation reported by mallinfo(arena+hblkhd)
         18925 MiB available memory on the node where the printing process lives
------------------
     ethr =  2.60E-03,  avg # of iterations =  2.0

     negative rho (up, down):  1.329E-04 0.000E+00

     total cpu time spent up to now is       16.4 secs

     total energy              =    -734.89092139 Ry
     estimated scf accuracy    <      17.11811999 Ry
     electrostatic embedding   =       0.03381190 Ry
     correction to one-el term =      -0.00000000 Ry

     iteration #  3     ecut=    35.00 Ry     beta= 0.20
     Davidson diagonalization with overlap

---- Real-time Memory Report at c_bands before calling an iterative solver
          1085 MiB given to the printing process from OS
             0 MiB allocation reported by mallinfo(arena+hblkhd)
         18915 MiB available memory on the node where the printing process lives
------------------
     ethr =  2.60E-03,  avg # of iterations =  2.0

     negative rho (up, down):  1.045E-04 0.000E+00

     add environment contribution to local potential

     total cpu time spent up to now is       23.1 secs

     total energy              =    -735.53306258 Ry
     estimated scf accuracy    <       0.51751221 Ry
     electrostatic embedding   =       0.03381190 Ry
     correction to one-el term =      -0.00000000 Ry

     iteration #  4     ecut=    35.00 Ry     beta= 0.20
     Davidson diagonalization with overlap

---- Real-time Memory Report at c_bands before calling an iterative solver
          1086 MiB given to the printing process from OS
             0 MiB allocation reported by mallinfo(arena+hblkhd)
         18929 MiB available memory on the node where the printing process lives
------------------
     ethr =  5.81E-04,  avg # of iterations = 10.0

     negative rho (up, down):  1.052E-04 0.000E+00

     add environment contribution to local potential

     total cpu time spent up to now is       30.7 secs

     total energy              =    -735.32546966 Ry
     estimated scf accuracy    <       0.52184406 Ry
     electrostatic embedding   =       0.25150461 Ry
     correction to one-el term =      13.71289560 Ry

     iteration #  5     ecut=    35.00 Ry     beta= 0.20
     Davidson diagonalization with overlap

---- Real-time Memory Report at c_bands before calling an iterative solver
          1086 MiB given to the printing process from OS
             0 MiB allocation reported by mallinfo(arena+hblkhd)
         18927 MiB available memory on the node where the printing process lives
------------------
     ethr =  5.81E-04,  avg # of iterations =  2.0

     negative rho (up, down):  1.136E-04 0.000E+00

     add environment contribution to local potential

     total cpu time spent up to now is       37.3 secs

     total energy              =    -735.33726477 Ry
     estimated scf accuracy    <       0.16534350 Ry
     electrostatic embedding   =       0.23604031 Ry
     correction to one-el term =      11.93126045 Ry

     iteration #  6     ecut=    35.00 Ry     beta= 0.20
     Davidson diagonalization with overlap

---- Real-time Memory Report at c_bands before calling an iterative solver
          1086 MiB given to the printing process from OS
             0 MiB allocation reported by mallinfo(arena+hblkhd)
         18922 MiB available memory on the node where the printing process lives
------------------
     ethr =  1.86E-04,  avg # of iterations =  6.0

     negative rho (up, down):  1.477E-04 0.000E+00

     add environment contribution to local potential

     total cpu time spent up to now is       44.1 secs

     total energy              =    -735.32761779 Ry
     estimated scf accuracy    <       0.06576699 Ry
     electrostatic embedding   =       0.22972506 Ry
     correction to one-el term =      11.11942951 Ry

     iteration #  7     ecut=    35.00 Ry     beta= 0.20
     Davidson diagonalization with overlap

---- Real-time Memory Report at c_bands before calling an iterative solver
          1090 MiB given to the printing process from OS
             0 MiB allocation reported by mallinfo(arena+hblkhd)
         18919 MiB available memory on the node where the printing process lives
------------------
     ethr =  7.39E-05,  avg # of iterations =  7.0

     negative rho (up, down):  1.462E-04 0.000E+00

     add environment contribution to local potential

     total cpu time spent up to now is       51.5 secs

     total energy              =    -735.32889320 Ry
     estimated scf accuracy    <       0.67072622 Ry
     electrostatic embedding   =       0.21746799 Ry
     correction to one-el term =       9.65941504 Ry

     iteration #  8     ecut=    35.00 Ry     beta= 0.20
     Davidson diagonalization with overlap

---- Real-time Memory Report at c_bands before calling an iterative solver
          1093 MiB given to the printing process from OS
             0 MiB allocation reported by mallinfo(arena+hblkhd)
         18917 MiB available memory on the node where the printing process lives
------------------
     ethr =  7.39E-05,  avg # of iterations =  2.0

     negative rho (up, down):  1.456E-04 0.000E+00

     add environment contribution to local potential

     total cpu time spent up to now is       58.8 secs

     total energy              =    -735.33557648 Ry
     estimated scf accuracy    <       0.01267751 Ry
     electrostatic embedding   =       0.21412866 Ry
     correction to one-el term =       9.25341049 Ry

     iteration #  9     ecut=    35.00 Ry     beta= 0.20
     Davidson diagonalization with overlap

---- Real-time Memory Report at c_bands before calling an iterative solver
          1097 MiB given to the printing process from OS
             0 MiB allocation reported by mallinfo(arena+hblkhd)
         18911 MiB available memory on the node where the printing process lives
------------------
     ethr =  1.42E-05,  avg # of iterations =  9.0

     negative rho (up, down):  1.505E-04 0.000E+00

     add environment contribution to local potential

     total cpu time spent up to now is       64.9 secs

     total energy              =    -735.33590912 Ry
     estimated scf accuracy    <       0.00511806 Ry
     electrostatic embedding   =       0.21232899 Ry
     correction to one-el term =       9.03676423 Ry

     iteration # 10     ecut=    35.00 Ry     beta= 0.20
     Davidson diagonalization with overlap

---- Real-time Memory Report at c_bands before calling an iterative solver
          1100 MiB given to the printing process from OS
             0 MiB allocation reported by mallinfo(arena+hblkhd)
         18906 MiB available memory on the node where the printing process lives
------------------
     ethr =  5.75E-06,  avg # of iterations =  5.0

     negative rho (up, down):  1.493E-04 0.000E+00

     add environment contribution to local potential

     total cpu time spent up to now is       72.4 secs

     total energy              =    -735.33535230 Ry
     estimated scf accuracy    <       0.00886300 Ry
     electrostatic embedding   =       0.20986017 Ry
     correction to one-el term =       8.74757861 Ry

     iteration # 11     ecut=    35.00 Ry     beta= 0.20
     Davidson diagonalization with overlap

---- Real-time Memory Report at c_bands before calling an iterative solver
          1100 MiB given to the printing process from OS
             0 MiB allocation reported by mallinfo(arena+hblkhd)
         18907 MiB available memory on the node where the printing process lives
------------------
     ethr =  5.75E-06,  avg # of iterations =  2.0

     negative rho (up, down):  1.471E-04 0.000E+00

     add environment contribution to local potential

     total cpu time spent up to now is       79.6 secs

     total energy              =    -735.33604926 Ry
     estimated scf accuracy    <       0.01322110 Ry
     electrostatic embedding   =       0.20891585 Ry
     correction to one-el term =       8.65429004 Ry

     iteration # 12     ecut=    35.00 Ry     beta= 0.20
     Davidson diagonalization with overlap

---- Real-time Memory Report at c_bands before calling an iterative solver
          1100 MiB given to the printing process from OS
             0 MiB allocation reported by mallinfo(arena+hblkhd)
         18908 MiB available memory on the node where the printing process lives
------------------
     ethr =  5.75E-06,  avg # of iterations =  1.0

     negative rho (up, down):  1.469E-04 0.000E+00

     add environment contribution to local potential

     total cpu time spent up to now is       86.1 secs

     total energy              =    -735.33609276 Ry
     estimated scf accuracy    <       0.00118399 Ry
     electrostatic embedding   =       0.20817553 Ry
     correction to one-el term =       8.58251121 Ry

     iteration # 13     ecut=    35.00 Ry     beta= 0.20
     Davidson diagonalization with overlap

---- Real-time Memory Report at c_bands before calling an iterative solver
          1100 MiB given to the printing process from OS
             0 MiB allocation reported by mallinfo(arena+hblkhd)
         18908 MiB available memory on the node where the printing process lives
------------------
     ethr =  1.33E-06,  avg # of iterations = 12.0

     negative rho (up, down):  1.455E-04 0.000E+00

     add environment contribution to local potential

     total cpu time spent up to now is       92.8 secs

     total energy              =    -735.33614053 Ry
     estimated scf accuracy    <       0.00006861 Ry
     electrostatic embedding   =       0.20691733 Ry
     correction to one-el term =       8.45746163 Ry

     iteration # 14     ecut=    35.00 Ry     beta= 0.20
     Davidson diagonalization with overlap

---- Real-time Memory Report at c_bands before calling an iterative solver
          1100 MiB given to the printing process from OS
             0 MiB allocation reported by mallinfo(arena+hblkhd)
         18908 MiB available memory on the node where the printing process lives
------------------
     ethr =  7.71E-08,  avg # of iterations =  2.0

     negative rho (up, down):  1.444E-04 0.000E+00

     add environment contribution to local potential

     total cpu time spent up to now is       99.5 secs

     total energy              =    -735.33615264 Ry
     estimated scf accuracy    <       0.00001457 Ry
     electrostatic embedding   =       0.20647014 Ry
     correction to one-el term =       8.41845042 Ry

     iteration # 15     ecut=    35.00 Ry     beta= 0.20
     Davidson diagonalization with overlap

---- Real-time Memory Report at c_bands before calling an iterative solver
          1100 MiB given to the printing process from OS
             0 MiB allocation reported by mallinfo(arena+hblkhd)
         18908 MiB available memory on the node where the printing process lives
------------------
     ethr =  1.64E-08,  avg # of iterations =  2.0

     negative rho (up, down):  1.436E-04 0.000E+00

     add environment contribution to local potential

     total cpu time spent up to now is      106.2 secs

     total energy              =    -735.33616183 Ry
     estimated scf accuracy    <       0.00000355 Ry
     electrostatic embedding   =       0.20610181 Ry
     correction to one-el term =       8.38711738 Ry

     iteration # 16     ecut=    35.00 Ry     beta= 0.20
     Davidson diagonalization with overlap

---- Real-time Memory Report at c_bands before calling an iterative solver
          1100 MiB given to the printing process from OS
             0 MiB allocation reported by mallinfo(arena+hblkhd)
         18908 MiB available memory on the node where the printing process lives
------------------
     ethr =  3.99E-09,  avg # of iterations =  2.0

     negative rho (up, down):  1.432E-04 0.000E+00

     add environment contribution to local potential

     total cpu time spent up to now is      113.4 secs

     total energy              =    -735.33616388 Ry
     estimated scf accuracy    <       0.00000186 Ry
     electrostatic embedding   =       0.20597470 Ry
     correction to one-el term =       8.37662319 Ry

     iteration # 17     ecut=    35.00 Ry     beta= 0.20
     Davidson diagonalization with overlap

---- Real-time Memory Report at c_bands before calling an iterative solver
          1100 MiB given to the printing process from OS
             0 MiB allocation reported by mallinfo(arena+hblkhd)
         18908 MiB available memory on the node where the printing process lives
------------------
     ethr =  2.09E-09,  avg # of iterations =  2.0

     negative rho (up, down):  1.431E-04 0.000E+00

     add environment contribution to local potential

     total cpu time spent up to now is      120.3 secs

     total energy              =    -735.33616638 Ry
     estimated scf accuracy    <       0.00000178 Ry
     electrostatic embedding   =       0.20574261 Ry
     correction to one-el term =       8.35706176 Ry

     iteration # 18     ecut=    35.00 Ry     beta= 0.20
     Davidson diagonalization with overlap

---- Real-time Memory Report at c_bands before calling an iterative solver
          1100 MiB given to the printing process from OS
             0 MiB allocation reported by mallinfo(arena+hblkhd)
         18908 MiB available memory on the node where the printing process lives
------------------
     ethr =  2.00E-09,  avg # of iterations =  2.0

     negative rho (up, down):  1.430E-04 0.000E+00

     add environment contribution to local potential

     total cpu time spent up to now is      126.9 secs

     total energy              =    -735.33616735 Ry
     estimated scf accuracy    <       0.00000036 Ry
     electrostatic embedding   =       0.20563033 Ry
     correction to one-el term =       8.34780844 Ry

     iteration # 19     ecut=    35.00 Ry     beta= 0.20
     Davidson diagonalization with overlap

---- Real-time Memory Report at c_bands before calling an iterative solver
          1100 MiB given to the printing process from OS
             0 MiB allocation reported by mallinfo(arena+hblkhd)
         18908 MiB available memory on the node where the printing process lives
------------------
     ethr =  4.01E-10,  avg # of iterations =  2.0

     negative rho (up, down):  1.430E-04 0.000E+00

     add environment contribution to local potential

     total cpu time spent up to now is      134.1 secs

     total energy              =    -735.33616763 Ry
     estimated scf accuracy    <       0.00000033 Ry
     electrostatic embedding   =       0.20557755 Ry
     correction to one-el term =       8.34338776 Ry

     iteration # 20     ecut=    35.00 Ry     beta= 0.20
     Davidson diagonalization with overlap

---- Real-time Memory Report at c_bands before calling an iterative solver
          1100 MiB given to the printing process from OS
             0 MiB allocation reported by mallinfo(arena+hblkhd)
         18907 MiB available memory on the node where the printing process lives
------------------
     ethr =  3.66E-10,  avg # of iterations =  3.0

     negative rho (up, down):  1.431E-04 0.000E+00

     add environment contribution to local potential

     total cpu time spent up to now is      140.9 secs

     total energy              =    -735.33616788 Ry
     estimated scf accuracy    <       0.00000007 Ry
     electrostatic embedding   =       0.20549497 Ry
     correction to one-el term =       8.33625819 Ry

     iteration # 21     ecut=    35.00 Ry     beta= 0.20
     Davidson diagonalization with overlap

---- Real-time Memory Report at c_bands before calling an iterative solver
          1100 MiB given to the printing process from OS
             0 MiB allocation reported by mallinfo(arena+hblkhd)
         18908 MiB available memory on the node where the printing process lives
------------------
     ethr =  8.05E-11,  avg # of iterations =  2.0

     negative rho (up, down):  1.432E-04 0.000E+00

     add environment contribution to local potential

     total cpu time spent up to now is      148.7 secs

     total energy              =    -735.33616792 Ry
     estimated scf accuracy    <       0.00000003 Ry
     electrostatic embedding   =       0.20548134 Ry
     correction to one-el term =       8.33512544 Ry

     iteration # 22     ecut=    35.00 Ry     beta= 0.20
     Davidson diagonalization with overlap

---- Real-time Memory Report at c_bands before calling an iterative solver
          1100 MiB given to the printing process from OS
             0 MiB allocation reported by mallinfo(arena+hblkhd)
         18907 MiB available memory on the node where the printing process lives
------------------
     ethr =  3.44E-11,  avg # of iterations =  3.0

     negative rho (up, down):  1.433E-04 0.000E+00

     add environment contribution to local potential

     total cpu time spent up to now is      156.1 secs

     total energy              =    -735.33616795 Ry
     estimated scf accuracy    <       0.00000002 Ry
     electrostatic embedding   =       0.20546797 Ry
     correction to one-el term =       8.33408769 Ry

     iteration # 23     ecut=    35.00 Ry     beta= 0.20
     Davidson diagonalization with overlap

---- Real-time Memory Report at c_bands before calling an iterative solver
          1100 MiB given to the printing process from OS
             0 MiB allocation reported by mallinfo(arena+hblkhd)
         18908 MiB available memory on the node where the printing process lives
------------------
     ethr =  2.52E-11,  avg # of iterations =  3.0

     negative rho (up, down):  1.434E-04 0.000E+00

     add environment contribution to local potential

     total cpu time spent up to now is      162.2 secs

     total energy              =    -735.33616798 Ry
     estimated scf accuracy    <       0.00000001 Ry
     electrostatic embedding   =       0.20546188 Ry
     correction to one-el term =       8.33370465 Ry

     iteration # 24     ecut=    35.00 Ry     beta= 0.20
     Davidson diagonalization with overlap

---- Real-time Memory Report at c_bands before calling an iterative solver
          1100 MiB given to the printing process from OS
             0 MiB allocation reported by mallinfo(arena+hblkhd)
         18908 MiB available memory on the node where the printing process lives
------------------
     ethr =  1.42E-11,  avg # of iterations =  2.0

     negative rho (up, down):  1.438E-04 0.000E+00

     the potential shift due to the Gaussian-smeared nuclei is    -0.4600 ev

     total cpu time spent up to now is      167.5 secs

     End of self-consistent calculation

          k = 0.0000 0.0000 0.0000 ( 14571 PWs)   bands (ev):

   -29.5139 -16.0505 -14.4625 -13.1898 -13.0066 -12.3970 -12.3747 -12.3012
   -12.1209 -11.2573 -11.1355 -11.0099 -10.7946 -10.7700 -10.6923 -10.5581
    -9.8566  -9.8307  -9.7702  -9.5782  -9.5571  -9.5066  -9.4697  -9.4225
    -9.4041  -9.2209  -9.1923  -9.0646  -8.9766  -8.7420  -8.6509  -7.8743
    -7.7702  -7.4842  -7.2645  -7.2030  -7.1340  -6.9889  -6.8029  -6.7174
    -6.5489  -6.5349  -6.3223  -6.3218  -6.2845  -6.1246  -5.9607  -4.8080
    -4.5895  -4.5090  -3.8299  -3.1924  -3.0323  -2.0083  -1.7319  -1.6933
    -1.0211  -0.7053  -0.3906  -0.0147   0.0908   0.6793   1.1129   1.3584
     1.8850   2.1742   2.3825   2.5954   2.6951   2.9475   3.5587   3.6926
     3.8376   3.9178   4.3498   4.5995   4.6642   4.7012   4.9916   5.0921

     occupation numbers 
     1.0000   1.0000   1.0000   1.0000   1.0000   1.0000   1.0000   1.0000
     1.0000   1.0000   1.0000   1.0000   1.0000   1.0000   1.0000   1.0000
     1.0000   1.0000   1.0000   1.0000   1.0000   1.0000   1.0000   1.0000
     1.0000   1.0000   1.0000   1.0000   1.0000   1.0000   1.0000   1.0000
     1.0000   1.0006   1.0063   1.0106   1.0181   1.0440   1.0812   1.0801
     0.9884   0.9740   0.6474   0.6466   0.5777   0.3051   0.1199   0.0000
     0.0000   0.0000   0.0000   0.0000   0.0000   0.0000   0.0000   0.0000
     0.0000   0.0000   0.0000   0.0000   0.0000   0.0000   0.0000   0.0000
     0.0000   0.0000   0.0000   0.0000   0.0000   0.0000   0.0000   0.0000
     0.0000   0.0000   0.0000   0.0000   0.0000   0.0000   0.0000   0.0000

     the Fermi energy is    -6.1851 ev

!    total energy              =    -735.33616801 Ry
     estimated scf accuracy    <          3.5E-09 Ry
     smearing contrib. (-TS)   =      -0.00069821 Ry
     internal energy E=F+TS    =    -735.33546980 Ry

     The total energy is F=E-TS. E is the sum of the following terms:
     one-electron contribution =   -3941.38990622 Ry
     hartree contribution      =    2003.01343388 Ry
     xc contribution           =    -378.70321805 Ry
     ewald contribution        =    1573.20467954 Ry
     electrostatic embedding   =       0.20546462 Ry
     correction to one-el term =       8.33407644 Ry

     WARNING: you are using the parabolic pbc correction;
              the potential shift above must be added to 
              band and Fermi energies.

     convergence has been achieved in  24 iterations

     negative rho (up, down):  1.438E-04 0.000E+00
     The dielectric solvent contribution to forces
     atom    1 type  1   force =     0.00006746    0.00580452   -0.05857153
     atom    2 type  2   force =     0.00001814    0.00423130   -0.32504535
     atom    3 type  3   force =    -0.00088817   -0.00375325    0.12465087
     atom    4 type  3   force =     0.00090214   -0.00376778    0.12472703
     atom    5 type  3   force =    -0.00015412    0.00208658    0.10115030
     atom    6 type  3   force =     0.00008208    0.00499516    0.08402876
     atom    7 type  3   force =    -0.00048116    0.00755394   -0.14743102
     atom    8 type  3   force =     0.00040008    0.00886588   -0.13662496
     atom    9 type  3   force =    -0.00911959   -0.00722199   -0.15823109
     atom   10 type  3   force =     0.00915191   -0.00726408   -0.15885969


     Forces acting on atoms (cartesian axes, Ry/au):

     atom    1 type  1   force =    -0.00004508   -0.00444624    0.08318775
     atom    2 type  2   force =     0.00001844    0.00141586   -0.05995403
     atom    3 type  3   force =     0.00039243    0.01400304    0.03298820
     atom    4 type  3   force =     0.00065415    0.01429531    0.03370386
     atom    5 type  3   force =    -0.00180094    0.01274843   -0.00362417
     atom    6 type  3   force =     0.00079625    0.00781762    0.04274159
     atom    7 type  3   force =    -0.00151854   -0.01435884   -0.03743292
     atom    8 type  3   force =     0.00045196   -0.02021887   -0.02042847
     atom    9 type  3   force =     0.01747096   -0.00580736   -0.03582439
     atom   10 type  3   force =    -0.01641962   -0.00544895   -0.03535742
     The non-local contrib.  to forces
     atom    1 type  1   force =    -0.00008247   -0.00751195    0.58227300
     atom    2 type  2   force =     0.00019186    0.03854063   -2.92602287
     atom    3 type  3   force =    -0.02660347   -0.00123517   -0.10384573
     atom    4 type  3   force =     0.02670797   -0.00106697   -0.10430459
     atom    5 type  3   force =     0.00100013    0.00435686   -0.15556602
     atom    6 type  3   force =    -0.00081089   -0.01672650    0.50090874
     atom    7 type  3   force =     0.00061473    0.02494355    0.06461008
     atom    8 type  3   force =    -0.00091636   -0.01816669    0.09210539
     atom    9 type  3   force =     0.01907100   -0.00383356    0.05440791
     atom   10 type  3   force =    -0.01897639   -0.00350702    0.05320616
     The ionic contribution  to forces
     atom    1 type  1   force =     0.00636806    0.05296760   19.96835427
     atom    2 type  2   force =     0.00226724   -0.13041391   48.33963012
     atom    3 type  3   force =     0.50324609   -0.09020628   30.03736972
     atom    4 type  3   force =    -0.49292694   -0.08303178   30.06216876
     atom    5 type  3   force =    -0.07802400    0.12039865   29.68099553
     atom    6 type  3   force =     0.05586768    0.10046245   29.12582959
     atom    7 type  3   force =    -0.06942211   -0.08855591  -48.10896481
     atom    8 type  3   force =     0.05843526    0.13450123  -45.70999247
     atom    9 type  3   force =     0.08482129   -0.01166389  -46.71013044
     atom   10 type  3   force =    -0.07063256   -0.00445817  -46.68526027
     The local contribution  to forces
     atom    1 type  1   force =    -0.00641312   -0.05569918  -20.40832718
     atom    2 type  2   force =    -0.00247393    0.08906300  -45.14801093
     atom    3 type  3   force =    -0.47806879    0.11273729  -30.01417714
     atom    4 type  3   force =     0.46882343    0.10561046  -30.03805582
     atom    5 type  3   force =     0.07491789   -0.11038592  -29.62550944
     atom    6 type  3   force =    -0.05409853   -0.07719904  -29.73623605
     atom    7 type  3   force =     0.06725857    0.03415256   48.14123339
     atom    8 type  3   force =    -0.05711899   -0.14105793   45.71841688
     atom    9 type  3   force =    -0.08463215    0.01267563   46.76166360
     atom   10 type  3   force =     0.07153233    0.00551730   46.73891810
     The core correction contribution to forces
     atom    1 type  1   force =     0.00000000    0.00000000    0.00000000
     atom    2 type  2   force =     0.00000000    0.00000000    0.00000000
     atom    3 type  3   force =     0.00269945   -0.00353819   -0.01041035
     atom    4 type  3   force =    -0.00287549   -0.00344728   -0.01023247
     atom    5 type  3   force =     0.00044301   -0.00370186   -0.00408592
     atom    6 type  3   force =    -0.00025823   -0.00369749    0.06879453
     atom    7 type  3   force =     0.00049624    0.00755257    0.01371642
     atom    8 type  3   force =    -0.00036265   -0.00437356    0.01624596
     atom    9 type  3   force =     0.00734461    0.00425110    0.01707444
     atom   10 type  3   force =    -0.00753947    0.00427815    0.01724983
     The Hubbard contrib.    to forces
     atom    1 type  1   force =     0.00000000    0.00000000    0.00000000
     atom    2 type  2   force =     0.00000000    0.00000000    0.00000000
     atom    3 type  3   force =     0.00000000    0.00000000    0.00000000
     atom    4 type  3   force =     0.00000000    0.00000000    0.00000000
     atom    5 type  3   force =     0.00000000    0.00000000    0.00000000
     atom    6 type  3   force =     0.00000000    0.00000000    0.00000000
     atom    7 type  3   force =     0.00000000    0.00000000    0.00000000
     atom    8 type  3   force =     0.00000000    0.00000000    0.00000000
     atom    9 type  3   force =     0.00000000    0.00000000    0.00000000
     atom   10 type  3   force =     0.00000000    0.00000000    0.00000000
     The SCF correction term to forces
     atom    1 type  1   force =    -0.00000016   -0.00000155    0.00001938
     atom    2 type  2   force =    -0.00000003    0.00000053    0.00005520
     atom    3 type  3   force =    -0.00000781    0.00000431   -0.00003897
     atom    4 type  3   force =     0.00000790    0.00000434   -0.00003886
     atom    5 type  3   force =     0.00000100   -0.00000020   -0.00004843
     atom    6 type  3   force =    -0.00000100   -0.00001127   -0.00002377
     atom    7 type  3   force =     0.00000005    0.00000013   -0.00003680
     atom    8 type  3   force =    -0.00000052    0.00001787   -0.00001908
     atom    9 type  3   force =    -0.00002934   -0.00000896   -0.00004861
     atom   10 type  3   force =     0.00002943   -0.00000946   -0.00005134

     Total force =     0.144350     Total SCF correction =     0.000136


     init_run     :      5.61s CPU      5.89s WALL (       1 calls)
     electrons    :    150.47s CPU    161.55s WALL (       1 calls)
     forces       :      5.50s CPU      5.74s WALL (       1 calls)

     Called by init_run:
     wfcinit      :      0.53s CPU      0.53s WALL (       1 calls)
     wfcinit:atom :      0.00s CPU      0.00s WALL (       1 calls)
     wfcinit:wfcr :      0.50s CPU      0.51s WALL (       1 calls)
     potinit      :      1.78s CPU      1.81s WALL (       1 calls)
     hinit0       :      2.70s CPU      2.73s WALL (       1 calls)

     Called by electrons:
     c_bands      :     45.28s CPU     46.52s WALL (      24 calls)
     sum_band     :     27.67s CPU     31.76s WALL (      24 calls)
     v_of_rho     :      7.52s CPU      8.74s WALL (      25 calls)
     v_h          :      0.25s CPU      0.27s WALL (      25 calls)
     v_xc         :      7.60s CPU      8.80s WALL (      26 calls)
     newd         :     15.80s CPU     20.13s WALL (      25 calls)
     mix_rho      :      0.96s CPU      0.97s WALL (      24 calls)

     Called by c_bands:
     init_us_2    :      0.36s CPU      0.37s WALL (      49 calls)
     init_us_2:cp :      0.36s CPU      0.37s WALL (      49 calls)
     cegterg      :     44.27s CPU     45.51s WALL (      24 calls)

     Called by sum_band:
     sum_band:wei :      0.00s CPU      0.00s WALL (      24 calls)
     sum_band:loo :      7.60s CPU      7.89s WALL (      24 calls)
     sum_band:buf :      0.00s CPU      0.00s WALL (      24 calls)
     sum_band:ini :      0.20s CPU      0.20s WALL (      24 calls)
     sum_band:cal :      0.81s CPU      0.81s WALL (      24 calls)
     sum_band:bec :      0.00s CPU      0.00s WALL (      24 calls)
     addusdens    :     19.71s CPU     23.52s WALL (      24 calls)
     addusd:skk   :      0.33s CPU      0.40s WALL (      72 calls)
     addusd:dgemm :      2.20s CPU      5.47s WALL (      72 calls)
     addusd:qvan2 :     14.05s CPU     14.10s WALL (      72 calls)

     Called by *egterg:
     cdiaghg      :      0.74s CPU      0.75s WALL (     117 calls)
     cegterg:over :      3.08s CPU      3.08s WALL (      93 calls)
     cegterg:upda :      1.75s CPU      1.87s WALL (      93 calls)
     cegterg:last :      4.54s CPU      4.54s WALL (      50 calls)
     h_psi        :     30.90s CPU     31.88s WALL (     118 calls)
     s_psi        :      2.02s CPU      2.05s WALL (     118 calls)
     g_psi        :      0.18s CPU      0.18s WALL (      93 calls)

     Called by h_psi:
     h_psi:calbec :      2.04s CPU      2.04s WALL (     118 calls)
     vloc_psi     :     26.67s CPU     27.55s WALL (     118 calls)
     add_vuspsi   :      2.02s CPU      2.03s WALL (     118 calls)

     General routines
     calbec       :      3.02s CPU      3.02s WALL (     146 calls)
     fft          :      2.29s CPU      2.57s WALL (     334 calls)
     ffts         :      0.14s CPU      0.14s WALL (      49 calls)
     fftw         :     28.91s CPU     29.60s WALL (   10828 calls)
     interpolate  :      0.29s CPU      0.29s WALL (      25 calls)

     Parallel routines

     Environ routines

     PWSCF        :   2m41.67s CPU   2m53.30s WALL


   This run was terminated on:  21:53:41   2May2022            

=------------------------------------------------------------------------------=
   JOB DONE.
=------------------------------------------------------------------------------=
