
     Program PWSCF v.6.7MaX starts on 25Sep2021 at 12:14:22 

     This program is part of the open-source Quantum ESPRESSO suite
     for quantum simulation of materials; please cite
         "P. Giannozzi et al., J. Phys.:Condens. Matter 21 395502 (2009);
         "P. Giannozzi et al., J. Phys.:Condens. Matter 29 465901 (2017);
          URL http://www.quantum-espresso.org", 
     in publications or presentations arising from this work. More details at
     http://www.quantum-espresso.org/quote

     Parallel version (MPI), running on     8 processors

     MPI processes distributed on     1 nodes
     R & G space division:  proc/nbgrp/npool/nimage =       8
     Waiting for input...
     Reading input from standard input
Warning: card &CELL ignored
Warning: card / ignored

     Current dimensions of program PWSCF are:
     Max number of different atomic species (ntypx) = 10
     Max number of k-points (npk) =  40000
     Max angular momentum in pseudopotentials (lmaxx) =  3

     Reading input from environ.in

     ================================================================================

     Reading ENVIRON namelist

     Reading BOUNDARY namelist

     Checking boundary derivatives
     derivatives               = chain          ! SCCS default

     Reading ELECTROSTATIC namelist

     Setting up electrostatic problem
     problem                   = generalized    
     solver                    = fixed-point    ! gcs correction requires fixed-point solver
     auxiliary                 = full           

     Checking PBC correction

     ================================================================================
 

     Subspace diagonalization in iterative solution of the eigenvalue problem:
     a serial algorithm will be used

     Message from routine setup:
     using ibrav=0 with symmetry is DISCOURAGED, use correct ibrav instead
 
     Parallelization info
     --------------------
     sticks:   dense  smooth     PW     G-vecs:    dense   smooth      PW
     Min          92      36     12                34688     8766    1652
     Max          93      37     13                34713     8833    1693
     Sum         741     293     97               277595    70411   13373
 


     bravais-lattice index     =            0
     lattice parameter (alat)  =       5.5435  a.u.
     unit-cell volume          =    3161.5726 (a.u.)^3
     number of atoms/cell      =            8
     number of atomic types    =            1
     number of electrons       =        87.50
     number of Kohn-Sham states=           53
     kinetic-energy cutoff     =      30.0000  Ry
     charge density cutoff     =     300.0000  Ry
     scf convergence threshold =      5.0E-09
     mixing beta               =       0.7000
     number of iterations used =            8  plain     mixing
     Exchange-correlation= PBE
                           (   1   4   3   4   0   0   0)
 

     Environ Module
     ==============

     Please cite
         O. Andreussi, I. Dabo and N. Marzari, J. Chem. Phys. 136, 064102 (2012)         
     in publications or presentations arising from this work.

     compensation onset threshold      =               0.1000E+03
     static permittivity               =                    80.00
     epsilon calculation mode          =                     full

     Electrostatic Setup
     -------------------
     electrostatic problem to solve    = generalized             
     numerical solver adopted          = fixed-point             
     type of auxiliary density adopted = full                    
     type of core tool for poisson     = fft                     
     type of core tool for correction  = 1d-analytic             



     celldm(1)=   5.543526  celldm(2)=   0.000000  celldm(3)=   0.000000
     celldm(4)=   0.000000  celldm(5)=   0.000000  celldm(6)=   0.000000

     crystal axes: (cart. coord. in units of alat)
               a(1) = (   1.000000   0.000000   0.000000 )  
               a(2) = (   0.000000   1.000000   0.000000 )  
               a(3) = (   0.000000   0.000000  18.558586 )  

     reciprocal axes: (cart. coord. in units 2 pi/alat)
               b(1) = (  1.000000  0.000000  0.000000 )  
               b(2) = (  0.000000  1.000000  0.000000 )  
               b(3) = (  0.000000  0.000000  0.053883 )  


     PseudoPot. # 1 for Ag read from file:
     /home/simplogic86/Work/QE1/pseudo/Ag.pbe-n-rrkjus_psl.1.0.0.UPF
     MD5 check sum: d841cbfac2b0861aec33b46768a516bf
     Pseudo is Ultrasoft + core correction, Zval = 11.0
     Generated using &quot;atomic&quot; code by A. Dal Corso  v.6.2.2
     Using radial grid of 1237 points,  6 beta functions with: 
                l(1) =   0
                l(2) =   0
                l(3) =   1
                l(4) =   1
                l(5) =   2
                l(6) =   2
     Q(r) pseudized with 0 coefficients 


     atomic species   valence    mass     pseudopotential
        Ag            11.00   107.86820     Ag( 1.00)

     16 Sym. Ops., with inversion, found ( 8 have fractional translation)


                                    s                        frac. trans.

      isym =  1     identity                                     

 cryst.   s( 1) = (     1          0          0      )
                  (     0          1          0      )
                  (     0          0          1      )

 cart.    s( 1) = (  1.0000000  0.0000000  0.0000000 )
                  (  0.0000000  1.0000000  0.0000000 )
                  (  0.0000000  0.0000000  1.0000000 )


      isym =  2     180 deg rotation - cart. axis [0,0,1]        

 cryst.   s( 2) = (    -1          0          0      )
                  (     0         -1          0      )
                  (     0          0          1      )

 cart.    s( 2) = ( -1.0000000  0.0000000  0.0000000 )
                  (  0.0000000 -1.0000000  0.0000000 )
                  (  0.0000000  0.0000000  1.0000000 )


      isym =  3     180 deg rotation - cart. axis [0,1,0]        

 cryst.   s( 3) = (    -1          0          0      )    f =(  0.5000000 )
                  (     0          1          0      )       (  0.5000000 )
                  (     0          0         -1      )       ( -0.0000000 )

 cart.    s( 3) = ( -1.0000000  0.0000000  0.0000000 )    f =(  0.5000000 )
                  (  0.0000000  1.0000000  0.0000000 )       (  0.5000000 )
                  (  0.0000000  0.0000000 -1.0000000 )       ( -0.0000000 )


      isym =  4     180 deg rotation - cart. axis [1,0,0]        

 cryst.   s( 4) = (     1          0          0      )    f =(  0.5000000 )
                  (     0         -1          0      )       (  0.5000000 )
                  (     0          0         -1      )       ( -0.0000000 )

 cart.    s( 4) = (  1.0000000  0.0000000  0.0000000 )    f =(  0.5000000 )
                  (  0.0000000 -1.0000000  0.0000000 )       (  0.5000000 )
                  (  0.0000000  0.0000000 -1.0000000 )       ( -0.0000000 )


      isym =  5     180 deg rotation - cart. axis [1,1,0]        

 cryst.   s( 5) = (     0          1          0      )    f =(  0.5000000 )
                  (     1          0          0      )       (  0.5000000 )
                  (     0          0         -1      )       ( -0.0000000 )

 cart.    s( 5) = (  0.0000000  1.0000000  0.0000000 )    f =(  0.5000000 )
                  (  1.0000000  0.0000000  0.0000000 )       (  0.5000000 )
                  (  0.0000000  0.0000000 -1.0000000 )       ( -0.0000000 )


      isym =  6     180 deg rotation - cart. axis [1,-1,0]       

 cryst.   s( 6) = (     0         -1          0      )    f =(  0.5000000 )
                  (    -1          0          0      )       (  0.5000000 )
                  (     0          0         -1      )       ( -0.0000000 )

 cart.    s( 6) = (  0.0000000 -1.0000000  0.0000000 )    f =(  0.5000000 )
                  ( -1.0000000  0.0000000  0.0000000 )       (  0.5000000 )
                  (  0.0000000  0.0000000 -1.0000000 )       ( -0.0000000 )


      isym =  7      90 deg rotation - cart. axis [0,0,-1]       

 cryst.   s( 7) = (     0         -1          0      )
                  (     1          0          0      )
                  (     0          0          1      )

 cart.    s( 7) = (  0.0000000  1.0000000  0.0000000 )
                  ( -1.0000000  0.0000000  0.0000000 )
                  (  0.0000000  0.0000000  1.0000000 )


      isym =  8      90 deg rotation - cart. axis [0,0,1]        

 cryst.   s( 8) = (     0          1          0      )
                  (    -1          0          0      )
                  (     0          0          1      )

 cart.    s( 8) = (  0.0000000 -1.0000000  0.0000000 )
                  (  1.0000000  0.0000000  0.0000000 )
                  (  0.0000000  0.0000000  1.0000000 )


      isym =  9     inversion                                    

 cryst.   s( 9) = (    -1          0          0      )    f =(  0.5000000 )
                  (     0         -1          0      )       (  0.5000000 )
                  (     0          0         -1      )       ( -0.0000000 )

 cart.    s( 9) = ( -1.0000000  0.0000000  0.0000000 )    f =(  0.5000000 )
                  (  0.0000000 -1.0000000  0.0000000 )       (  0.5000000 )
                  (  0.0000000  0.0000000 -1.0000000 )       ( -0.0000000 )


      isym = 10     inv. 180 deg rotation - cart. axis [0,0,1]   

 cryst.   s(10) = (     1          0          0      )    f =(  0.5000000 )
                  (     0          1          0      )       (  0.5000000 )
                  (     0          0         -1      )       ( -0.0000000 )

 cart.    s(10) = (  1.0000000  0.0000000  0.0000000 )    f =(  0.5000000 )
                  (  0.0000000  1.0000000  0.0000000 )       (  0.5000000 )
                  (  0.0000000  0.0000000 -1.0000000 )       ( -0.0000000 )


      isym = 11     inv. 180 deg rotation - cart. axis [0,1,0]   

 cryst.   s(11) = (     1          0          0      )
                  (     0         -1          0      )
                  (     0          0          1      )

 cart.    s(11) = (  1.0000000  0.0000000  0.0000000 )
                  (  0.0000000 -1.0000000  0.0000000 )
                  (  0.0000000  0.0000000  1.0000000 )


      isym = 12     inv. 180 deg rotation - cart. axis [1,0,0]   

 cryst.   s(12) = (    -1          0          0      )
                  (     0          1          0      )
                  (     0          0          1      )

 cart.    s(12) = ( -1.0000000  0.0000000  0.0000000 )
                  (  0.0000000  1.0000000  0.0000000 )
                  (  0.0000000  0.0000000  1.0000000 )


      isym = 13     inv. 180 deg rotation - cart. axis [1,1,0]   

 cryst.   s(13) = (     0         -1          0      )
                  (    -1          0          0      )
                  (     0          0          1      )

 cart.    s(13) = (  0.0000000 -1.0000000  0.0000000 )
                  ( -1.0000000  0.0000000  0.0000000 )
                  (  0.0000000  0.0000000  1.0000000 )


      isym = 14     inv. 180 deg rotation - cart. axis [1,-1,0]  

 cryst.   s(14) = (     0          1          0      )
                  (     1          0          0      )
                  (     0          0          1      )

 cart.    s(14) = (  0.0000000  1.0000000  0.0000000 )
                  (  1.0000000  0.0000000  0.0000000 )
                  (  0.0000000  0.0000000  1.0000000 )


      isym = 15     inv.  90 deg rotation - cart. axis [0,0,-1]  

 cryst.   s(15) = (     0          1          0      )    f =(  0.5000000 )
                  (    -1          0          0      )       (  0.5000000 )
                  (     0          0         -1      )       ( -0.0000000 )

 cart.    s(15) = (  0.0000000 -1.0000000  0.0000000 )    f =(  0.5000000 )
                  (  1.0000000  0.0000000  0.0000000 )       (  0.5000000 )
                  (  0.0000000  0.0000000 -1.0000000 )       ( -0.0000000 )


      isym = 16     inv.  90 deg rotation - cart. axis [0,0,1]   

 cryst.   s(16) = (     0         -1          0      )    f =(  0.5000000 )
                  (     1          0          0      )       (  0.5000000 )
                  (     0          0         -1      )       ( -0.0000000 )

 cart.    s(16) = (  0.0000000  1.0000000  0.0000000 )    f =(  0.5000000 )
                  ( -1.0000000  0.0000000  0.0000000 )       (  0.5000000 )
                  (  0.0000000  0.0000000 -1.0000000 )       ( -0.0000000 )


   Cartesian axes

     site n.     atom                  positions (alat units)
         1           Ag  tau(   1) = (   0.5000000   0.5000000   6.8177767  )
         2           Ag  tau(   2) = (   0.0000000   0.0000000   7.5110323  )
         3           Ag  tau(   3) = (   0.5000000   0.5000000   8.2185960  )
         4           Ag  tau(   4) = (   0.0000000   0.0000000   8.9261320  )
         5           Ag  tau(   5) = (   0.5000000   0.5000000   9.6324544  )
         6           Ag  tau(   6) = (   0.0000000   0.0000000  10.3399904  )
         7           Ag  tau(   7) = (   0.5000000   0.5000000  11.0475540  )
         8           Ag  tau(   8) = (   0.0000000   0.0000000  11.7408097  )

   Crystallographic axes

     site n.     atom                  positions (cryst. coord.)
         1           Ag  tau(   1) = (  0.5000000  0.5000000  0.3673651  )
         2           Ag  tau(   2) = (  0.0000000  0.0000000  0.4047201  )
         3           Ag  tau(   3) = (  0.5000000  0.5000000  0.4428460  )
         4           Ag  tau(   4) = (  0.0000000  0.0000000  0.4809705  )
         5           Ag  tau(   5) = (  0.5000000  0.5000000  0.5190295  )
         6           Ag  tau(   6) = (  0.0000000  0.0000000  0.5571540  )
         7           Ag  tau(   7) = (  0.5000000  0.5000000  0.5952799  )
         8           Ag  tau(   8) = (  0.0000000  0.0000000  0.6326349  )

     number of k points=     3  Marzari-Vanderbilt smearing, width (Ry)=  0.0200
                       cart. coord. in units 2pi/alat
        k(    1) = (   0.0000000   0.0000000   0.0000000), wk =   0.5000000
        k(    2) = (   0.0000000  -0.5000000   0.0000000), wk =   1.0000000
        k(    3) = (  -0.5000000  -0.5000000   0.0000000), wk =   0.5000000

                       cryst. coord.
        k(    1) = (   0.0000000   0.0000000   0.0000000), wk =   0.5000000
        k(    2) = (   0.0000000  -0.5000000   0.0000000), wk =   1.0000000
        k(    3) = (  -0.5000000  -0.5000000   0.0000000), wk =   0.5000000

     Dense  grid:   277595 G-vectors     FFT dimensions: (  32,  32, 576)

     Smooth grid:    70411 G-vectors     FFT dimensions: (  20,  20, 360)

     Dynamical RAM for                 wfc:       0.89 MB

     Dynamical RAM for     wfc (w. buffer):       3.55 MB

     Dynamical RAM for           str. fact:       0.53 MB

     Dynamical RAM for           local pot:       0.00 MB

     Dynamical RAM for          nlocal pot:       2.41 MB

     Dynamical RAM for                qrad:       1.39 MB

     Dynamical RAM for          rho,v,vnew:       3.28 MB

     Dynamical RAM for               rhoin:       1.09 MB

     Dynamical RAM for            rho*nmix:       8.47 MB

     Dynamical RAM for           G-vectors:       2.05 MB

     Dynamical RAM for          h,s,v(r/c):       0.51 MB

     Dynamical RAM for          <psi|beta>:       0.12 MB

     Dynamical RAM for                 psi:       1.77 MB

     Dynamical RAM for                hpsi:       1.77 MB

     Dynamical RAM for                spsi:       1.77 MB

     Dynamical RAM for      wfcinit/wfcrot:       2.53 MB

     Dynamical RAM for           addusdens:     102.76 MB

     Dynamical RAM for          addusforce:     110.47 MB

     Estimated static dynamical RAM per process >      26.64 MB

     Estimated max dynamical RAM per process >     137.11 MB

     Estimated total dynamical RAM >       1.07 GB
Warning: wrong integral of erfc function


     Initial potential from superposition of free atoms

     starting charge   87.99681, renormalised to   87.50000

     negative rho (up, down):  3.125E-04 0.000E+00
     Starting wfcs are   72 randomized atomic wfcs

     total cpu time spent up to now is        8.0 secs

     Self-consistent Calculation

     iteration #  1     ecut=    30.00 Ry     beta= 0.70
     Davidson diagonalization with overlap
     ethr =  1.00E-02,  avg # of iterations =  5.7

     total cpu time spent up to now is       12.2 secs

     total energy              =    -543.73161160 Ry
     estimated scf accuracy    <     146.27981688 Ry
     electrostatic embedding   =       0.02186097 Ry
     electrolyte free energy   =       0.00107216 Ry
     correction to one-el term =       0.00000000 Ry

     iteration #  2     ecut=    30.00 Ry     beta= 0.70
     Davidson diagonalization with overlap
     ethr =  1.00E-02,  avg # of iterations = 31.0

     negative rho (up, down):  5.625E-06 0.000E+00

     total cpu time spent up to now is       22.8 secs

     total energy              =    -548.98953255 Ry
     estimated scf accuracy    <    9595.11030234 Ry
     electrostatic embedding   =       0.02186097 Ry
     electrolyte free energy   =       0.00107216 Ry
     correction to one-el term =       0.00000000 Ry

     iteration #  3     ecut=    30.00 Ry     beta= 0.70
     Davidson diagonalization with overlap
     ethr =  1.00E-02,  avg # of iterations = 18.3

     negative rho (up, down):  1.298E-04 0.000E+00

     total cpu time spent up to now is       43.3 secs

     total energy              =    -627.59629802 Ry
     estimated scf accuracy    <    3027.89295462 Ry
     electrostatic embedding   =       0.02186097 Ry
     electrolyte free energy   =       0.00107216 Ry
     correction to one-el term =       0.00000000 Ry

     iteration #  4     ecut=    30.00 Ry     beta= 0.70
     Davidson diagonalization with overlap
     c_bands:  1 eigenvalues not converged
     ethr =  1.00E-02,  avg # of iterations = 18.0

     negative rho (up, down):  3.525E-05 0.000E+00

     total cpu time spent up to now is       48.9 secs

     total energy              =    -666.36049369 Ry
     estimated scf accuracy    <     244.09044147 Ry
     electrostatic embedding   =       0.02186097 Ry
     electrolyte free energy   =       0.00107216 Ry
     correction to one-el term =       0.00000000 Ry

     iteration #  5     ecut=    30.00 Ry     beta= 0.70
     Davidson diagonalization with overlap
     ethr =  1.00E-02,  avg # of iterations =  8.7

     negative rho (up, down):  6.440E-06 0.000E+00

     add environment contribution to local potential

     total cpu time spent up to now is       61.3 secs

     total energy              =    -667.94235123 Ry
     estimated scf accuracy    <      85.83471228 Ry
     electrostatic embedding   =       0.02186097 Ry
     electrolyte free energy   =       0.00107216 Ry
     correction to one-el term =       0.00000000 Ry

     iteration #  6     ecut=    30.00 Ry     beta= 0.70
     Davidson diagonalization with overlap
     ethr =  1.00E-02,  avg # of iterations =  8.7

     negative rho (up, down):  6.911E-08 0.000E+00

     add environment contribution to local potential

     total cpu time spent up to now is       73.5 secs

     total energy              =    -672.40647132 Ry
     estimated scf accuracy    <       3.07629385 Ry
     electrostatic embedding   =      -0.17734669 Ry
     electrolyte free energy   =      -0.00029707 Ry
     correction to one-el term =     -25.90712705 Ry

     iteration #  7     ecut=    30.00 Ry     beta= 0.70
     Davidson diagonalization with overlap
     ethr =  3.52E-03,  avg # of iterations =  1.7

     negative rho (up, down):  1.597E-08 0.000E+00

     add environment contribution to local potential

     total cpu time spent up to now is       82.8 secs

     total energy              =    -672.26489888 Ry
     estimated scf accuracy    <       4.65810152 Ry
     electrostatic embedding   =      -0.22688265 Ry
     electrolyte free energy   =      -0.00062119 Ry
     correction to one-el term =     -25.86133975 Ry

     iteration #  8     ecut=    30.00 Ry     beta= 0.70
     Davidson diagonalization with overlap
     ethr =  3.52E-03,  avg # of iterations =  1.0

     add environment contribution to local potential

     total cpu time spent up to now is       92.4 secs

     total energy              =    -672.03398374 Ry
     estimated scf accuracy    <       3.66752952 Ry
     electrostatic embedding   =      -0.26494668 Ry
     electrolyte free energy   =      -0.00059117 Ry
     correction to one-el term =     -33.38322894 Ry

     iteration #  9     ecut=    30.00 Ry     beta= 0.70
     Davidson diagonalization with overlap
     ethr =  3.52E-03,  avg # of iterations =  1.7

     add environment contribution to local potential

     total cpu time spent up to now is      101.5 secs

     total energy              =    -671.86476705 Ry
     estimated scf accuracy    <       5.42803063 Ry
     electrostatic embedding   =      -0.32665883 Ry
     electrolyte free energy   =      -0.00045654 Ry
     correction to one-el term =     -48.07653899 Ry

     iteration # 10     ecut=    30.00 Ry     beta= 0.70
     Davidson diagonalization with overlap
     ethr =  3.52E-03,  avg # of iterations =  1.3

     negative rho (up, down):  1.699E-08 0.000E+00

     add environment contribution to local potential

     total cpu time spent up to now is      108.0 secs

     total energy              =    -671.65695430 Ry
     estimated scf accuracy    <       2.03587270 Ry
     electrostatic embedding   =      -0.32223946 Ry
     electrolyte free energy   =      -0.00026133 Ry
     correction to one-el term =     -55.23753989 Ry

     iteration # 11     ecut=    30.00 Ry     beta= 0.70
     Davidson diagonalization with overlap
     ethr =  2.33E-03,  avg # of iterations =  5.3

     negative rho (up, down):  2.835E-05 0.000E+00

     add environment contribution to local potential

     total cpu time spent up to now is      121.4 secs

     total energy              =    -673.51536290 Ry
     estimated scf accuracy    <       5.46385608 Ry
     electrostatic embedding   =      -0.31549838 Ry
     electrolyte free energy   =      -0.00015243 Ry
     correction to one-el term =     -65.98300436 Ry

     iteration # 12     ecut=    30.00 Ry     beta= 0.70
     Davidson diagonalization with overlap
     ethr =  2.33E-03,  avg # of iterations =  8.3

     negative rho (up, down):  4.909E-05 0.000E+00

     add environment contribution to local potential

     total cpu time spent up to now is      133.2 secs

     total energy              =    -673.43569516 Ry
     estimated scf accuracy    <       8.96392139 Ry
     electrostatic embedding   =      -0.14145970 Ry
     electrolyte free energy   =      -0.00014750 Ry
     correction to one-el term =     -47.95942273 Ry

     iteration # 13     ecut=    30.00 Ry     beta= 0.70
     Davidson diagonalization with overlap
     ethr =  2.33E-03,  avg # of iterations =  1.3

     negative rho (up, down):  6.883E-05 0.000E+00

     add environment contribution to local potential

     total cpu time spent up to now is      138.0 secs

     total energy              =    -673.43085248 Ry
     estimated scf accuracy    <       8.75088235 Ry
     electrostatic embedding   =      -0.10207372 Ry
     electrolyte free energy   =      -0.00014845 Ry
     correction to one-el term =     -39.88770934 Ry

     iteration # 14     ecut=    30.00 Ry     beta= 0.70
     Davidson diagonalization with overlap
     ethr =  2.33E-03,  avg # of iterations =  1.0

     negative rho (up, down):  8.636E-03 0.000E+00

     add environment contribution to local potential

     total cpu time spent up to now is      147.0 secs

     total energy              =    -673.40266561 Ry
     estimated scf accuracy    <       8.42940229 Ry
     electrostatic embedding   =      -0.08996608 Ry
     electrolyte free energy   =      -0.00014843 Ry
     correction to one-el term =     -37.59316404 Ry

     iteration # 15     ecut=    30.00 Ry     beta= 0.70
     Davidson diagonalization with overlap
     ethr =  2.33E-03,  avg # of iterations =  3.7

     negative rho (up, down):  6.087E-04 0.000E+00

     add environment contribution to local potential

     total cpu time spent up to now is      158.3 secs

     total energy              =    -673.42346027 Ry
     estimated scf accuracy    <       9.03906437 Ry
     electrostatic embedding   =      -0.06081613 Ry
     electrolyte free energy   =      -0.00014819 Ry
     correction to one-el term =     -32.24238345 Ry

     iteration # 16     ecut=    30.00 Ry     beta= 0.70
     Davidson diagonalization with overlap
     ethr =  2.33E-03,  avg # of iterations =  1.0

     negative rho (up, down):  1.274E-03 0.000E+00

     add environment contribution to local potential

     total cpu time spent up to now is      166.9 secs

     total energy              =    -673.43691381 Ry
     estimated scf accuracy    <       8.73782929 Ry
     electrostatic embedding   =      -0.07755852 Ry
     electrolyte free energy   =      -0.00014832 Ry
     correction to one-el term =     -35.21978526 Ry

     iteration # 17     ecut=    30.00 Ry     beta= 0.70
     Davidson diagonalization with overlap
     ethr =  2.33E-03,  avg # of iterations =  1.0

     negative rho (up, down):  5.167E-05 0.000E+00

     add environment contribution to local potential

     total cpu time spent up to now is      173.5 secs

     total energy              =    -673.36980336 Ry
     estimated scf accuracy    <       8.78404636 Ry
     electrostatic embedding   =      -0.07701638 Ry
     electrolyte free energy   =      -0.00014828 Ry
     correction to one-el term =     -35.21691301 Ry

     iteration # 18     ecut=    30.00 Ry     beta= 0.70
     Davidson diagonalization with overlap
     ethr =  2.33E-03,  avg # of iterations =  1.0

     negative rho (up, down):  5.077E-05 0.000E+00

     add environment contribution to local potential

     total cpu time spent up to now is      184.3 secs

     total energy              =    -673.31616717 Ry
     estimated scf accuracy    <       7.87439201 Ry
     electrostatic embedding   =      -0.08596267 Ry
     electrolyte free energy   =      -0.00014833 Ry
     correction to one-el term =     -36.36050987 Ry

     iteration # 19     ecut=    30.00 Ry     beta= 0.70
     Davidson diagonalization with overlap
     ethr =  2.33E-03,  avg # of iterations =  1.0

     negative rho (up, down):  3.343E-05 0.000E+00

     add environment contribution to local potential

     total cpu time spent up to now is      196.0 secs

     total energy              =    -671.86182867 Ry
     estimated scf accuracy    <       7.17676615 Ry
     electrostatic embedding   =      -0.08935849 Ry
     electrolyte free energy   =      -0.00014836 Ry
     correction to one-el term =     -37.04210155 Ry

     iteration # 20     ecut=    30.00 Ry     beta= 0.70
     Davidson diagonalization with overlap
     ethr =  2.33E-03,  avg # of iterations =  5.7

     negative rho (up, down):  1.163E-03 0.000E+00

     add environment contribution to local potential

     total cpu time spent up to now is      201.6 secs

     total energy              =    -672.07525195 Ry
     estimated scf accuracy    <      14.46654422 Ry
     electrostatic embedding   =      -0.16473070 Ry
     electrolyte free energy   =      -0.00014856 Ry
     correction to one-el term =     -51.92989205 Ry

     iteration # 21     ecut=    30.00 Ry     beta= 0.70
     Davidson diagonalization with overlap
     ethr =  2.33E-03,  avg # of iterations =  2.0

     negative rho (up, down):  1.334E-08 0.000E+00

     add environment contribution to local potential

     total cpu time spent up to now is      213.0 secs

     total energy              =    -672.63584150 Ry
     estimated scf accuracy    <       2.49285001 Ry
     electrostatic embedding   =      -0.07535887 Ry
     electrolyte free energy   =      -0.00014853 Ry
     correction to one-el term =     -34.52761389 Ry

     iteration # 22     ecut=    30.00 Ry     beta= 0.70
     Davidson diagonalization with overlap
     ethr =  2.33E-03,  avg # of iterations =  1.0

     negative rho (up, down):  5.885E-08 0.000E+00

     add environment contribution to local potential

     total cpu time spent up to now is      223.9 secs

     total energy              =    -672.70586935 Ry
     estimated scf accuracy    <       0.70460629 Ry
     electrostatic embedding   =      -0.09829154 Ry
     electrolyte free energy   =      -0.00014861 Ry
     correction to one-el term =     -39.02882120 Ry

     iteration # 23     ecut=    30.00 Ry     beta= 0.70
     Davidson diagonalization with overlap
     ethr =  8.05E-04,  avg # of iterations =  1.7

     negative rho (up, down):  2.065E-07 0.000E+00

     add environment contribution to local potential

     total cpu time spent up to now is      230.5 secs

     total energy              =    -672.71088682 Ry
     estimated scf accuracy    <       0.08201067 Ry
     electrostatic embedding   =      -0.10468879 Ry
     electrolyte free energy   =      -0.00014862 Ry
     correction to one-el term =     -40.50160813 Ry

     iteration # 24     ecut=    30.00 Ry     beta= 0.70
     Davidson diagonalization with overlap
     c_bands:  3 eigenvalues not converged
     ethr =  9.37E-05,  avg # of iterations =  9.3

     negative rho (up, down):  1.653E-07 0.000E+00

     add environment contribution to local potential

     total cpu time spent up to now is      237.0 secs

     total energy              =    -672.71248090 Ry
     estimated scf accuracy    <       0.03919910 Ry
     electrostatic embedding   =      -0.10242882 Ry
     electrolyte free energy   =      -0.00014862 Ry
     correction to one-el term =     -40.08756952 Ry

     iteration # 25     ecut=    30.00 Ry     beta= 0.70
     Davidson diagonalization with overlap
     ethr =  4.48E-05,  avg # of iterations =  7.0

     add environment contribution to local potential

     total cpu time spent up to now is      248.5 secs

     total energy              =    -672.68741622 Ry
     estimated scf accuracy    <       0.61743919 Ry
     electrostatic embedding   =      -0.10191414 Ry
     electrolyte free energy   =      -0.00014851 Ry
     correction to one-el term =     -40.08133122 Ry

     iteration # 26     ecut=    30.00 Ry     beta= 0.70
     Davidson diagonalization with overlap
     ethr =  4.48E-05,  avg # of iterations =  7.7

     add environment contribution to local potential

     total cpu time spent up to now is      260.8 secs

     total energy              =    -672.68955664 Ry
     estimated scf accuracy    <       0.65902848 Ry
     electrostatic embedding   =      -0.10904767 Ry
     electrolyte free energy   =      -0.00014850 Ry
     correction to one-el term =     -41.61046137 Ry

     iteration # 27     ecut=    30.00 Ry     beta= 0.70
     Davidson diagonalization with overlap
     ethr =  4.48E-05,  avg # of iterations =  1.7

     add environment contribution to local potential

     total cpu time spent up to now is      266.0 secs

     total energy              =    -672.70348553 Ry
     estimated scf accuracy    <       0.43638812 Ry
     electrostatic embedding   =      -0.10666248 Ry
     electrolyte free energy   =      -0.00014848 Ry
     correction to one-el term =     -41.11698702 Ry

     iteration # 28     ecut=    30.00 Ry     beta= 0.70
     Davidson diagonalization with overlap
     ethr =  4.48E-05,  avg # of iterations =  1.0

     add environment contribution to local potential

     total cpu time spent up to now is      276.5 secs

     total energy              =    -672.70936945 Ry
     estimated scf accuracy    <       0.00371301 Ry
     electrostatic embedding   =      -0.10786775 Ry
     electrolyte free energy   =      -0.00014848 Ry
     correction to one-el term =     -41.33193809 Ry

     iteration # 29     ecut=    30.00 Ry     beta= 0.70
     Davidson diagonalization with overlap
     ethr =  4.24E-06,  avg # of iterations =  2.0

     add environment contribution to local potential

     total cpu time spent up to now is      286.9 secs

     total energy              =    -672.70938822 Ry
     estimated scf accuracy    <       0.00317513 Ry
     electrostatic embedding   =      -0.10748711 Ry
     electrolyte free energy   =      -0.00014848 Ry
     correction to one-el term =     -41.22167547 Ry

     iteration # 30     ecut=    30.00 Ry     beta= 0.70
     Davidson diagonalization with overlap
     ethr =  3.63E-06,  avg # of iterations =  1.0

     add environment contribution to local potential

     total cpu time spent up to now is      293.5 secs

     total energy              =    -672.70935362 Ry
     estimated scf accuracy    <       0.00085891 Ry
     electrostatic embedding   =      -0.10721891 Ry
     electrolyte free energy   =      -0.00014848 Ry
     correction to one-el term =     -41.15727550 Ry

     iteration # 31     ecut=    30.00 Ry     beta= 0.70
     Davidson diagonalization with overlap
     ethr =  9.82E-07,  avg # of iterations =  4.0

     add environment contribution to local potential

     total cpu time spent up to now is      298.9 secs

     total energy              =    -672.70938278 Ry
     estimated scf accuracy    <       0.00018061 Ry
     electrostatic embedding   =      -0.10725618 Ry
     electrolyte free energy   =      -0.00014847 Ry
     correction to one-el term =     -41.16382906 Ry

     iteration # 32     ecut=    30.00 Ry     beta= 0.70
     Davidson diagonalization with overlap
     ethr =  2.06E-07,  avg # of iterations =  2.0

     add environment contribution to local potential

     total cpu time spent up to now is      308.6 secs

     total energy              =    -672.70938708 Ry
     estimated scf accuracy    <       0.00000038 Ry
     electrostatic embedding   =      -0.10729252 Ry
     electrolyte free energy   =      -0.00014848 Ry
     correction to one-el term =     -41.16766599 Ry

     iteration # 33     ecut=    30.00 Ry     beta= 0.70
     Davidson diagonalization with overlap
     c_bands:  1 eigenvalues not converged
     ethr =  4.29E-10,  avg # of iterations = 11.0

     add environment contribution to local potential

     total cpu time spent up to now is      322.4 secs

     total energy              =    -672.70938807 Ry
     estimated scf accuracy    <       0.00000032 Ry
     electrostatic embedding   =      -0.10729242 Ry
     electrolyte free energy   =      -0.00014848 Ry
     correction to one-el term =     -41.16631612 Ry

     iteration # 34     ecut=    30.00 Ry     beta= 0.70
     Davidson diagonalization with overlap
     ethr =  3.71E-10,  avg # of iterations =  2.0

     add environment contribution to local potential

     total cpu time spent up to now is      326.9 secs

     total energy              =    -672.70938798 Ry
     estimated scf accuracy    <       0.00000009 Ry
     electrostatic embedding   =      -0.10729594 Ry
     electrolyte free energy   =      -0.00014849 Ry
     correction to one-el term =     -41.16683099 Ry

     iteration # 35     ecut=    30.00 Ry     beta= 0.70
     Davidson diagonalization with overlap
     ethr =  9.79E-11,  avg # of iterations =  2.0

     the potential shift due to the Gaussian-smeared nuclei is    -0.5949 ev

     total cpu time spent up to now is      333.2 secs

     End of self-consistent calculation

          k = 0.0000 0.0000 0.0000 (  8687 PWs)   bands (ev):

   -11.7391 -11.4258 -10.9431 -10.5056 -10.4221 -10.4195 -10.4043 -10.3259
   -10.2068 -10.1618 -10.0559  -9.8969  -9.6969  -9.4703  -9.1809  -8.9836
    -8.9583  -8.9583  -8.9161  -8.9161  -8.6764  -8.6764  -8.3868  -8.3021
    -8.2949  -8.2949  -8.1613  -8.1595  -8.0999  -8.0173  -7.9801  -7.9801
    -7.8976  -7.7743  -7.6888  -7.6888  -7.6877  -7.5206  -7.4147  -7.3295
    -7.3295  -7.3254  -7.2418  -7.0973  -7.0973  -6.1036  -4.5202  -2.7791
    -2.2658   0.1456   0.1550   0.3803   0.5230

     occupation numbers 
     1.0000   1.0000   1.0000   1.0000   1.0000   1.0000   1.0000   1.0000
     1.0000   1.0000   1.0000   1.0000   1.0000   1.0000   1.0000   1.0000
     1.0000   1.0000   1.0000   1.0000   1.0000   1.0000   1.0000   1.0000
     1.0000   1.0000   1.0000   1.0000   1.0000   1.0000   1.0000   1.0000
     1.0000   1.0000   1.0000   1.0000   1.0000   1.0000   1.0000   1.0000
     1.0000   1.0000   1.0000   1.0000   1.0000   1.0000   0.0578   0.0000
     0.0000   0.0000   0.0000   0.0000   0.0000

          k = 0.0000-0.5000 0.0000 (  8814 PWs)   bands (ev):

   -10.4343 -10.4343 -10.3386 -10.3386 -10.0753 -10.0753  -9.6803  -9.6803
    -9.2778  -9.2778  -9.2351  -9.2351  -9.0510  -9.0510  -9.0487  -9.0486
    -8.9434  -8.9433  -8.9343  -8.9342  -8.7276  -8.7276  -8.6868  -8.6868
    -8.4356  -8.4355  -8.2814  -8.2814  -7.9676  -7.9675  -7.7960  -7.7960
    -7.7813  -7.7813  -7.4731  -7.4731  -7.3564  -7.3564  -7.2519  -7.2518
    -4.9447  -4.9447  -4.8767  -4.8767  -4.7771  -4.7771  -4.4661  -4.4660
    -1.4626  -1.4625  -0.2451  -0.2451   1.1415

     occupation numbers 
     1.0000   1.0000   1.0000   1.0000   1.0000   1.0000   1.0000   1.0000
     1.0000   1.0000   1.0000   1.0000   1.0000   1.0000   1.0000   1.0000
     1.0000   1.0000   1.0000   1.0000   1.0000   1.0000   1.0000   1.0000
     1.0000   1.0000   1.0000   1.0000   1.0000   1.0000   1.0000   1.0000
     1.0000   1.0000   1.0000   1.0000   1.0000   1.0000   1.0000   1.0000
     0.9279   0.9277   0.7743   0.7742   0.5039   0.5038   0.0297   0.0297
     0.0000   0.0000   0.0000   0.0000   0.0000

          k =-0.5000-0.5000 0.0000 (  8868 PWs)   bands (ev):

   -10.4866 -10.4865 -10.3660 -10.3659 -10.3111 -10.3111 -10.2186 -10.2186
   -10.1169 -10.1169  -9.9385  -9.9385  -9.8260  -9.8259  -9.4235  -9.4235
    -8.8740  -8.8740  -8.3400  -8.3400  -7.9724  -7.9724  -7.8730  -7.8729
    -7.7357  -7.7357  -7.5471  -7.5471  -7.4552  -7.4551  -7.2906  -7.2905
    -7.2320  -7.2320  -7.2077  -7.2076  -7.0317  -7.0317  -6.9344  -6.9343
    -2.5031  -2.5031  -1.8374  -1.8374  -0.8347  -0.8347   0.4615   0.4615
     1.8860   1.8865   1.9926   1.9968   2.0735

     occupation numbers 
     1.0000   1.0000   1.0000   1.0000   1.0000   1.0000   1.0000   1.0000
     1.0000   1.0000   1.0000   1.0000   1.0000   1.0000   1.0000   1.0000
     1.0000   1.0000   1.0000   1.0000   1.0000   1.0000   1.0000   1.0000
     1.0000   1.0000   1.0000   1.0000   1.0000   1.0000   1.0000   1.0000
     1.0000   1.0000   1.0000   1.0000   1.0000   1.0000   1.0000   1.0000
     0.0000   0.0000   0.0000   0.0000   0.0000   0.0000   0.0000   0.0000
     0.0000   0.0000   0.0000   0.0000   0.0000

     the Fermi energy is    -4.7378 ev

!    total energy              =    -672.70938806 Ry
     estimated scf accuracy    <          2.0E-09 Ry
     smearing contrib. (-TS)   =      -0.01081936 Ry
     internal energy E=F+TS    =    -672.69856871 Ry

     The total energy is F=E-TS. E is the sum of the following terms:
     one-electron contribution =  -26353.88363716 Ry
     hartree contribution      =   13220.02486413 Ry
     xc contribution           =    -178.44535703 Ry
     ewald contribution        =   12680.87942749 Ry
     electrostatic embedding   =      -0.10729421 Ry
     electrolyte free energy   =      -0.00014848 Ry
     correction to one-el term =     -41.16642345 Ry

     WARNING: you are using the parabolic pbc correction;
              the potential shift above must be added to 
              band and Fermi energies.

     convergence has been achieved in  35 iterations
     The global environment contribution to forces
     atom    1 type  1   force =     0.00000000    0.00000000   -0.55915970
     atom    2 type  1   force =    -0.00000000   -0.00000000   -0.42910270
     atom    3 type  1   force =     0.00000000    0.00000000   -0.25704464
     atom    4 type  1   force =    -0.00000000   -0.00000000   -0.08556301
     atom    5 type  1   force =     0.00000000    0.00000000    0.08563113
     atom    6 type  1   force =    -0.00000000   -0.00000000    0.25711276
     atom    7 type  1   force =     0.00000000    0.00000000    0.42917076
     atom    8 type  1   force =    -0.00000000   -0.00000000    0.55922823
 

     Forces acting on atoms (cartesian axes, Ry/au):

     atom    1 type  1   force =     0.00000000    0.00000000   -0.00264065
     atom    2 type  1   force =     0.00000000    0.00000000    0.00587337
     atom    3 type  1   force =     0.00000000    0.00000000   -0.00186528
     atom    4 type  1   force =     0.00000000    0.00000000    0.00109353
     atom    5 type  1   force =     0.00000000    0.00000000   -0.00109353
     atom    6 type  1   force =     0.00000000    0.00000000    0.00186528
     atom    7 type  1   force =     0.00000000    0.00000000   -0.00587337
     atom    8 type  1   force =     0.00000000    0.00000000    0.00264065
     The non-local contrib.  to forces
     atom    1 type  1   force =     0.00000000    0.00000000   -0.27999754
     atom    2 type  1   force =     0.00000000    0.00000000   -0.13859170
     atom    3 type  1   force =     0.00000000    0.00000000    0.06090305
     atom    4 type  1   force =     0.00000000    0.00000000    0.01255430
     atom    5 type  1   force =     0.00000000    0.00000000   -0.01255430
     atom    6 type  1   force =     0.00000000    0.00000000   -0.06090305
     atom    7 type  1   force =     0.00000000    0.00000000    0.13859170
     atom    8 type  1   force =     0.00000000    0.00000000    0.27999754
     The ionic contribution  to forces
     atom    1 type  1   force =    -0.00000000   -0.00000000 -239.27066904
     atom    2 type  1   force =     0.00000000    0.00000000 -172.16089596
     atom    3 type  1   force =    -0.00000000   -0.00000000 -103.18769990
     atom    4 type  1   force =     0.00000000    0.00000000  -34.40075415
     atom    5 type  1   force =    -0.00000000   -0.00000000   34.40075220
     atom    6 type  1   force =     0.00000000    0.00000000  103.18770000
     atom    7 type  1   force =    -0.00000000   -0.00000000  172.16089755
     atom    8 type  1   force =     0.00000000    0.00000000  239.27066931
     The local contribution  to forces
     atom    1 type  1   force =    -0.00000000   -0.00000000  240.10193414
     atom    2 type  1   force =     0.00000000    0.00000000  172.73738334
     atom    3 type  1   force =    -0.00000000   -0.00000000  103.38146221
     atom    4 type  1   force =     0.00000000    0.00000000   34.47453111
     atom    5 type  1   force =    -0.00000000   -0.00000000  -34.47453111
     atom    6 type  1   force =     0.00000000    0.00000000 -103.38146221
     atom    7 type  1   force =    -0.00000000   -0.00000000 -172.73733240
     atom    8 type  1   force =     0.00000000    0.00000000 -240.10193414
     The core correction contribution to forces
     atom    1 type  1   force =    -0.00000000   -0.00000000    0.00533093
     atom    2 type  1   force =     0.00000000    0.00000000   -0.00279502
     atom    3 type  1   force =    -0.00000000   -0.00000000    0.00055467
     atom    4 type  1   force =     0.00000000    0.00000000    0.00035734
     atom    5 type  1   force =    -0.00000000   -0.00000000   -0.00035734
     atom    6 type  1   force =     0.00000000    0.00000000   -0.00055467
     atom    7 type  1   force =    -0.00000000   -0.00000000    0.00279789
     atom    8 type  1   force =     0.00000000    0.00000000   -0.00533093
     The Hubbard contrib.    to forces
     atom    1 type  1   force =     0.00000000    0.00000000    0.00000000
     atom    2 type  1   force =     0.00000000    0.00000000    0.00000000
     atom    3 type  1   force =     0.00000000    0.00000000    0.00000000
     atom    4 type  1   force =     0.00000000    0.00000000    0.00000000
     atom    5 type  1   force =     0.00000000    0.00000000    0.00000000
     atom    6 type  1   force =     0.00000000    0.00000000    0.00000000
     atom    7 type  1   force =     0.00000000    0.00000000    0.00000000
     atom    8 type  1   force =     0.00000000    0.00000000    0.00000000
     The SCF correction term to forces
     atom    1 type  1   force =     0.00000000   -0.00000000   -0.00004503
     atom    2 type  1   force =     0.00000000   -0.00000000   -0.00006285
     atom    3 type  1   force =     0.00000000    0.00000000   -0.00000657
     atom    4 type  1   force =    -0.00000000    0.00000000    0.00000103
     atom    5 type  1   force =    -0.00000000    0.00000000   -0.00000103
     atom    6 type  1   force =     0.00000000    0.00000000    0.00000657
     atom    7 type  1   force =     0.00000000   -0.00000000    0.00006285
     atom    8 type  1   force =     0.00000000   -0.00000000    0.00004503

     Total force =     0.009607     Total SCF correction =     0.000110

     Writing output data file /home/simplogic86/Work/QE1/tempdir/scf.save/
 
     init_run     :      4.99s CPU      6.79s WALL (       1 calls)
     electrons    :    245.29s CPU    325.25s WALL (       1 calls)
     forces       :      2.49s CPU      2.73s WALL (       1 calls)

     Called by init_run:
     wfcinit      :      1.96s CPU      3.02s WALL (       1 calls)
     wfcinit:atom :      0.00s CPU      0.00s WALL (       3 calls)
     wfcinit:wfcr :      1.93s CPU      2.99s WALL (       3 calls)
     potinit      :      0.69s CPU      0.81s WALL (       1 calls)
     hinit0       :      1.59s CPU      1.87s WALL (       1 calls)

     Called by electrons:
     c_bands      :    109.37s CPU    150.86s WALL (      35 calls)
     sum_band     :     28.97s CPU     44.43s WALL (      35 calls)
     v_of_rho     :      6.88s CPU      9.60s WALL (      36 calls)
     v_h          :      0.64s CPU      0.84s WALL (      36 calls)
     v_xc         :      6.38s CPU      8.92s WALL (      37 calls)
     newd         :     12.94s CPU     17.65s WALL (      36 calls)
     mix_rho      :      4.68s CPU      6.14s WALL (      35 calls)

     Called by c_bands:
     init_us_2    :      0.32s CPU      0.36s WALL (     216 calls)
     cegterg      :    105.53s CPU    146.71s WALL (     108 calls)

     Called by sum_band:
     sum_band:wei :      0.01s CPU      0.01s WALL (      35 calls)
     sum_band:loo :     14.36s CPU     21.24s WALL (      35 calls)
     sum_band:buf :      0.06s CPU      0.07s WALL (     105 calls)
     sum_band:ini :      0.17s CPU      0.18s WALL (     105 calls)
     sum_band:cal :      1.16s CPU      1.41s WALL (     105 calls)
     sum_band:bec :      0.01s CPU      0.01s WALL (     105 calls)
     addusdens    :      9.65s CPU     11.99s WALL (      35 calls)
     addusd:skk   :      0.08s CPU      0.09s WALL (      35 calls)
     addusd:dgemm :      1.76s CPU      3.93s WALL (      35 calls)
     addusd:qvan2 :      7.38s CPU      7.52s WALL (      35 calls)

     Called by *egterg:
     cdiaghg      :      5.09s CPU      5.22s WALL (     650 calls)
     cegterg:over :      7.52s CPU      8.48s WALL (     542 calls)
     cegterg:upda :      1.08s CPU      1.12s WALL (     542 calls)
     cegterg:last :      2.67s CPU      2.71s WALL (     322 calls)
     h_psi        :     83.94s CPU    124.10s WALL (     653 calls)
     s_psi        :      2.00s CPU      2.09s WALL (     653 calls)
     g_psi        :      0.08s CPU      0.09s WALL (     542 calls)

     Called by h_psi:
     h_psi:calbec :      5.28s CPU      6.33s WALL (     653 calls)
     vloc_psi     :     76.52s CPU    115.51s WALL (     653 calls)
     add_vuspsi   :      1.99s CPU      2.10s WALL (     653 calls)

     General routines
     calbec       :      6.65s CPU      7.97s WALL (     770 calls)
     fft          :      6.64s CPU      9.25s WALL (     477 calls)
     ffts         :      0.27s CPU      0.30s WALL (      71 calls)
     fftw         :     87.50s CPU    132.29s WALL (   42975 calls)
     interpolate  :      0.48s CPU      0.58s WALL (      36 calls)
 
     Parallel routines
     fft_scatt_xy :      2.22s CPU      2.73s WALL (   43523 calls)
     fft_scatt_yz :     79.51s CPU    123.21s WALL (   43523 calls)
 
     Environ routines
 
     PWSCF        :   4m17.42s CPU   5m40.48s WALL

 
   This run was terminated on:  12:20: 2  25Sep2021            

=------------------------------------------------------------------------------=
   JOB DONE.
=------------------------------------------------------------------------------=
