
     Program PWSCF v.6.7MaX starts on 25Sep2021 at 12:20: 3 

     This program is part of the open-source Quantum ESPRESSO suite
     for quantum simulation of materials; please cite
         "P. Giannozzi et al., J. Phys.:Condens. Matter 21 395502 (2009);
         "P. Giannozzi et al., J. Phys.:Condens. Matter 29 465901 (2017);
          URL http://www.quantum-espresso.org", 
     in publications or presentations arising from this work. More details at
     http://www.quantum-espresso.org/quote

     Parallel version (MPI), running on     8 processors

     MPI processes distributed on     1 nodes
     R & G space division:  proc/nbgrp/npool/nimage =       8
     Waiting for input...
     Reading input from standard input
Warning: card &CELL ignored
Warning: card / ignored

     Current dimensions of program PWSCF are:
     Max number of different atomic species (ntypx) = 10
     Max number of k-points (npk) =  40000
     Max angular momentum in pseudopotentials (lmaxx) =  3

     Reading input from environ.in

     ================================================================================

     Reading ENVIRON namelist

     Reading BOUNDARY namelist

     Checking boundary derivatives
     derivatives               = chain          ! SCCS default

     Reading ELECTROSTATIC namelist

     Setting up electrostatic problem
     problem                   = pb             
     solver                    = newton         
     inner_solver              = cg             

     Checking PBC correction

     ================================================================================
 

     Subspace diagonalization in iterative solution of the eigenvalue problem:
     a serial algorithm will be used

     Message from routine setup:
     using ibrav=0 with symmetry is DISCOURAGED, use correct ibrav instead
 
     Parallelization info
     --------------------
     sticks:   dense  smooth     PW     G-vecs:    dense   smooth      PW
     Min          92      36     12                34688     8766    1652
     Max          93      37     13                34713     8833    1693
     Sum         741     293     97               277595    70411   13373
 


     bravais-lattice index     =            0
     lattice parameter (alat)  =       5.5435  a.u.
     unit-cell volume          =    3161.5726 (a.u.)^3
     number of atoms/cell      =            8
     number of atomic types    =            1
     number of electrons       =        87.50
     number of Kohn-Sham states=           53
     kinetic-energy cutoff     =      30.0000  Ry
     charge density cutoff     =     300.0000  Ry
     scf convergence threshold =      5.0E-09
     mixing beta               =       0.7000
     number of iterations used =            8  plain     mixing
     Exchange-correlation= PBE
                           (   1   4   3   4   0   0   0)
 

     Environ Module
     ==============

     Please cite
         O. Andreussi, I. Dabo and N. Marzari, J. Chem. Phys. 136, 064102 (2012)         
     in publications or presentations arising from this work.

     compensation onset threshold      =               0.1000E+03
     static permittivity               =                    80.00
     epsilon calculation mode          =                     full

     Electrostatic Setup
     -------------------
     electrostatic problem to solve    = pb                      
     numerical solver adopted          = newton                  
     type of auxiliary density adopted = none                    
     type of core tool for poisson     = fft                     
     type of core tool for correction  = 1d-analytic             



     celldm(1)=   5.543526  celldm(2)=   0.000000  celldm(3)=   0.000000
     celldm(4)=   0.000000  celldm(5)=   0.000000  celldm(6)=   0.000000

     crystal axes: (cart. coord. in units of alat)
               a(1) = (   1.000000   0.000000   0.000000 )  
               a(2) = (   0.000000   1.000000   0.000000 )  
               a(3) = (   0.000000   0.000000  18.558586 )  

     reciprocal axes: (cart. coord. in units 2 pi/alat)
               b(1) = (  1.000000  0.000000  0.000000 )  
               b(2) = (  0.000000  1.000000  0.000000 )  
               b(3) = (  0.000000  0.000000  0.053883 )  


     PseudoPot. # 1 for Ag read from file:
     /home/simplogic86/Work/QE1/pseudo/Ag.pbe-n-rrkjus_psl.1.0.0.UPF
     MD5 check sum: d841cbfac2b0861aec33b46768a516bf
     Pseudo is Ultrasoft + core correction, Zval = 11.0
     Generated using &quot;atomic&quot; code by A. Dal Corso  v.6.2.2
     Using radial grid of 1237 points,  6 beta functions with: 
                l(1) =   0
                l(2) =   0
                l(3) =   1
                l(4) =   1
                l(5) =   2
                l(6) =   2
     Q(r) pseudized with 0 coefficients 


     atomic species   valence    mass     pseudopotential
        Ag            11.00   107.86820     Ag( 1.00)

     16 Sym. Ops., with inversion, found ( 8 have fractional translation)


                                    s                        frac. trans.

      isym =  1     identity                                     

 cryst.   s( 1) = (     1          0          0      )
                  (     0          1          0      )
                  (     0          0          1      )

 cart.    s( 1) = (  1.0000000  0.0000000  0.0000000 )
                  (  0.0000000  1.0000000  0.0000000 )
                  (  0.0000000  0.0000000  1.0000000 )


      isym =  2     180 deg rotation - cart. axis [0,0,1]        

 cryst.   s( 2) = (    -1          0          0      )
                  (     0         -1          0      )
                  (     0          0          1      )

 cart.    s( 2) = ( -1.0000000  0.0000000  0.0000000 )
                  (  0.0000000 -1.0000000  0.0000000 )
                  (  0.0000000  0.0000000  1.0000000 )


      isym =  3     180 deg rotation - cart. axis [0,1,0]        

 cryst.   s( 3) = (    -1          0          0      )    f =(  0.5000000 )
                  (     0          1          0      )       (  0.5000000 )
                  (     0          0         -1      )       ( -0.0000000 )

 cart.    s( 3) = ( -1.0000000  0.0000000  0.0000000 )    f =(  0.5000000 )
                  (  0.0000000  1.0000000  0.0000000 )       (  0.5000000 )
                  (  0.0000000  0.0000000 -1.0000000 )       ( -0.0000000 )


      isym =  4     180 deg rotation - cart. axis [1,0,0]        

 cryst.   s( 4) = (     1          0          0      )    f =(  0.5000000 )
                  (     0         -1          0      )       (  0.5000000 )
                  (     0          0         -1      )       ( -0.0000000 )

 cart.    s( 4) = (  1.0000000  0.0000000  0.0000000 )    f =(  0.5000000 )
                  (  0.0000000 -1.0000000  0.0000000 )       (  0.5000000 )
                  (  0.0000000  0.0000000 -1.0000000 )       ( -0.0000000 )


      isym =  5     180 deg rotation - cart. axis [1,1,0]        

 cryst.   s( 5) = (     0          1          0      )    f =(  0.5000000 )
                  (     1          0          0      )       (  0.5000000 )
                  (     0          0         -1      )       ( -0.0000000 )

 cart.    s( 5) = (  0.0000000  1.0000000  0.0000000 )    f =(  0.5000000 )
                  (  1.0000000  0.0000000  0.0000000 )       (  0.5000000 )
                  (  0.0000000  0.0000000 -1.0000000 )       ( -0.0000000 )


      isym =  6     180 deg rotation - cart. axis [1,-1,0]       

 cryst.   s( 6) = (     0         -1          0      )    f =(  0.5000000 )
                  (    -1          0          0      )       (  0.5000000 )
                  (     0          0         -1      )       ( -0.0000000 )

 cart.    s( 6) = (  0.0000000 -1.0000000  0.0000000 )    f =(  0.5000000 )
                  ( -1.0000000  0.0000000  0.0000000 )       (  0.5000000 )
                  (  0.0000000  0.0000000 -1.0000000 )       ( -0.0000000 )


      isym =  7      90 deg rotation - cart. axis [0,0,-1]       

 cryst.   s( 7) = (     0         -1          0      )
                  (     1          0          0      )
                  (     0          0          1      )

 cart.    s( 7) = (  0.0000000  1.0000000  0.0000000 )
                  ( -1.0000000  0.0000000  0.0000000 )
                  (  0.0000000  0.0000000  1.0000000 )


      isym =  8      90 deg rotation - cart. axis [0,0,1]        

 cryst.   s( 8) = (     0          1          0      )
                  (    -1          0          0      )
                  (     0          0          1      )

 cart.    s( 8) = (  0.0000000 -1.0000000  0.0000000 )
                  (  1.0000000  0.0000000  0.0000000 )
                  (  0.0000000  0.0000000  1.0000000 )


      isym =  9     inversion                                    

 cryst.   s( 9) = (    -1          0          0      )    f =(  0.5000000 )
                  (     0         -1          0      )       (  0.5000000 )
                  (     0          0         -1      )       ( -0.0000000 )

 cart.    s( 9) = ( -1.0000000  0.0000000  0.0000000 )    f =(  0.5000000 )
                  (  0.0000000 -1.0000000  0.0000000 )       (  0.5000000 )
                  (  0.0000000  0.0000000 -1.0000000 )       ( -0.0000000 )


      isym = 10     inv. 180 deg rotation - cart. axis [0,0,1]   

 cryst.   s(10) = (     1          0          0      )    f =(  0.5000000 )
                  (     0          1          0      )       (  0.5000000 )
                  (     0          0         -1      )       ( -0.0000000 )

 cart.    s(10) = (  1.0000000  0.0000000  0.0000000 )    f =(  0.5000000 )
                  (  0.0000000  1.0000000  0.0000000 )       (  0.5000000 )
                  (  0.0000000  0.0000000 -1.0000000 )       ( -0.0000000 )


      isym = 11     inv. 180 deg rotation - cart. axis [0,1,0]   

 cryst.   s(11) = (     1          0          0      )
                  (     0         -1          0      )
                  (     0          0          1      )

 cart.    s(11) = (  1.0000000  0.0000000  0.0000000 )
                  (  0.0000000 -1.0000000  0.0000000 )
                  (  0.0000000  0.0000000  1.0000000 )


      isym = 12     inv. 180 deg rotation - cart. axis [1,0,0]   

 cryst.   s(12) = (    -1          0          0      )
                  (     0          1          0      )
                  (     0          0          1      )

 cart.    s(12) = ( -1.0000000  0.0000000  0.0000000 )
                  (  0.0000000  1.0000000  0.0000000 )
                  (  0.0000000  0.0000000  1.0000000 )


      isym = 13     inv. 180 deg rotation - cart. axis [1,1,0]   

 cryst.   s(13) = (     0         -1          0      )
                  (    -1          0          0      )
                  (     0          0          1      )

 cart.    s(13) = (  0.0000000 -1.0000000  0.0000000 )
                  ( -1.0000000  0.0000000  0.0000000 )
                  (  0.0000000  0.0000000  1.0000000 )


      isym = 14     inv. 180 deg rotation - cart. axis [1,-1,0]  

 cryst.   s(14) = (     0          1          0      )
                  (     1          0          0      )
                  (     0          0          1      )

 cart.    s(14) = (  0.0000000  1.0000000  0.0000000 )
                  (  1.0000000  0.0000000  0.0000000 )
                  (  0.0000000  0.0000000  1.0000000 )


      isym = 15     inv.  90 deg rotation - cart. axis [0,0,-1]  

 cryst.   s(15) = (     0          1          0      )    f =(  0.5000000 )
                  (    -1          0          0      )       (  0.5000000 )
                  (     0          0         -1      )       ( -0.0000000 )

 cart.    s(15) = (  0.0000000 -1.0000000  0.0000000 )    f =(  0.5000000 )
                  (  1.0000000  0.0000000  0.0000000 )       (  0.5000000 )
                  (  0.0000000  0.0000000 -1.0000000 )       ( -0.0000000 )


      isym = 16     inv.  90 deg rotation - cart. axis [0,0,1]   

 cryst.   s(16) = (     0         -1          0      )    f =(  0.5000000 )
                  (     1          0          0      )       (  0.5000000 )
                  (     0          0         -1      )       ( -0.0000000 )

 cart.    s(16) = (  0.0000000  1.0000000  0.0000000 )    f =(  0.5000000 )
                  ( -1.0000000  0.0000000  0.0000000 )       (  0.5000000 )
                  (  0.0000000  0.0000000 -1.0000000 )       ( -0.0000000 )


   Cartesian axes

     site n.     atom                  positions (alat units)
         1           Ag  tau(   1) = (   0.5000000   0.5000000   6.8177767  )
         2           Ag  tau(   2) = (   0.0000000   0.0000000   7.5110323  )
         3           Ag  tau(   3) = (   0.5000000   0.5000000   8.2185960  )
         4           Ag  tau(   4) = (   0.0000000   0.0000000   8.9261320  )
         5           Ag  tau(   5) = (   0.5000000   0.5000000   9.6324544  )
         6           Ag  tau(   6) = (   0.0000000   0.0000000  10.3399904  )
         7           Ag  tau(   7) = (   0.5000000   0.5000000  11.0475540  )
         8           Ag  tau(   8) = (   0.0000000   0.0000000  11.7408097  )

   Crystallographic axes

     site n.     atom                  positions (cryst. coord.)
         1           Ag  tau(   1) = (  0.5000000  0.5000000  0.3673651  )
         2           Ag  tau(   2) = (  0.0000000  0.0000000  0.4047201  )
         3           Ag  tau(   3) = (  0.5000000  0.5000000  0.4428460  )
         4           Ag  tau(   4) = (  0.0000000  0.0000000  0.4809705  )
         5           Ag  tau(   5) = (  0.5000000  0.5000000  0.5190295  )
         6           Ag  tau(   6) = (  0.0000000  0.0000000  0.5571540  )
         7           Ag  tau(   7) = (  0.5000000  0.5000000  0.5952799  )
         8           Ag  tau(   8) = (  0.0000000  0.0000000  0.6326349  )

     number of k points=     3  Marzari-Vanderbilt smearing, width (Ry)=  0.0200
                       cart. coord. in units 2pi/alat
        k(    1) = (   0.0000000   0.0000000   0.0000000), wk =   0.5000000
        k(    2) = (   0.0000000  -0.5000000   0.0000000), wk =   1.0000000
        k(    3) = (  -0.5000000  -0.5000000   0.0000000), wk =   0.5000000

                       cryst. coord.
        k(    1) = (   0.0000000   0.0000000   0.0000000), wk =   0.5000000
        k(    2) = (   0.0000000  -0.5000000   0.0000000), wk =   1.0000000
        k(    3) = (  -0.5000000  -0.5000000   0.0000000), wk =   0.5000000

     Dense  grid:   277595 G-vectors     FFT dimensions: (  32,  32, 576)

     Smooth grid:    70411 G-vectors     FFT dimensions: (  20,  20, 360)

     Dynamical RAM for                 wfc:       0.89 MB

     Dynamical RAM for     wfc (w. buffer):       3.55 MB

     Dynamical RAM for           str. fact:       0.53 MB

     Dynamical RAM for           local pot:       0.00 MB

     Dynamical RAM for          nlocal pot:       2.41 MB

     Dynamical RAM for                qrad:       1.39 MB

     Dynamical RAM for          rho,v,vnew:       3.28 MB

     Dynamical RAM for               rhoin:       1.09 MB

     Dynamical RAM for            rho*nmix:       8.47 MB

     Dynamical RAM for           G-vectors:       2.05 MB

     Dynamical RAM for          h,s,v(r/c):       0.51 MB

     Dynamical RAM for          <psi|beta>:       0.12 MB

     Dynamical RAM for                 psi:       1.77 MB

     Dynamical RAM for                hpsi:       1.77 MB

     Dynamical RAM for                spsi:       1.77 MB

     Dynamical RAM for      wfcinit/wfcrot:       2.53 MB

     Dynamical RAM for           addusdens:     102.76 MB

     Dynamical RAM for          addusforce:     110.47 MB

     Estimated static dynamical RAM per process >      26.64 MB

     Estimated max dynamical RAM per process >     137.11 MB

     Estimated total dynamical RAM >       1.07 GB
Warning: wrong integral of erfc function


     Initial potential from superposition of free atoms

     starting charge   87.99681, renormalised to   87.50000

     negative rho (up, down):  3.125E-04 0.000E+00
     Starting wfcs are   72 randomized atomic wfcs

     total cpu time spent up to now is        7.6 secs

     Self-consistent Calculation

     iteration #  1     ecut=    30.00 Ry     beta= 0.70
     Davidson diagonalization with overlap
     ethr =  1.00E-02,  avg # of iterations =  5.7

     total cpu time spent up to now is       13.6 secs

     total energy              =    -543.73161160 Ry
     estimated scf accuracy    <     146.27981688 Ry
     electrostatic embedding   =       0.02186097 Ry
     electrolyte free energy   =       0.00107216 Ry
     correction to one-el term =       0.00000000 Ry

     iteration #  2     ecut=    30.00 Ry     beta= 0.70
     Davidson diagonalization with overlap
     ethr =  1.00E-02,  avg # of iterations = 31.0

     negative rho (up, down):  5.625E-06 0.000E+00

     total cpu time spent up to now is       23.9 secs

     total energy              =    -548.98953255 Ry
     estimated scf accuracy    <    9595.11030234 Ry
     electrostatic embedding   =       0.02186097 Ry
     electrolyte free energy   =       0.00107216 Ry
     correction to one-el term =       0.00000000 Ry

     iteration #  3     ecut=    30.00 Ry     beta= 0.70
     Davidson diagonalization with overlap
     ethr =  1.00E-02,  avg # of iterations = 18.3

     negative rho (up, down):  1.298E-04 0.000E+00

     total cpu time spent up to now is       45.1 secs

     total energy              =    -627.59629802 Ry
     estimated scf accuracy    <    3027.89295462 Ry
     electrostatic embedding   =       0.02186097 Ry
     electrolyte free energy   =       0.00107216 Ry
     correction to one-el term =       0.00000000 Ry

     iteration #  4     ecut=    30.00 Ry     beta= 0.70
     Davidson diagonalization with overlap
     c_bands:  1 eigenvalues not converged
     ethr =  1.00E-02,  avg # of iterations = 18.0

     negative rho (up, down):  3.525E-05 0.000E+00

     total cpu time spent up to now is       50.8 secs

     total energy              =    -666.36049369 Ry
     estimated scf accuracy    <     244.09044147 Ry
     electrostatic embedding   =       0.02186097 Ry
     electrolyte free energy   =       0.00107216 Ry
     correction to one-el term =       0.00000000 Ry

     iteration #  5     ecut=    30.00 Ry     beta= 0.70
     Davidson diagonalization with overlap
     ethr =  1.00E-02,  avg # of iterations =  8.7

     negative rho (up, down):  6.440E-06 0.000E+00

     add environment contribution to local potential

     total cpu time spent up to now is       76.8 secs

     total energy              =    -667.94235123 Ry
     estimated scf accuracy    <      85.83471228 Ry
     electrostatic embedding   =       0.02186097 Ry
     electrolyte free energy   =       0.00107216 Ry
     correction to one-el term =       0.00000000 Ry

     iteration #  6     ecut=    30.00 Ry     beta= 0.70
     Davidson diagonalization with overlap
     ethr =  1.00E-02,  avg # of iterations =  8.7

     negative rho (up, down):  6.884E-08 0.000E+00

     add environment contribution to local potential

     total cpu time spent up to now is       89.3 secs

     total energy              =    -672.40581579 Ry
     estimated scf accuracy    <       3.07586376 Ry
     electrostatic embedding   =      -0.17786998 Ry
     electrolyte free energy   =      -0.00012336 Ry
     correction to one-el term =     -25.97180651 Ry

     iteration #  7     ecut=    30.00 Ry     beta= 0.70
     Davidson diagonalization with overlap
     ethr =  3.52E-03,  avg # of iterations =  1.7

     negative rho (up, down):  1.644E-08 0.000E+00

     add environment contribution to local potential

     total cpu time spent up to now is      108.6 secs

     total energy              =    -672.26563076 Ry
     estimated scf accuracy    <       4.65903119 Ry
     electrostatic embedding   =      -0.22848337 Ry
     electrolyte free energy   =      -0.00012532 Ry
     correction to one-el term =     -25.99838016 Ry

     iteration #  8     ecut=    30.00 Ry     beta= 0.70
     Davidson diagonalization with overlap
     ethr =  3.52E-03,  avg # of iterations =  1.0

     add environment contribution to local potential

     total cpu time spent up to now is      119.9 secs

     total energy              =    -672.03511624 Ry
     estimated scf accuracy    <       3.66790458 Ry
     electrostatic embedding   =      -0.26630125 Ry
     electrolyte free energy   =      -0.00012548 Ry
     correction to one-el term =     -33.49016101 Ry

     iteration #  9     ecut=    30.00 Ry     beta= 0.70
     Davidson diagonalization with overlap
     ethr =  3.52E-03,  avg # of iterations =  1.7

     add environment contribution to local potential

     total cpu time spent up to now is      138.5 secs

     total energy              =    -671.86580840 Ry
     estimated scf accuracy    <       5.42147658 Ry
     electrostatic embedding   =      -0.32744676 Ry
     electrolyte free energy   =      -0.00012552 Ry
     correction to one-el term =     -48.14068761 Ry

     iteration # 10     ecut=    30.00 Ry     beta= 0.70
     Davidson diagonalization with overlap
     ethr =  3.52E-03,  avg # of iterations =  1.3

     negative rho (up, down):  1.670E-08 0.000E+00

     add environment contribution to local potential

     total cpu time spent up to now is      150.6 secs

     total energy              =    -671.65782976 Ry
     estimated scf accuracy    <       2.03315962 Ry
     electrostatic embedding   =      -0.32286017 Ry
     electrolyte free energy   =      -0.00012281 Ry
     correction to one-el term =     -55.34011708 Ry

     iteration # 11     ecut=    30.00 Ry     beta= 0.70
     Davidson diagonalization with overlap
     ethr =  2.32E-03,  avg # of iterations =  5.0

     negative rho (up, down):  2.738E-05 0.000E+00

     add environment contribution to local potential

     total cpu time spent up to now is      173.9 secs

     total energy              =    -673.51356500 Ry
     estimated scf accuracy    <       5.46068573 Ry
     electrostatic embedding   =      -0.31597134 Ry
     electrolyte free energy   =      -0.00011847 Ry
     correction to one-el term =     -66.03073296 Ry

     iteration # 12     ecut=    30.00 Ry     beta= 0.70
     Davidson diagonalization with overlap
     ethr =  2.32E-03,  avg # of iterations =  6.0

     negative rho (up, down):  4.723E-05 0.000E+00

     add environment contribution to local potential

     total cpu time spent up to now is      188.7 secs

     total energy              =    -673.43219555 Ry
     estimated scf accuracy    <       8.91849321 Ry
     electrostatic embedding   =      -0.14180775 Ry
     electrolyte free energy   =      -0.00011550 Ry
     correction to one-el term =     -47.99723927 Ry

     iteration # 13     ecut=    30.00 Ry     beta= 0.70
     Davidson diagonalization with overlap
     ethr =  2.32E-03,  avg # of iterations =  1.3

     negative rho (up, down):  6.564E-05 0.000E+00

     add environment contribution to local potential

     total cpu time spent up to now is      205.5 secs

     total energy              =    -673.42750659 Ry
     estimated scf accuracy    <       8.70778109 Ry
     electrostatic embedding   =      -0.10243951 Ry
     electrolyte free energy   =      -0.00011065 Ry
     correction to one-el term =     -39.96156564 Ry

     iteration # 14     ecut=    30.00 Ry     beta= 0.70
     Davidson diagonalization with overlap
     ethr =  2.32E-03,  avg # of iterations =  1.0

     negative rho (up, down):  8.521E-03 0.000E+00

     add environment contribution to local potential

     total cpu time spent up to now is      220.2 secs

     total energy              =    -673.39963528 Ry
     estimated scf accuracy    <       8.37881155 Ry
     electrostatic embedding   =      -0.09027758 Ry
     electrolyte free energy   =      -0.00012406 Ry
     correction to one-el term =     -37.64038866 Ry

     iteration # 15     ecut=    30.00 Ry     beta= 0.70
     Davidson diagonalization with overlap
     ethr =  2.32E-03,  avg # of iterations =  2.3

     negative rho (up, down):  5.940E-04 0.000E+00

     add environment contribution to local potential

     total cpu time spent up to now is      237.5 secs

     total energy              =    -673.41910291 Ry
     estimated scf accuracy    <       8.92639623 Ry
     electrostatic embedding   =      -0.06137546 Ry
     electrolyte free energy   =      -0.00010153 Ry
     correction to one-el term =     -32.35598189 Ry

     iteration # 16     ecut=    30.00 Ry     beta= 0.70
     Davidson diagonalization with overlap
     ethr =  2.32E-03,  avg # of iterations =  1.3

     negative rho (up, down):  1.283E-03 0.000E+00

     add environment contribution to local potential

     total cpu time spent up to now is      261.9 secs

     total energy              =    -673.43092858 Ry
     estimated scf accuracy    <       8.66962797 Ry
     electrostatic embedding   =      -0.07794405 Ry
     electrolyte free energy   =      -0.00010908 Ry
     correction to one-el term =     -35.29477789 Ry

     iteration # 17     ecut=    30.00 Ry     beta= 0.70
     Davidson diagonalization with overlap
     ethr =  2.32E-03,  avg # of iterations =  1.0

     negative rho (up, down):  4.588E-05 0.000E+00

     add environment contribution to local potential

     total cpu time spent up to now is      276.1 secs

     total energy              =    -673.35304891 Ry
     estimated scf accuracy    <       8.70976139 Ry
     electrostatic embedding   =      -0.07741759 Ry
     electrolyte free energy   =      -0.00010330 Ry
     correction to one-el term =     -35.29921709 Ry

     iteration # 18     ecut=    30.00 Ry     beta= 0.70
     Davidson diagonalization with overlap
     ethr =  2.32E-03,  avg # of iterations =  1.0

     negative rho (up, down):  4.652E-05 0.000E+00

     add environment contribution to local potential

     total cpu time spent up to now is      295.4 secs

     total energy              =    -673.30089325 Ry
     estimated scf accuracy    <       7.69265550 Ry
     electrostatic embedding   =      -0.08797230 Ry
     electrolyte free energy   =      -0.00011224 Ry
     correction to one-el term =     -36.77455462 Ry

     iteration # 19     ecut=    30.00 Ry     beta= 0.70
     Davidson diagonalization with overlap
     ethr =  2.32E-03,  avg # of iterations =  1.0

     negative rho (up, down):  4.346E-05 0.000E+00

     add environment contribution to local potential

     total cpu time spent up to now is      311.4 secs

     total energy              =    -671.85106950 Ry
     estimated scf accuracy    <       7.04070676 Ry
     electrostatic embedding   =      -0.09032018 Ry
     electrolyte free energy   =      -0.00010447 Ry
     correction to one-el term =     -37.27124701 Ry

     iteration # 20     ecut=    30.00 Ry     beta= 0.70
     Davidson diagonalization with overlap
     ethr =  2.32E-03,  avg # of iterations =  6.0

     negative rho (up, down):  1.536E-03 0.000E+00

     add environment contribution to local potential

     total cpu time spent up to now is      328.2 secs

     total energy              =    -672.10033727 Ry
     estimated scf accuracy    <      15.08458236 Ry
     electrostatic embedding   =      -0.16369587 Ry
     electrolyte free energy   =      -0.00011851 Ry
     correction to one-el term =     -51.93855826 Ry

     iteration # 21     ecut=    30.00 Ry     beta= 0.70
     Davidson diagonalization with overlap
     ethr =  2.32E-03,  avg # of iterations =  2.0

     negative rho (up, down):  5.596E-08 0.000E+00

     add environment contribution to local potential

     total cpu time spent up to now is      352.1 secs

     total energy              =    -672.64116930 Ry
     estimated scf accuracy    <       1.95771994 Ry
     electrostatic embedding   =      -0.07446277 Ry
     electrolyte free energy   =      -0.00010767 Ry
     correction to one-el term =     -34.18950077 Ry

     iteration # 22     ecut=    30.00 Ry     beta= 0.70
     Davidson diagonalization with overlap
     ethr =  2.24E-03,  avg # of iterations =  1.0

     negative rho (up, down):  6.578E-08 0.000E+00

     add environment contribution to local potential

     total cpu time spent up to now is      366.5 secs

     total energy              =    -672.69930884 Ry
     estimated scf accuracy    <       1.12653838 Ry
     electrostatic embedding   =      -0.09892869 Ry
     electrolyte free energy   =      -0.00011042 Ry
     correction to one-el term =     -39.14118346 Ry

     iteration # 23     ecut=    30.00 Ry     beta= 0.70
     Davidson diagonalization with overlap
     ethr =  1.29E-03,  avg # of iterations =  1.0

     negative rho (up, down):  3.920E-08 0.000E+00

     add environment contribution to local potential

     total cpu time spent up to now is      387.6 secs

     total energy              =    -672.70639285 Ry
     estimated scf accuracy    <       0.06812711 Ry
     electrostatic embedding   =      -0.10463613 Ry
     electrolyte free energy   =      -0.00011305 Ry
     correction to one-el term =     -40.46949517 Ry

     iteration # 24     ecut=    30.00 Ry     beta= 0.70
     Davidson diagonalization with overlap
     ethr =  7.79E-05,  avg # of iterations =  4.7

     add environment contribution to local potential

     total cpu time spent up to now is      403.1 secs

     total energy              =    -672.71229960 Ry
     estimated scf accuracy    <       0.22988069 Ry
     electrostatic embedding   =      -0.10350773 Ry
     electrolyte free energy   =      -0.00010507 Ry
     correction to one-el term =     -40.31890068 Ry

     iteration # 25     ecut=    30.00 Ry     beta= 0.70
     Davidson diagonalization with overlap
     ethr =  7.79E-05,  avg # of iterations =  2.0

     add environment contribution to local potential

     total cpu time spent up to now is      420.0 secs

     total energy              =    -672.69707870 Ry
     estimated scf accuracy    <       0.40864061 Ry
     electrostatic embedding   =      -0.10528326 Ry
     electrolyte free energy   =      -0.00013211 Ry
     correction to one-el term =     -40.79076206 Ry

     iteration # 26     ecut=    30.00 Ry     beta= 0.70
     Davidson diagonalization with overlap
     ethr =  7.79E-05,  avg # of iterations =  1.3

     add environment contribution to local potential

     total cpu time spent up to now is      444.1 secs

     total energy              =    -672.70564618 Ry
     estimated scf accuracy    <       0.24199084 Ry
     electrostatic embedding   =      -0.11013475 Ry
     electrolyte free energy   =      -0.00012834 Ry
     correction to one-el term =     -41.79237897 Ry

     iteration # 27     ecut=    30.00 Ry     beta= 0.70
     Davidson diagonalization with overlap
     ethr =  7.79E-05,  avg # of iterations =  1.3

     add environment contribution to local potential

     total cpu time spent up to now is      459.5 secs

     total energy              =    -672.70934981 Ry
     estimated scf accuracy    <       0.00622699 Ry
     electrostatic embedding   =      -0.10761836 Ry
     electrolyte free energy   =      -0.00012452 Ry
     correction to one-el term =     -41.27278597 Ry

     iteration # 28     ecut=    30.00 Ry     beta= 0.70
     Davidson diagonalization with overlap
     c_bands:  1 eigenvalues not converged
     ethr =  7.12E-06,  avg # of iterations = 12.0

     add environment contribution to local potential

     total cpu time spent up to now is      480.9 secs

     total energy              =    -672.70927863 Ry
     estimated scf accuracy    <       0.00282378 Ry
     electrostatic embedding   =      -0.10711724 Ry
     electrolyte free energy   =      -0.00012670 Ry
     correction to one-el term =     -41.13046758 Ry

     iteration # 29     ecut=    30.00 Ry     beta= 0.70
     Davidson diagonalization with overlap
     ethr =  3.23E-06,  avg # of iterations =  1.7

     add environment contribution to local potential

     total cpu time spent up to now is      504.9 secs

     total energy              =    -672.70932834 Ry
     estimated scf accuracy    <       0.00256113 Ry
     electrostatic embedding   =      -0.10727347 Ry
     electrolyte free energy   =      -0.00012758 Ry
     correction to one-el term =     -41.15708471 Ry

     iteration # 30     ecut=    30.00 Ry     beta= 0.70
     Davidson diagonalization with overlap
     ethr =  2.93E-06,  avg # of iterations =  1.7

     add environment contribution to local potential

     total cpu time spent up to now is      520.3 secs

     total energy              =    -672.70937256 Ry
     estimated scf accuracy    <       0.00005199 Ry
     electrostatic embedding   =      -0.10726034 Ry
     electrolyte free energy   =      -0.00012736 Ry
     correction to one-el term =     -41.15341858 Ry

     iteration # 31     ecut=    30.00 Ry     beta= 0.70
     Davidson diagonalization with overlap
     ethr =  5.94E-08,  avg # of iterations =  2.7

     add environment contribution to local potential

     total cpu time spent up to now is      541.1 secs

     total energy              =    -672.70937447 Ry
     estimated scf accuracy    <       0.00000953 Ry
     electrostatic embedding   =      -0.10730772 Ry
     electrolyte free energy   =      -0.00012757 Ry
     correction to one-el term =     -41.15885836 Ry

     iteration # 32     ecut=    30.00 Ry     beta= 0.70
     Davidson diagonalization with overlap
     ethr =  1.09E-08,  avg # of iterations =  2.3

     add environment contribution to local potential

     total cpu time spent up to now is      556.5 secs

     total energy              =    -672.70937281 Ry
     estimated scf accuracy    <       0.00000002 Ry
     electrostatic embedding   =      -0.10729750 Ry
     electrolyte free energy   =      -0.00012777 Ry
     correction to one-el term =     -41.15401153 Ry

     iteration # 33     ecut=    30.00 Ry     beta= 0.70
     Davidson diagonalization with overlap
     ethr =  2.12E-11,  avg # of iterations =  7.7

     add environment contribution to local potential

     total cpu time spent up to now is      574.0 secs

     total energy              =    -672.70937271 Ry
     estimated scf accuracy    <       0.00000004 Ry
     electrostatic embedding   =      -0.10729905 Ry
     electrolyte free energy   =      -0.00012780 Ry
     correction to one-el term =     -41.15325356 Ry

     iteration # 34     ecut=    30.00 Ry     beta= 0.70
     Davidson diagonalization with overlap
     ethr =  2.12E-11,  avg # of iterations =  2.3

     add environment contribution to local potential

     total cpu time spent up to now is      604.3 secs

     total energy              =    -672.70937273 Ry
     estimated scf accuracy    <       0.00000002 Ry
     electrostatic embedding   =      -0.10730017 Ry
     electrolyte free energy   =      -0.00012780 Ry
     correction to one-el term =     -41.15273524 Ry

     iteration # 35     ecut=    30.00 Ry     beta= 0.70
     Davidson diagonalization with overlap
     ethr =  2.04E-11,  avg # of iterations =  2.3

     add environment contribution to local potential

     total cpu time spent up to now is      620.1 secs

     total energy              =    -672.70937274 Ry
     estimated scf accuracy    <          8.7E-09 Ry
     electrostatic embedding   =      -0.10729776 Ry
     electrolyte free energy   =      -0.00012780 Ry
     correction to one-el term =     -41.15137364 Ry

     iteration # 36     ecut=    30.00 Ry     beta= 0.70
     Davidson diagonalization with overlap
     c_bands:  1 eigenvalues not converged
     ethr =  9.90E-12,  avg # of iterations =  8.7

     the potential shift due to the Gaussian-smeared nuclei is    -0.5949 ev

     total cpu time spent up to now is      623.2 secs

     End of self-consistent calculation

          k = 0.0000 0.0000 0.0000 (  8687 PWs)   bands (ev):

   -11.7419 -11.4286 -10.9459 -10.5084 -10.4249 -10.4223 -10.4071 -10.3287
   -10.2096 -10.1646 -10.0587  -9.8997  -9.6997  -9.4731  -9.1837  -8.9864
    -8.9611  -8.9611  -8.9189  -8.9189  -8.6792  -8.6792  -8.3897  -8.3049
    -8.2976  -8.2976  -8.1641  -8.1623  -8.1026  -8.0201  -7.9829  -7.9829
    -7.9005  -7.7771  -7.6916  -7.6916  -7.6906  -7.5234  -7.4175  -7.3323
    -7.3323  -7.3281  -7.2446  -7.1001  -7.1001  -6.1064  -4.5231  -2.7821
    -2.2688   0.1448   0.1543   0.3790   0.5223

     occupation numbers 
     1.0000   1.0000   1.0000   1.0000   1.0000   1.0000   1.0000   1.0000
     1.0000   1.0000   1.0000   1.0000   1.0000   1.0000   1.0000   1.0000
     1.0000   1.0000   1.0000   1.0000   1.0000   1.0000   1.0000   1.0000
     1.0000   1.0000   1.0000   1.0000   1.0000   1.0000   1.0000   1.0000
     1.0000   1.0000   1.0000   1.0000   1.0000   1.0000   1.0000   1.0000
     1.0000   1.0000   1.0000   1.0000   1.0000   1.0000   0.0578   0.0000
     0.0000   0.0000   0.0000   0.0000   0.0000

          k = 0.0000-0.5000 0.0000 (  8814 PWs)   bands (ev):

   -10.4371 -10.4371 -10.3415 -10.3414 -10.0781 -10.0781  -9.6831  -9.6831
    -9.2806  -9.2806  -9.2380  -9.2379  -9.0538  -9.0538  -9.0515  -9.0515
    -8.9462  -8.9462  -8.9371  -8.9371  -8.7304  -8.7304  -8.6896  -8.6896
    -8.4383  -8.4383  -8.2843  -8.2842  -7.9704  -7.9704  -7.7988  -7.7988
    -7.7841  -7.7841  -7.4759  -7.4759  -7.3592  -7.3592  -7.2546  -7.2546
    -4.9475  -4.9475  -4.8795  -4.8795  -4.7799  -4.7799  -4.4688  -4.4688
    -1.4656  -1.4656  -0.2480  -0.2479   1.1386

     occupation numbers 
     1.0000   1.0000   1.0000   1.0000   1.0000   1.0000   1.0000   1.0000
     1.0000   1.0000   1.0000   1.0000   1.0000   1.0000   1.0000   1.0000
     1.0000   1.0000   1.0000   1.0000   1.0000   1.0000   1.0000   1.0000
     1.0000   1.0000   1.0000   1.0000   1.0000   1.0000   1.0000   1.0000
     1.0000   1.0000   1.0000   1.0000   1.0000   1.0000   1.0000   1.0000
     0.9279   0.9278   0.7743   0.7742   0.5038   0.5038   0.0296   0.0296
     0.0000   0.0000   0.0000   0.0000   0.0000

          k =-0.5000-0.5000 0.0000 (  8868 PWs)   bands (ev):

   -10.4894 -10.4894 -10.3688 -10.3688 -10.3139 -10.3139 -10.2214 -10.2214
   -10.1197 -10.1197  -9.9413  -9.9413  -9.8288  -9.8288  -9.4263  -9.4263
    -8.8768  -8.8768  -8.3428  -8.3428  -7.9752  -7.9752  -7.8758  -7.8758
    -7.7384  -7.7384  -7.5499  -7.5499  -7.4580  -7.4580  -7.2933  -7.2933
    -7.2348  -7.2348  -7.2105  -7.2105  -7.0346  -7.0345  -6.9371  -6.9370
    -2.5059  -2.5059  -1.8402  -1.8402  -0.8375  -0.8375   0.4587   0.4587
     1.8832   1.8832   1.9891   1.9904   2.0675

     occupation numbers 
     1.0000   1.0000   1.0000   1.0000   1.0000   1.0000   1.0000   1.0000
     1.0000   1.0000   1.0000   1.0000   1.0000   1.0000   1.0000   1.0000
     1.0000   1.0000   1.0000   1.0000   1.0000   1.0000   1.0000   1.0000
     1.0000   1.0000   1.0000   1.0000   1.0000   1.0000   1.0000   1.0000
     1.0000   1.0000   1.0000   1.0000   1.0000   1.0000   1.0000   1.0000
     0.0000   0.0000   0.0000   0.0000   0.0000   0.0000   0.0000   0.0000
     0.0000   0.0000   0.0000   0.0000   0.0000

     the Fermi energy is    -4.7406 ev

!    total energy              =    -672.70937289 Ry
     estimated scf accuracy    <          2.3E-09 Ry
     smearing contrib. (-TS)   =      -0.01081762 Ry
     internal energy E=F+TS    =    -672.69855527 Ry

     The total energy is F=E-TS. E is the sum of the following terms:
     one-electron contribution =  -26353.89925229 Ry
     hartree contribution      =   13220.02462648 Ry
     xc contribution           =    -178.44527081 Ry
     ewald contribution        =   12680.87942749 Ry
     electrostatic embedding   =      -0.10729781 Ry
     electrolyte free energy   =      -0.00012779 Ry
     correction to one-el term =     -41.15066054 Ry

     WARNING: you are using the parabolic pbc correction;
              the potential shift above must be added to 
              band and Fermi energies.

     convergence has been achieved in  36 iterations
     The global environment contribution to forces
     atom    1 type  1   force =     0.00000000   -0.00000000   -0.55909089
     atom    2 type  1   force =     0.00000000    0.00000000   -0.42914006
     atom    3 type  1   force =    -0.00000000   -0.00000000   -0.25708072
     atom    4 type  1   force =     0.00000000    0.00000000   -0.08559911
     atom    5 type  1   force =    -0.00000000   -0.00000000    0.08559503
     atom    6 type  1   force =    -0.00000000   -0.00000000    0.25707664
     atom    7 type  1   force =     0.00000000    0.00000000    0.42913593
     atom    8 type  1   force =    -0.00000000   -0.00000000    0.55908701
 

     Forces acting on atoms (cartesian axes, Ry/au):

     atom    1 type  1   force =     0.00000000    0.00000000   -0.00257597
     atom    2 type  1   force =     0.00000000    0.00000000    0.00586442
     atom    3 type  1   force =     0.00000000    0.00000000   -0.00185869
     atom    4 type  1   force =     0.00000000    0.00000000    0.00111635
     atom    5 type  1   force =     0.00000000    0.00000000   -0.00111635
     atom    6 type  1   force =     0.00000000    0.00000000    0.00185869
     atom    7 type  1   force =     0.00000000    0.00000000   -0.00586442
     atom    8 type  1   force =     0.00000000    0.00000000    0.00257597
     The non-local contrib.  to forces
     atom    1 type  1   force =     0.00000000    0.00000000   -0.27998676
     atom    2 type  1   force =     0.00000000    0.00000000   -0.13861897
     atom    3 type  1   force =     0.00000000    0.00000000    0.06090100
     atom    4 type  1   force =     0.00000000    0.00000000    0.01257312
     atom    5 type  1   force =     0.00000000    0.00000000   -0.01257312
     atom    6 type  1   force =     0.00000000    0.00000000   -0.06090100
     atom    7 type  1   force =     0.00000000    0.00000000    0.13861897
     atom    8 type  1   force =     0.00000000    0.00000000    0.27998676
     The ionic contribution  to forces
     atom    1 type  1   force =    -0.00000000   -0.00000000 -239.27066904
     atom    2 type  1   force =     0.00000000    0.00000000 -172.16089596
     atom    3 type  1   force =    -0.00000000   -0.00000000 -103.18769990
     atom    4 type  1   force =     0.00000000    0.00000000  -34.40075415
     atom    5 type  1   force =    -0.00000000   -0.00000000   34.40075220
     atom    6 type  1   force =     0.00000000    0.00000000  103.18770000
     atom    7 type  1   force =    -0.00000000   -0.00000000  172.16089755
     atom    8 type  1   force =     0.00000000    0.00000000  239.27066931
     The local contribution  to forces
     atom    1 type  1   force =    -0.00000000   -0.00000000  240.10195505
     atom    2 type  1   force =     0.00000000    0.00000000  172.73750112
     atom    3 type  1   force =    -0.00000000   -0.00000000  103.38143434
     atom    4 type  1   force =     0.00000000    0.00000000   34.47446625
     atom    5 type  1   force =    -0.00000000   -0.00000000  -34.47446625
     atom    6 type  1   force =     0.00000000    0.00000000 -103.38143434
     atom    7 type  1   force =    -0.00000000   -0.00000000 -172.73745018
     atom    8 type  1   force =     0.00000000    0.00000000 -240.10195505
     The core correction contribution to forces
     atom    1 type  1   force =    -0.00000000   -0.00000000    0.00533246
     atom    2 type  1   force =     0.00000000    0.00000000   -0.00279411
     atom    3 type  1   force =    -0.00000000   -0.00000000    0.00055380
     atom    4 type  1   force =     0.00000000    0.00000000    0.00035601
     atom    5 type  1   force =    -0.00000000   -0.00000000   -0.00035601
     atom    6 type  1   force =     0.00000000    0.00000000   -0.00055380
     atom    7 type  1   force =    -0.00000000   -0.00000000    0.00279698
     atom    8 type  1   force =     0.00000000    0.00000000   -0.00533246
     The Hubbard contrib.    to forces
     atom    1 type  1   force =     0.00000000    0.00000000    0.00000000
     atom    2 type  1   force =     0.00000000    0.00000000    0.00000000
     atom    3 type  1   force =     0.00000000    0.00000000    0.00000000
     atom    4 type  1   force =     0.00000000    0.00000000    0.00000000
     atom    5 type  1   force =     0.00000000    0.00000000    0.00000000
     atom    6 type  1   force =     0.00000000    0.00000000    0.00000000
     atom    7 type  1   force =     0.00000000    0.00000000    0.00000000
     atom    8 type  1   force =     0.00000000    0.00000000    0.00000000
     The SCF correction term to forces
     atom    1 type  1   force =    -0.00000000   -0.00000000   -0.00011860
     atom    2 type  1   force =     0.00000000   -0.00000000   -0.00016196
     atom    3 type  1   force =    -0.00000000   -0.00000000    0.00003079
     atom    4 type  1   force =    -0.00000000   -0.00000000    0.00007121
     atom    5 type  1   force =     0.00000000    0.00000000   -0.00007121
     atom    6 type  1   force =    -0.00000000    0.00000000   -0.00003079
     atom    7 type  1   force =     0.00000000    0.00000000    0.00016196
     atom    8 type  1   force =    -0.00000000   -0.00000000    0.00011860

     Total force =     0.009563     Total SCF correction =     0.000304

     Writing output data file /home/simplogic86/Work/QE1/tempdir/scf.save/
 
     init_run     :      4.83s CPU      6.10s WALL (       1 calls)
     electrons    :    545.14s CPU    615.63s WALL (       1 calls)
     forces       :      2.73s CPU      3.14s WALL (       1 calls)

     Called by init_run:
     wfcinit      :      1.66s CPU      2.38s WALL (       1 calls)
     wfcinit:atom :      0.00s CPU      0.00s WALL (       3 calls)
     wfcinit:wfcr :      1.63s CPU      2.35s WALL (       3 calls)
     potinit      :      0.70s CPU      0.81s WALL (       1 calls)
     hinit0       :      1.56s CPU      1.73s WALL (       1 calls)

     Called by electrons:
     c_bands      :     81.19s CPU    107.45s WALL (      36 calls)
     sum_band     :     22.93s CPU     32.91s WALL (      36 calls)
     v_of_rho     :      6.45s CPU     10.76s WALL (      37 calls)
     v_h          :      0.42s CPU      0.48s WALL (      37 calls)
     v_xc         :      6.17s CPU     10.46s WALL (      38 calls)
     newd         :      9.62s CPU     11.46s WALL (      37 calls)
     mix_rho      :      2.55s CPU      3.11s WALL (      36 calls)

     Called by c_bands:
     init_us_2    :      0.36s CPU      0.38s WALL (     222 calls)
     cegterg      :     77.89s CPU    103.58s WALL (     111 calls)

     Called by sum_band:
     sum_band:wei :      0.01s CPU      0.01s WALL (      36 calls)
     sum_band:loo :      9.16s CPU     12.46s WALL (      36 calls)
     sum_band:buf :      0.07s CPU      0.07s WALL (     108 calls)
     sum_band:ini :      0.18s CPU      0.19s WALL (     108 calls)
     sum_band:cal :      0.93s CPU      1.08s WALL (     108 calls)
     sum_band:bec :      0.01s CPU      0.02s WALL (     108 calls)
     addusdens    :      9.94s CPU     12.53s WALL (      36 calls)
     addusd:skk   :      0.09s CPU      0.09s WALL (      36 calls)
     addusd:dgemm :      1.82s CPU      4.23s WALL (      36 calls)
     addusd:qvan2 :      7.61s CPU      7.75s WALL (      36 calls)

     Called by *egterg:
     cdiaghg      :      4.67s CPU      4.79s WALL (     641 calls)
     cegterg:over :      5.40s CPU      6.10s WALL (     530 calls)
     cegterg:upda :      1.15s CPU      1.17s WALL (     530 calls)
     cegterg:last :      2.75s CPU      2.78s WALL (     327 calls)
     h_psi        :     60.20s CPU     85.26s WALL (     644 calls)
     s_psi        :      2.08s CPU      2.13s WALL (     644 calls)
     g_psi        :      0.09s CPU      0.09s WALL (     530 calls)

     Called by h_psi:
     h_psi:calbec :      4.08s CPU      4.71s WALL (     644 calls)
     vloc_psi     :     53.87s CPU     78.24s WALL (     644 calls)
     add_vuspsi   :      2.09s CPU      2.15s WALL (     644 calls)

     General routines
     calbec       :      5.36s CPU      6.16s WALL (     764 calls)
     fft          :      6.36s CPU      9.53s WALL (     490 calls)
     ffts         :      0.11s CPU      0.13s WALL (      73 calls)
     fftw         :     59.59s CPU     86.76s WALL (   43952 calls)
     interpolate  :      0.34s CPU      0.35s WALL (      37 calls)
 
     Parallel routines
     fft_scatt_xy :      2.47s CPU      3.10s WALL (   44515 calls)
     fft_scatt_yz :     49.38s CPU     75.86s WALL (   44515 calls)
 
     Environ routines
 
     PWSCF        :   9m17.04s CPU  10m30.75s WALL

 
   This run was terminated on:  12:30:34  25Sep2021            

=------------------------------------------------------------------------------=
   JOB DONE.
=------------------------------------------------------------------------------=
