
     Program PWSCF v.6.7MaX starts on 25Sep2021 at 12:30:35 

     This program is part of the open-source Quantum ESPRESSO suite
     for quantum simulation of materials; please cite
         "P. Giannozzi et al., J. Phys.:Condens. Matter 21 395502 (2009);
         "P. Giannozzi et al., J. Phys.:Condens. Matter 29 465901 (2017);
          URL http://www.quantum-espresso.org", 
     in publications or presentations arising from this work. More details at
     http://www.quantum-espresso.org/quote

     Parallel version (MPI), running on     8 processors

     MPI processes distributed on     1 nodes
     R & G space division:  proc/nbgrp/npool/nimage =       8
     Waiting for input...
     Reading input from standard input
Warning: card &CELL ignored
Warning: card / ignored

     Current dimensions of program PWSCF are:
     Max number of different atomic species (ntypx) = 10
     Max number of k-points (npk) =  40000
     Max angular momentum in pseudopotentials (lmaxx) =  3

     Reading input from environ.in

     ================================================================================

     Reading ENVIRON namelist

     Reading BOUNDARY namelist

     Checking boundary derivatives
     derivatives               = chain          ! SCCS default

     Reading ELECTROSTATIC namelist

     Setting up electrostatic problem
     problem                   = modpb          
     solver                    = newton         
     inner_solver              = cg             

     Checking PBC correction

     ================================================================================
 

     Subspace diagonalization in iterative solution of the eigenvalue problem:
     a serial algorithm will be used

     Message from routine setup:
     using ibrav=0 with symmetry is DISCOURAGED, use correct ibrav instead
 
     Parallelization info
     --------------------
     sticks:   dense  smooth     PW     G-vecs:    dense   smooth      PW
     Min          92      36     12                34688     8766    1652
     Max          93      37     13                34713     8833    1693
     Sum         741     293     97               277595    70411   13373
 


     bravais-lattice index     =            0
     lattice parameter (alat)  =       5.5435  a.u.
     unit-cell volume          =    3161.5726 (a.u.)^3
     number of atoms/cell      =            8
     number of atomic types    =            1
     number of electrons       =        87.50
     number of Kohn-Sham states=           53
     kinetic-energy cutoff     =      30.0000  Ry
     charge density cutoff     =     300.0000  Ry
     scf convergence threshold =      5.0E-09
     mixing beta               =       0.7000
     number of iterations used =            8  plain     mixing
     Exchange-correlation= PBE
                           (   1   4   3   4   0   0   0)
 

     Environ Module
     ==============

     Please cite
         O. Andreussi, I. Dabo and N. Marzari, J. Chem. Phys. 136, 064102 (2012)         
     in publications or presentations arising from this work.

     compensation onset threshold      =               0.1000E+03
     static permittivity               =                    80.00
     epsilon calculation mode          =                     full

     Electrostatic Setup
     -------------------
     electrostatic problem to solve    = modpb                   
     numerical solver adopted          = newton                  
     type of auxiliary density adopted = none                    
     type of core tool for poisson     = fft                     
     type of core tool for correction  = 1d-analytic             



     celldm(1)=   5.543526  celldm(2)=   0.000000  celldm(3)=   0.000000
     celldm(4)=   0.000000  celldm(5)=   0.000000  celldm(6)=   0.000000

     crystal axes: (cart. coord. in units of alat)
               a(1) = (   1.000000   0.000000   0.000000 )  
               a(2) = (   0.000000   1.000000   0.000000 )  
               a(3) = (   0.000000   0.000000  18.558586 )  

     reciprocal axes: (cart. coord. in units 2 pi/alat)
               b(1) = (  1.000000  0.000000  0.000000 )  
               b(2) = (  0.000000  1.000000  0.000000 )  
               b(3) = (  0.000000  0.000000  0.053883 )  


     PseudoPot. # 1 for Ag read from file:
     /home/simplogic86/Work/QE1/pseudo/Ag.pbe-n-rrkjus_psl.1.0.0.UPF
     MD5 check sum: d841cbfac2b0861aec33b46768a516bf
     Pseudo is Ultrasoft + core correction, Zval = 11.0
     Generated using &quot;atomic&quot; code by A. Dal Corso  v.6.2.2
     Using radial grid of 1237 points,  6 beta functions with: 
                l(1) =   0
                l(2) =   0
                l(3) =   1
                l(4) =   1
                l(5) =   2
                l(6) =   2
     Q(r) pseudized with 0 coefficients 


     atomic species   valence    mass     pseudopotential
        Ag            11.00   107.86820     Ag( 1.00)

     16 Sym. Ops., with inversion, found ( 8 have fractional translation)


                                    s                        frac. trans.

      isym =  1     identity                                     

 cryst.   s( 1) = (     1          0          0      )
                  (     0          1          0      )
                  (     0          0          1      )

 cart.    s( 1) = (  1.0000000  0.0000000  0.0000000 )
                  (  0.0000000  1.0000000  0.0000000 )
                  (  0.0000000  0.0000000  1.0000000 )


      isym =  2     180 deg rotation - cart. axis [0,0,1]        

 cryst.   s( 2) = (    -1          0          0      )
                  (     0         -1          0      )
                  (     0          0          1      )

 cart.    s( 2) = ( -1.0000000  0.0000000  0.0000000 )
                  (  0.0000000 -1.0000000  0.0000000 )
                  (  0.0000000  0.0000000  1.0000000 )


      isym =  3     180 deg rotation - cart. axis [0,1,0]        

 cryst.   s( 3) = (    -1          0          0      )    f =(  0.5000000 )
                  (     0          1          0      )       (  0.5000000 )
                  (     0          0         -1      )       ( -0.0000000 )

 cart.    s( 3) = ( -1.0000000  0.0000000  0.0000000 )    f =(  0.5000000 )
                  (  0.0000000  1.0000000  0.0000000 )       (  0.5000000 )
                  (  0.0000000  0.0000000 -1.0000000 )       ( -0.0000000 )


      isym =  4     180 deg rotation - cart. axis [1,0,0]        

 cryst.   s( 4) = (     1          0          0      )    f =(  0.5000000 )
                  (     0         -1          0      )       (  0.5000000 )
                  (     0          0         -1      )       ( -0.0000000 )

 cart.    s( 4) = (  1.0000000  0.0000000  0.0000000 )    f =(  0.5000000 )
                  (  0.0000000 -1.0000000  0.0000000 )       (  0.5000000 )
                  (  0.0000000  0.0000000 -1.0000000 )       ( -0.0000000 )


      isym =  5     180 deg rotation - cart. axis [1,1,0]        

 cryst.   s( 5) = (     0          1          0      )    f =(  0.5000000 )
                  (     1          0          0      )       (  0.5000000 )
                  (     0          0         -1      )       ( -0.0000000 )

 cart.    s( 5) = (  0.0000000  1.0000000  0.0000000 )    f =(  0.5000000 )
                  (  1.0000000  0.0000000  0.0000000 )       (  0.5000000 )
                  (  0.0000000  0.0000000 -1.0000000 )       ( -0.0000000 )


      isym =  6     180 deg rotation - cart. axis [1,-1,0]       

 cryst.   s( 6) = (     0         -1          0      )    f =(  0.5000000 )
                  (    -1          0          0      )       (  0.5000000 )
                  (     0          0         -1      )       ( -0.0000000 )

 cart.    s( 6) = (  0.0000000 -1.0000000  0.0000000 )    f =(  0.5000000 )
                  ( -1.0000000  0.0000000  0.0000000 )       (  0.5000000 )
                  (  0.0000000  0.0000000 -1.0000000 )       ( -0.0000000 )


      isym =  7      90 deg rotation - cart. axis [0,0,-1]       

 cryst.   s( 7) = (     0         -1          0      )
                  (     1          0          0      )
                  (     0          0          1      )

 cart.    s( 7) = (  0.0000000  1.0000000  0.0000000 )
                  ( -1.0000000  0.0000000  0.0000000 )
                  (  0.0000000  0.0000000  1.0000000 )


      isym =  8      90 deg rotation - cart. axis [0,0,1]        

 cryst.   s( 8) = (     0          1          0      )
                  (    -1          0          0      )
                  (     0          0          1      )

 cart.    s( 8) = (  0.0000000 -1.0000000  0.0000000 )
                  (  1.0000000  0.0000000  0.0000000 )
                  (  0.0000000  0.0000000  1.0000000 )


      isym =  9     inversion                                    

 cryst.   s( 9) = (    -1          0          0      )    f =(  0.5000000 )
                  (     0         -1          0      )       (  0.5000000 )
                  (     0          0         -1      )       ( -0.0000000 )

 cart.    s( 9) = ( -1.0000000  0.0000000  0.0000000 )    f =(  0.5000000 )
                  (  0.0000000 -1.0000000  0.0000000 )       (  0.5000000 )
                  (  0.0000000  0.0000000 -1.0000000 )       ( -0.0000000 )


      isym = 10     inv. 180 deg rotation - cart. axis [0,0,1]   

 cryst.   s(10) = (     1          0          0      )    f =(  0.5000000 )
                  (     0          1          0      )       (  0.5000000 )
                  (     0          0         -1      )       ( -0.0000000 )

 cart.    s(10) = (  1.0000000  0.0000000  0.0000000 )    f =(  0.5000000 )
                  (  0.0000000  1.0000000  0.0000000 )       (  0.5000000 )
                  (  0.0000000  0.0000000 -1.0000000 )       ( -0.0000000 )


      isym = 11     inv. 180 deg rotation - cart. axis [0,1,0]   

 cryst.   s(11) = (     1          0          0      )
                  (     0         -1          0      )
                  (     0          0          1      )

 cart.    s(11) = (  1.0000000  0.0000000  0.0000000 )
                  (  0.0000000 -1.0000000  0.0000000 )
                  (  0.0000000  0.0000000  1.0000000 )


      isym = 12     inv. 180 deg rotation - cart. axis [1,0,0]   

 cryst.   s(12) = (    -1          0          0      )
                  (     0          1          0      )
                  (     0          0          1      )

 cart.    s(12) = ( -1.0000000  0.0000000  0.0000000 )
                  (  0.0000000  1.0000000  0.0000000 )
                  (  0.0000000  0.0000000  1.0000000 )


      isym = 13     inv. 180 deg rotation - cart. axis [1,1,0]   

 cryst.   s(13) = (     0         -1          0      )
                  (    -1          0          0      )
                  (     0          0          1      )

 cart.    s(13) = (  0.0000000 -1.0000000  0.0000000 )
                  ( -1.0000000  0.0000000  0.0000000 )
                  (  0.0000000  0.0000000  1.0000000 )


      isym = 14     inv. 180 deg rotation - cart. axis [1,-1,0]  

 cryst.   s(14) = (     0          1          0      )
                  (     1          0          0      )
                  (     0          0          1      )

 cart.    s(14) = (  0.0000000  1.0000000  0.0000000 )
                  (  1.0000000  0.0000000  0.0000000 )
                  (  0.0000000  0.0000000  1.0000000 )


      isym = 15     inv.  90 deg rotation - cart. axis [0,0,-1]  

 cryst.   s(15) = (     0          1          0      )    f =(  0.5000000 )
                  (    -1          0          0      )       (  0.5000000 )
                  (     0          0         -1      )       ( -0.0000000 )

 cart.    s(15) = (  0.0000000 -1.0000000  0.0000000 )    f =(  0.5000000 )
                  (  1.0000000  0.0000000  0.0000000 )       (  0.5000000 )
                  (  0.0000000  0.0000000 -1.0000000 )       ( -0.0000000 )


      isym = 16     inv.  90 deg rotation - cart. axis [0,0,1]   

 cryst.   s(16) = (     0         -1          0      )    f =(  0.5000000 )
                  (     1          0          0      )       (  0.5000000 )
                  (     0          0         -1      )       ( -0.0000000 )

 cart.    s(16) = (  0.0000000  1.0000000  0.0000000 )    f =(  0.5000000 )
                  ( -1.0000000  0.0000000  0.0000000 )       (  0.5000000 )
                  (  0.0000000  0.0000000 -1.0000000 )       ( -0.0000000 )


   Cartesian axes

     site n.     atom                  positions (alat units)
         1           Ag  tau(   1) = (   0.5000000   0.5000000   6.8177767  )
         2           Ag  tau(   2) = (   0.0000000   0.0000000   7.5110323  )
         3           Ag  tau(   3) = (   0.5000000   0.5000000   8.2185960  )
         4           Ag  tau(   4) = (   0.0000000   0.0000000   8.9261320  )
         5           Ag  tau(   5) = (   0.5000000   0.5000000   9.6324544  )
         6           Ag  tau(   6) = (   0.0000000   0.0000000  10.3399904  )
         7           Ag  tau(   7) = (   0.5000000   0.5000000  11.0475540  )
         8           Ag  tau(   8) = (   0.0000000   0.0000000  11.7408097  )

   Crystallographic axes

     site n.     atom                  positions (cryst. coord.)
         1           Ag  tau(   1) = (  0.5000000  0.5000000  0.3673651  )
         2           Ag  tau(   2) = (  0.0000000  0.0000000  0.4047201  )
         3           Ag  tau(   3) = (  0.5000000  0.5000000  0.4428460  )
         4           Ag  tau(   4) = (  0.0000000  0.0000000  0.4809705  )
         5           Ag  tau(   5) = (  0.5000000  0.5000000  0.5190295  )
         6           Ag  tau(   6) = (  0.0000000  0.0000000  0.5571540  )
         7           Ag  tau(   7) = (  0.5000000  0.5000000  0.5952799  )
         8           Ag  tau(   8) = (  0.0000000  0.0000000  0.6326349  )

     number of k points=     3  Marzari-Vanderbilt smearing, width (Ry)=  0.0200
                       cart. coord. in units 2pi/alat
        k(    1) = (   0.0000000   0.0000000   0.0000000), wk =   0.5000000
        k(    2) = (   0.0000000  -0.5000000   0.0000000), wk =   1.0000000
        k(    3) = (  -0.5000000  -0.5000000   0.0000000), wk =   0.5000000

                       cryst. coord.
        k(    1) = (   0.0000000   0.0000000   0.0000000), wk =   0.5000000
        k(    2) = (   0.0000000  -0.5000000   0.0000000), wk =   1.0000000
        k(    3) = (  -0.5000000  -0.5000000   0.0000000), wk =   0.5000000

     Dense  grid:   277595 G-vectors     FFT dimensions: (  32,  32, 576)

     Smooth grid:    70411 G-vectors     FFT dimensions: (  20,  20, 360)

     Dynamical RAM for                 wfc:       0.89 MB

     Dynamical RAM for     wfc (w. buffer):       3.55 MB

     Dynamical RAM for           str. fact:       0.53 MB

     Dynamical RAM for           local pot:       0.00 MB

     Dynamical RAM for          nlocal pot:       2.41 MB

     Dynamical RAM for                qrad:       1.39 MB

     Dynamical RAM for          rho,v,vnew:       3.28 MB

     Dynamical RAM for               rhoin:       1.09 MB

     Dynamical RAM for            rho*nmix:       8.47 MB

     Dynamical RAM for           G-vectors:       2.05 MB

     Dynamical RAM for          h,s,v(r/c):       0.51 MB

     Dynamical RAM for          <psi|beta>:       0.12 MB

     Dynamical RAM for                 psi:       1.77 MB

     Dynamical RAM for                hpsi:       1.77 MB

     Dynamical RAM for                spsi:       1.77 MB

     Dynamical RAM for      wfcinit/wfcrot:       2.53 MB

     Dynamical RAM for           addusdens:     102.76 MB

     Dynamical RAM for          addusforce:     110.47 MB

     Estimated static dynamical RAM per process >      26.64 MB

     Estimated max dynamical RAM per process >     137.11 MB

     Estimated total dynamical RAM >       1.07 GB
Warning: wrong integral of erfc function


     Initial potential from superposition of free atoms

     starting charge   87.99681, renormalised to   87.50000

     negative rho (up, down):  3.125E-04 0.000E+00
     Starting wfcs are   72 randomized atomic wfcs

     total cpu time spent up to now is        7.6 secs

     Self-consistent Calculation

     iteration #  1     ecut=    30.00 Ry     beta= 0.70
     Davidson diagonalization with overlap
     ethr =  1.00E-02,  avg # of iterations =  5.7

     total cpu time spent up to now is       14.1 secs

     total energy              =    -543.73148753 Ry
     estimated scf accuracy    <     146.27981688 Ry
     electrostatic embedding   =       0.02186097 Ry
     electrolyte free energy   =       0.00119623 Ry
     correction to one-el term =       0.00000000 Ry

     iteration #  2     ecut=    30.00 Ry     beta= 0.70
     Davidson diagonalization with overlap
     ethr =  1.00E-02,  avg # of iterations = 31.0

     negative rho (up, down):  5.625E-06 0.000E+00

     total cpu time spent up to now is       29.0 secs

     total energy              =    -548.98940848 Ry
     estimated scf accuracy    <    9595.11030234 Ry
     electrostatic embedding   =       0.02186097 Ry
     electrolyte free energy   =       0.00119623 Ry
     correction to one-el term =       0.00000000 Ry

     iteration #  3     ecut=    30.00 Ry     beta= 0.70
     Davidson diagonalization with overlap
     ethr =  1.00E-02,  avg # of iterations = 18.3

     negative rho (up, down):  1.298E-04 0.000E+00

     total cpu time spent up to now is       37.0 secs

     total energy              =    -627.59617395 Ry
     estimated scf accuracy    <    3027.89295462 Ry
     electrostatic embedding   =       0.02186097 Ry
     electrolyte free energy   =       0.00119623 Ry
     correction to one-el term =       0.00000000 Ry

     iteration #  4     ecut=    30.00 Ry     beta= 0.70
     Davidson diagonalization with overlap
     c_bands:  1 eigenvalues not converged
     ethr =  1.00E-02,  avg # of iterations = 18.0

     negative rho (up, down):  3.525E-05 0.000E+00

     total cpu time spent up to now is       52.8 secs

     total energy              =    -666.36036963 Ry
     estimated scf accuracy    <     244.09044147 Ry
     electrostatic embedding   =       0.02186097 Ry
     electrolyte free energy   =       0.00119623 Ry
     correction to one-el term =       0.00000000 Ry

     iteration #  5     ecut=    30.00 Ry     beta= 0.70
     Davidson diagonalization with overlap
     ethr =  1.00E-02,  avg # of iterations =  8.7

     negative rho (up, down):  6.440E-06 0.000E+00

     add environment contribution to local potential

     total cpu time spent up to now is       63.2 secs

     total energy              =    -667.94222716 Ry
     estimated scf accuracy    <      85.83471228 Ry
     electrostatic embedding   =       0.02186097 Ry
     electrolyte free energy   =       0.00119623 Ry
     correction to one-el term =       0.00000000 Ry

     iteration #  6     ecut=    30.00 Ry     beta= 0.70
     Davidson diagonalization with overlap
     ethr =  1.00E-02,  avg # of iterations =  8.7

     negative rho (up, down):  6.894E-08 0.000E+00

     add environment contribution to local potential

     total cpu time spent up to now is       80.8 secs

     total energy              =    -672.40581749 Ry
     estimated scf accuracy    <       3.07587846 Ry
     electrostatic embedding   =      -0.17507253 Ry
     electrolyte free energy   =      -0.00157280 Ry
     correction to one-el term =     -25.22346624 Ry

     iteration #  7     ecut=    30.00 Ry     beta= 0.70
     Davidson diagonalization with overlap
     ethr =  3.52E-03,  avg # of iterations =  1.7

     negative rho (up, down):  1.593E-08 0.000E+00

     add environment contribution to local potential

     total cpu time spent up to now is       87.5 secs

     total energy              =    -672.26444345 Ry
     estimated scf accuracy    <       4.65862688 Ry
     electrostatic embedding   =      -0.22563384 Ry
     electrolyte free energy   =      -0.00159259 Ry
     correction to one-el term =     -25.23236739 Ry

     iteration #  8     ecut=    30.00 Ry     beta= 0.70
     Davidson diagonalization with overlap
     ethr =  3.52E-03,  avg # of iterations =  1.0

     add environment contribution to local potential

     total cpu time spent up to now is      100.5 secs

     total energy              =    -672.03360974 Ry
     estimated scf accuracy    <       3.66785182 Ry
     electrostatic embedding   =      -0.26345042 Ry
     electrolyte free energy   =      -0.00159250 Ry
     correction to one-el term =     -32.72309050 Ry

     iteration #  9     ecut=    30.00 Ry     beta= 0.70
     Davidson diagonalization with overlap
     ethr =  3.52E-03,  avg # of iterations =  1.7

     add environment contribution to local potential

     total cpu time spent up to now is      113.9 secs

     total energy              =    -671.86450992 Ry
     estimated scf accuracy    <       5.42105238 Ry
     electrostatic embedding   =      -0.32456481 Ry
     electrolyte free energy   =      -0.00159025 Ry
     correction to one-el term =     -47.37539377 Ry

     iteration # 10     ecut=    30.00 Ry     beta= 0.70
     Davidson diagonalization with overlap
     ethr =  3.52E-03,  avg # of iterations =  1.3

     negative rho (up, down):  1.689E-08 0.000E+00

     add environment contribution to local potential

     total cpu time spent up to now is      119.4 secs

     total energy              =    -671.65600736 Ry
     estimated scf accuracy    <       2.03493291 Ry
     electrostatic embedding   =      -0.32001250 Ry
     electrolyte free energy   =      -0.00156746 Ry
     correction to one-el term =     -54.58287679 Ry

     iteration # 11     ecut=    30.00 Ry     beta= 0.70
     Davidson diagonalization with overlap
     ethr =  2.33E-03,  avg # of iterations =  5.3

     negative rho (up, down):  2.848E-05 0.000E+00

     add environment contribution to local potential

     total cpu time spent up to now is      138.4 secs

     total energy              =    -673.51246978 Ry
     estimated scf accuracy    <       5.46504639 Ry
     electrostatic embedding   =      -0.31319869 Ry
     electrolyte free energy   =      -0.00153427 Ry
     correction to one-el term =     -65.31872660 Ry

     iteration # 12     ecut=    30.00 Ry     beta= 0.70
     Davidson diagonalization with overlap
     ethr =  2.33E-03,  avg # of iterations =  7.3

     negative rho (up, down):  4.790E-05 0.000E+00

     add environment contribution to local potential

     total cpu time spent up to now is      147.3 secs

     total energy              =    -673.43289509 Ry
     estimated scf accuracy    <       8.92926256 Ry
     electrostatic embedding   =      -0.13908470 Ry
     electrolyte free energy   =      -0.00150279 Ry
     correction to one-el term =     -47.28418669 Ry

     iteration # 13     ecut=    30.00 Ry     beta= 0.70
     Davidson diagonalization with overlap
     ethr =  2.33E-03,  avg # of iterations =  1.3

     negative rho (up, down):  6.638E-05 0.000E+00

     add environment contribution to local potential

     total cpu time spent up to now is      154.3 secs

     total energy              =    -673.42811497 Ry
     estimated scf accuracy    <       8.72661643 Ry
     electrostatic embedding   =      -0.09970126 Ry
     electrolyte free energy   =      -0.00146223 Ry
     correction to one-el term =     -39.23073039 Ry

     iteration # 14     ecut=    30.00 Ry     beta= 0.70
     Davidson diagonalization with overlap
     ethr =  2.33E-03,  avg # of iterations =  1.0

     negative rho (up, down):  8.623E-03 0.000E+00

     add environment contribution to local potential

     total cpu time spent up to now is      171.6 secs

     total energy              =    -673.40108846 Ry
     estimated scf accuracy    <       8.40206141 Ry
     electrostatic embedding   =      -0.08737941 Ry
     electrolyte free energy   =      -0.00156491 Ry
     correction to one-el term =     -36.86883835 Ry

     iteration # 15     ecut=    30.00 Ry     beta= 0.70
     Davidson diagonalization with overlap
     ethr =  2.33E-03,  avg # of iterations =  2.3

     negative rho (up, down):  5.945E-04 0.000E+00

     add environment contribution to local potential

     total cpu time spent up to now is      181.0 secs

     total energy              =    -673.42053927 Ry
     estimated scf accuracy    <       8.99960895 Ry
     electrostatic embedding   =      -0.05876066 Ry
     electrolyte free energy   =      -0.00137321 Ry
     correction to one-el term =     -31.66083250 Ry

     iteration # 16     ecut=    30.00 Ry     beta= 0.70
     Davidson diagonalization with overlap
     ethr =  2.33E-03,  avg # of iterations =  1.3

     negative rho (up, down):  1.308E-03 0.000E+00

     add environment contribution to local potential

     total cpu time spent up to now is      195.1 secs

     total energy              =    -673.43344439 Ry
     estimated scf accuracy    <       8.70619627 Ry
     electrostatic embedding   =      -0.07527635 Ry
     electrolyte free energy   =      -0.00145437 Ry
     correction to one-el term =     -34.57304435 Ry

     iteration # 17     ecut=    30.00 Ry     beta= 0.70
     Davidson diagonalization with overlap
     ethr =  2.33E-03,  avg # of iterations =  1.0

     negative rho (up, down):  4.691E-05 0.000E+00

     add environment contribution to local potential

     total cpu time spent up to now is      208.3 secs

     total energy              =    -673.35966151 Ry
     estimated scf accuracy    <       8.75419725 Ry
     electrostatic embedding   =      -0.07477242 Ry
     electrolyte free energy   =      -0.00142085 Ry
     correction to one-el term =     -34.58674617 Ry

     iteration # 18     ecut=    30.00 Ry     beta= 0.70
     Davidson diagonalization with overlap
     ethr =  2.33E-03,  avg # of iterations =  1.0

     negative rho (up, down):  4.703E-05 0.000E+00

     add environment contribution to local potential

     total cpu time spent up to now is      215.1 secs

     total energy              =    -673.30893530 Ry
     estimated scf accuracy    <       7.76649015 Ry
     electrostatic embedding   =      -0.08461687 Ry
     electrolyte free energy   =      -0.00150441 Ry
     correction to one-el term =     -35.89463623 Ry

     iteration # 19     ecut=    30.00 Ry     beta= 0.70
     Davidson diagonalization with overlap
     ethr =  2.33E-03,  avg # of iterations =  1.0

     negative rho (up, down):  3.560E-05 0.000E+00

     add environment contribution to local potential

     total cpu time spent up to now is      232.0 secs

     total energy              =    -671.85495331 Ry
     estimated scf accuracy    <       7.11277121 Ry
     electrostatic embedding   =      -0.08743612 Ry
     electrolyte free energy   =      -0.00141639 Ry
     correction to one-el term =     -36.49006480 Ry

     iteration # 20     ecut=    30.00 Ry     beta= 0.70
     Davidson diagonalization with overlap
     ethr =  2.33E-03,  avg # of iterations =  6.0

     negative rho (up, down):  1.530E-03 0.000E+00

     add environment contribution to local potential

     total cpu time spent up to now is      242.4 secs

     total energy              =    -672.08673828 Ry
     estimated scf accuracy    <      14.75218607 Ry
     electrostatic embedding   =      -0.16110846 Ry
     electrolyte free energy   =      -0.00151968 Ry
     correction to one-el term =     -51.16902303 Ry

     iteration # 21     ecut=    30.00 Ry     beta= 0.70
     Davidson diagonalization with overlap
     ethr =  2.33E-03,  avg # of iterations =  2.0

     negative rho (up, down):  2.742E-08 0.000E+00

     add environment contribution to local potential

     total cpu time spent up to now is      255.3 secs

     total energy              =    -672.62922741 Ry
     estimated scf accuracy    <       2.17041492 Ry
     electrostatic embedding   =      -0.07177495 Ry
     electrolyte free energy   =      -0.00147048 Ry
     correction to one-el term =     -33.52756069 Ry

     iteration # 22     ecut=    30.00 Ry     beta= 0.70
     Davidson diagonalization with overlap
     ethr =  2.33E-03,  avg # of iterations =  1.0

     negative rho (up, down):  6.566E-08 0.000E+00

     add environment contribution to local potential

     total cpu time spent up to now is      269.6 secs

     total energy              =    -672.69460474 Ry
     estimated scf accuracy    <       1.35841569 Ry
     electrostatic embedding   =      -0.09728469 Ry
     electrolyte free energy   =      -0.00146030 Ry
     correction to one-el term =     -38.64433444 Ry

     iteration # 23     ecut=    30.00 Ry     beta= 0.70
     Davidson diagonalization with overlap
     ethr =  1.55E-03,  avg # of iterations =  1.0

     negative rho (up, down):  1.397E-07 0.000E+00

     add environment contribution to local potential

     total cpu time spent up to now is      276.5 secs

     total energy              =    -672.70812017 Ry
     estimated scf accuracy    <       0.05395297 Ry
     electrostatic embedding   =      -0.10157454 Ry
     electrolyte free energy   =      -0.00147535 Ry
     correction to one-el term =     -39.68474784 Ry

     iteration # 24     ecut=    30.00 Ry     beta= 0.70
     Davidson diagonalization with overlap
     ethr =  6.17E-05,  avg # of iterations = 13.3

     negative rho (up, down):  4.643E-08 0.000E+00

     add environment contribution to local potential

     total cpu time spent up to now is      295.3 secs

     total energy              =    -672.71571793 Ry
     estimated scf accuracy    <       0.21481988 Ry
     electrostatic embedding   =      -0.09944085 Ry
     electrolyte free energy   =      -0.00140251 Ry
     correction to one-el term =     -39.31458231 Ry

     iteration # 25     ecut=    30.00 Ry     beta= 0.70
     Davidson diagonalization with overlap
     ethr =  6.17E-05,  avg # of iterations =  1.7

     add environment contribution to local potential

     total cpu time spent up to now is      304.6 secs

     total energy              =    -672.68698656 Ry
     estimated scf accuracy    <       0.74532000 Ry
     electrostatic embedding   =      -0.09989498 Ry
     electrolyte free energy   =      -0.00148232 Ry
     correction to one-el term =     -39.50474183 Ry

     iteration # 26     ecut=    30.00 Ry     beta= 0.70
     Davidson diagonalization with overlap
     ethr =  6.17E-05,  avg # of iterations =  2.0

     add environment contribution to local potential

     total cpu time spent up to now is      318.6 secs

     total energy              =    -672.69896342 Ry
     estimated scf accuracy    <       0.37360778 Ry
     electrostatic embedding   =      -0.10650487 Ry
     electrolyte free energy   =      -0.00160213 Ry
     correction to one-el term =     -40.87066047 Ry

     iteration # 27     ecut=    30.00 Ry     beta= 0.70
     Davidson diagonalization with overlap
     ethr =  6.17E-05,  avg # of iterations =  1.0

     add environment contribution to local potential

     total cpu time spent up to now is      333.7 secs

     total energy              =    -672.70610686 Ry
     estimated scf accuracy    <       0.12502113 Ry
     electrostatic embedding   =      -0.10373741 Ry
     electrolyte free energy   =      -0.00156849 Ry
     correction to one-el term =     -40.26952601 Ry

     iteration # 28     ecut=    30.00 Ry     beta= 0.70
     Davidson diagonalization with overlap
     ethr =  6.17E-05,  avg # of iterations =  1.0

     add environment contribution to local potential

     total cpu time spent up to now is      340.7 secs

     total energy              =    -672.70815144 Ry
     estimated scf accuracy    <       0.00517183 Ry
     electrostatic embedding   =      -0.10473249 Ry
     electrolyte free energy   =      -0.00156694 Ry
     correction to one-el term =     -40.48021553 Ry

     iteration # 29     ecut=    30.00 Ry     beta= 0.70
     Davidson diagonalization with overlap
     c_bands:  1 eigenvalues not converged
     ethr =  5.91E-06,  avg # of iterations =  8.0

     add environment contribution to local potential

     total cpu time spent up to now is      359.3 secs

     total energy              =    -672.70808093 Ry
     estimated scf accuracy    <       0.00467489 Ry
     electrostatic embedding   =      -0.10453557 Ry
     electrolyte free energy   =      -0.00157750 Ry
     correction to one-el term =     -40.41989450 Ry

     iteration # 30     ecut=    30.00 Ry     beta= 0.70
     Davidson diagonalization with overlap
     ethr =  5.34E-06,  avg # of iterations =  1.3

     add environment contribution to local potential

     total cpu time spent up to now is      367.4 secs

     total energy              =    -672.70805765 Ry
     estimated scf accuracy    <       0.00083947 Ry
     electrostatic embedding   =      -0.10447398 Ry
     electrolyte free energy   =      -0.00158219 Ry
     correction to one-el term =     -40.40401997 Ry

     iteration # 31     ecut=    30.00 Ry     beta= 0.70
     Davidson diagonalization with overlap
     ethr =  9.59E-07,  avg # of iterations =  5.7

     add environment contribution to local potential

     total cpu time spent up to now is      384.9 secs

     total energy              =    -672.70806568 Ry
     estimated scf accuracy    <       0.00005289 Ry
     electrostatic embedding   =      -0.10451621 Ry
     electrolyte free energy   =      -0.00159207 Ry
     correction to one-el term =     -40.40545034 Ry

     iteration # 32     ecut=    30.00 Ry     beta= 0.70
     Davidson diagonalization with overlap
     ethr =  6.04E-08,  avg # of iterations =  3.0

     add environment contribution to local potential

     total cpu time spent up to now is      396.1 secs

     total energy              =    -672.70806003 Ry
     estimated scf accuracy    <       0.00000343 Ry
     electrostatic embedding   =      -0.10449193 Ry
     electrolyte free energy   =      -0.00159682 Ry
     correction to one-el term =     -40.40009228 Ry

     iteration # 33     ecut=    30.00 Ry     beta= 0.70
     Davidson diagonalization with overlap
     ethr =  3.92E-09,  avg # of iterations =  5.3

     add environment contribution to local potential

     total cpu time spent up to now is      410.2 secs

     total energy              =    -672.70805861 Ry
     estimated scf accuracy    <       0.00000010 Ry
     electrostatic embedding   =      -0.10451047 Ry
     electrolyte free energy   =      -0.00159806 Ry
     correction to one-el term =     -40.40312575 Ry

     iteration # 34     ecut=    30.00 Ry     beta= 0.70
     Davidson diagonalization with overlap
     ethr =  1.13E-10,  avg # of iterations =  4.3

     add environment contribution to local potential

     total cpu time spent up to now is      424.6 secs

     total energy              =    -672.70805740 Ry
     estimated scf accuracy    <       0.00000001 Ry
     electrostatic embedding   =      -0.10450669 Ry
     electrolyte free energy   =      -0.00159876 Ry
     correction to one-el term =     -40.40201008 Ry

     iteration # 35     ecut=    30.00 Ry     beta= 0.70
     Davidson diagonalization with overlap
     ethr =  1.45E-11,  avg # of iterations =  3.3

     add environment contribution to local potential

     total cpu time spent up to now is      432.4 secs

     total energy              =    -672.70805654 Ry
     estimated scf accuracy    <       0.00000001 Ry
     electrostatic embedding   =      -0.10450898 Ry
     electrolyte free energy   =      -0.00159926 Ry
     correction to one-el term =     -40.40224047 Ry

     iteration # 36     ecut=    30.00 Ry     beta= 0.70
     Davidson diagonalization with overlap
     ethr =  1.45E-11,  avg # of iterations =  2.0

     the potential shift due to the Gaussian-smeared nuclei is    -0.5949 ev

     total cpu time spent up to now is      438.8 secs

     End of self-consistent calculation

          k = 0.0000 0.0000 0.0000 (  8687 PWs)   bands (ev):

   -11.8583 -11.5450 -11.0623 -10.6247 -10.5413 -10.5387 -10.5235 -10.4451
   -10.3260 -10.2810 -10.1751 -10.0161  -9.8161  -9.5895  -9.3000  -9.1027
    -9.0774  -9.0774  -9.0352  -9.0352  -8.7956  -8.7956  -8.5060  -8.4213
    -8.4140  -8.4140  -8.2805  -8.2787  -8.2190  -8.1365  -8.0993  -8.0993
    -8.0168  -7.8935  -7.8080  -7.8080  -7.8069  -7.6398  -7.5339  -7.4487
    -7.4487  -7.4445  -7.3610  -7.2165  -7.2165  -6.2228  -4.6395  -2.8985
    -2.3851   0.0364   0.0487   0.3509   0.4699

     occupation numbers 
     1.0000   1.0000   1.0000   1.0000   1.0000   1.0000   1.0000   1.0000
     1.0000   1.0000   1.0000   1.0000   1.0000   1.0000   1.0000   1.0000
     1.0000   1.0000   1.0000   1.0000   1.0000   1.0000   1.0000   1.0000
     1.0000   1.0000   1.0000   1.0000   1.0000   1.0000   1.0000   1.0000
     1.0000   1.0000   1.0000   1.0000   1.0000   1.0000   1.0000   1.0000
     1.0000   1.0000   1.0000   1.0000   1.0000   1.0000   0.0578   0.0000
     0.0000   0.0000   0.0000   0.0000   0.0000

          k = 0.0000-0.5000 0.0000 (  8814 PWs)   bands (ev):

   -10.5535 -10.5535 -10.4578 -10.4578 -10.1945 -10.1945  -9.7995  -9.7995
    -9.3970  -9.3970  -9.3543  -9.3543  -9.1702  -9.1702  -9.1679  -9.1679
    -9.0625  -9.0625  -9.0534  -9.0534  -8.8468  -8.8468  -8.8060  -8.8060
    -8.5547  -8.5547  -8.4006  -8.4006  -8.0867  -8.0867  -7.9152  -7.9151
    -7.9005  -7.9005  -7.5922  -7.5922  -7.4756  -7.4756  -7.3710  -7.3710
    -5.0639  -5.0639  -4.9959  -4.9959  -4.8963  -4.8963  -4.5852  -4.5852
    -1.5819  -1.5819  -0.3643  -0.3643   1.0223

     occupation numbers 
     1.0000   1.0000   1.0000   1.0000   1.0000   1.0000   1.0000   1.0000
     1.0000   1.0000   1.0000   1.0000   1.0000   1.0000   1.0000   1.0000
     1.0000   1.0000   1.0000   1.0000   1.0000   1.0000   1.0000   1.0000
     1.0000   1.0000   1.0000   1.0000   1.0000   1.0000   1.0000   1.0000
     1.0000   1.0000   1.0000   1.0000   1.0000   1.0000   1.0000   1.0000
     0.9279   0.9278   0.7743   0.7742   0.5038   0.5038   0.0297   0.0296
     0.0000   0.0000   0.0000   0.0000   0.0000

          k =-0.5000-0.5000 0.0000 (  8868 PWs)   bands (ev):

   -10.6058 -10.6058 -10.4851 -10.4851 -10.4302 -10.4302 -10.3378 -10.3378
   -10.2361 -10.2361 -10.0577 -10.0577  -9.9451  -9.9451  -9.5427  -9.5427
    -8.9932  -8.9932  -8.4592  -8.4592  -8.0916  -8.0916  -7.9922  -7.9922
    -7.8548  -7.8548  -7.6663  -7.6663  -7.5743  -7.5743  -7.4097  -7.4097
    -7.3511  -7.3511  -7.3268  -7.3268  -7.1510  -7.1509  -7.0534  -7.0534
    -2.6223  -2.6223  -1.9566  -1.9566  -0.9539  -0.9539   0.3423   0.3423
     1.7668   1.7668   1.8726   1.8728   1.9506

     occupation numbers 
     1.0000   1.0000   1.0000   1.0000   1.0000   1.0000   1.0000   1.0000
     1.0000   1.0000   1.0000   1.0000   1.0000   1.0000   1.0000   1.0000
     1.0000   1.0000   1.0000   1.0000   1.0000   1.0000   1.0000   1.0000
     1.0000   1.0000   1.0000   1.0000   1.0000   1.0000   1.0000   1.0000
     1.0000   1.0000   1.0000   1.0000   1.0000   1.0000   1.0000   1.0000
     0.0000   0.0000   0.0000   0.0000   0.0000   0.0000   0.0000   0.0000
     0.0000   0.0000   0.0000   0.0000   0.0000

     the Fermi energy is    -4.8570 ev

!    total energy              =    -672.70805603 Ry
     estimated scf accuracy    <          2.4E-09 Ry
     smearing contrib. (-TS)   =      -0.01081797 Ry
     internal energy E=F+TS    =    -672.69723806 Ry

     The total energy is F=E-TS. E is the sum of the following terms:
     one-electron contribution =  -26354.64872851 Ry
     hartree contribution      =   13220.02530810 Ry
     xc contribution           =    -178.44527567 Ry
     ewald contribution        =   12680.87942749 Ry
     electrostatic embedding   =      -0.10450769 Ry
     electrolyte free energy   =      -0.00159954 Ry
     correction to one-el term =     -40.40186225 Ry

     WARNING: you are using the parabolic pbc correction;
              the potential shift above must be added to 
              band and Fermi energies.

     convergence has been achieved in  36 iterations
     The global environment contribution to forces
     atom    1 type  1   force =     0.00000000   -0.00000000   -0.55910970
     atom    2 type  1   force =     0.00000000    0.00000000   -0.42914050
     atom    3 type  1   force =    -0.00000000   -0.00000000   -0.25708141
     atom    4 type  1   force =     0.00000000    0.00000000   -0.08559980
     atom    5 type  1   force =    -0.00000000   -0.00000000    0.08559434
     atom    6 type  1   force =    -0.00000000   -0.00000000    0.25707596
     atom    7 type  1   force =     0.00000000    0.00000000    0.42913500
     atom    8 type  1   force =    -0.00000000   -0.00000000    0.55910449
 

     Forces acting on atoms (cartesian axes, Ry/au):

     atom    1 type  1   force =     0.00000000    0.00000000   -0.00257874
     atom    2 type  1   force =     0.00000000    0.00000000    0.00587217
     atom    3 type  1   force =     0.00000000    0.00000000   -0.00186505
     atom    4 type  1   force =     0.00000000    0.00000000    0.00110968
     atom    5 type  1   force =     0.00000000    0.00000000   -0.00110968
     atom    6 type  1   force =     0.00000000    0.00000000    0.00186505
     atom    7 type  1   force =     0.00000000    0.00000000   -0.00587217
     atom    8 type  1   force =     0.00000000    0.00000000    0.00257874
     The non-local contrib.  to forces
     atom    1 type  1   force =     0.00000000    0.00000000   -0.27998427
     atom    2 type  1   force =     0.00000000    0.00000000   -0.13860824
     atom    3 type  1   force =     0.00000000    0.00000000    0.06089105
     atom    4 type  1   force =     0.00000000    0.00000000    0.01256819
     atom    5 type  1   force =     0.00000000    0.00000000   -0.01256819
     atom    6 type  1   force =     0.00000000    0.00000000   -0.06089105
     atom    7 type  1   force =     0.00000000    0.00000000    0.13860824
     atom    8 type  1   force =     0.00000000    0.00000000    0.27998427
     The ionic contribution  to forces
     atom    1 type  1   force =    -0.00000000   -0.00000000 -239.27066904
     atom    2 type  1   force =     0.00000000    0.00000000 -172.16089596
     atom    3 type  1   force =    -0.00000000   -0.00000000 -103.18769990
     atom    4 type  1   force =     0.00000000    0.00000000  -34.40075415
     atom    5 type  1   force =    -0.00000000   -0.00000000   34.40075220
     atom    6 type  1   force =     0.00000000    0.00000000  103.18770000
     atom    7 type  1   force =    -0.00000000   -0.00000000  172.16089755
     atom    8 type  1   force =     0.00000000    0.00000000  239.27066931
     The local contribution  to forces
     atom    1 type  1   force =    -0.00000000   -0.00000000  240.10196530
     atom    2 type  1   force =     0.00000000    0.00000000  172.73749664
     atom    3 type  1   force =    -0.00000000   -0.00000000  103.38147031
     atom    4 type  1   force =     0.00000000    0.00000000   34.47452695
     atom    5 type  1   force =    -0.00000000   -0.00000000  -34.47452695
     atom    6 type  1   force =     0.00000000    0.00000000 -103.38147031
     atom    7 type  1   force =    -0.00000000   -0.00000000 -172.73744570
     atom    8 type  1   force =     0.00000000    0.00000000 -240.10196530
     The core correction contribution to forces
     atom    1 type  1   force =    -0.00000000   -0.00000000    0.00533305
     atom    2 type  1   force =     0.00000000    0.00000000   -0.00279417
     atom    3 type  1   force =    -0.00000000   -0.00000000    0.00055351
     atom    4 type  1   force =     0.00000000    0.00000000    0.00035616
     atom    5 type  1   force =    -0.00000000   -0.00000000   -0.00035616
     atom    6 type  1   force =     0.00000000    0.00000000   -0.00055351
     atom    7 type  1   force =    -0.00000000   -0.00000000    0.00279705
     atom    8 type  1   force =     0.00000000    0.00000000   -0.00533305
     The Hubbard contrib.    to forces
     atom    1 type  1   force =     0.00000000    0.00000000    0.00000000
     atom    2 type  1   force =     0.00000000    0.00000000    0.00000000
     atom    3 type  1   force =     0.00000000    0.00000000    0.00000000
     atom    4 type  1   force =     0.00000000    0.00000000    0.00000000
     atom    5 type  1   force =     0.00000000    0.00000000    0.00000000
     atom    6 type  1   force =     0.00000000    0.00000000    0.00000000
     atom    7 type  1   force =     0.00000000    0.00000000    0.00000000
     atom    8 type  1   force =     0.00000000    0.00000000    0.00000000
     The SCF correction term to forces
     atom    1 type  1   force =    -0.00000000   -0.00000000   -0.00011656
     atom    2 type  1   force =    -0.00000000   -0.00000000   -0.00016065
     atom    3 type  1   force =     0.00000000    0.00000000   -0.00000129
     atom    4 type  1   force =     0.00000000    0.00000000    0.00000863
     atom    5 type  1   force =     0.00000000    0.00000000   -0.00000863
     atom    6 type  1   force =     0.00000000    0.00000000    0.00000129
     atom    7 type  1   force =    -0.00000000   -0.00000000    0.00016065
     atom    8 type  1   force =    -0.00000000   -0.00000000    0.00011656

     Total force =     0.009575     Total SCF correction =     0.000281

     Writing output data file /home/simplogic86/Work/QE1/tempdir/scf.save/
 
     init_run     :      4.72s CPU      6.41s WALL (       1 calls)
     electrons    :    343.10s CPU    431.42s WALL (       1 calls)
     forces       :      2.31s CPU      2.91s WALL (       1 calls)

     Called by init_run:
     wfcinit      :      1.83s CPU      2.88s WALL (       1 calls)
     wfcinit:atom :      0.00s CPU      0.00s WALL (       3 calls)
     wfcinit:wfcr :      1.81s CPU      2.85s WALL (       3 calls)
     potinit      :      0.64s CPU      0.70s WALL (       1 calls)
     hinit0       :      1.62s CPU      1.76s WALL (       1 calls)

     Called by electrons:
     c_bands      :     92.96s CPU    130.98s WALL (      36 calls)
     sum_band     :     24.94s CPU     36.41s WALL (      36 calls)
     v_of_rho     :      6.09s CPU     10.89s WALL (      37 calls)
     v_h          :      0.48s CPU      0.55s WALL (      37 calls)
     v_xc         :      5.73s CPU     10.54s WALL (      38 calls)
     newd         :     10.28s CPU     14.46s WALL (      37 calls)
     mix_rho      :      3.35s CPU      4.44s WALL (      36 calls)

     Called by c_bands:
     init_us_2    :      0.34s CPU      0.37s WALL (     222 calls)
     cegterg      :     89.42s CPU    126.51s WALL (     111 calls)

     Called by sum_band:
     sum_band:wei :      0.01s CPU      0.01s WALL (      36 calls)
     sum_band:loo :     11.24s CPU     15.81s WALL (      36 calls)
     sum_band:buf :      0.07s CPU      0.07s WALL (     108 calls)
     sum_band:ini :      0.18s CPU      0.18s WALL (     108 calls)
     sum_band:cal :      0.98s CPU      1.12s WALL (     108 calls)
     sum_band:bec :      0.01s CPU      0.02s WALL (     108 calls)
     addusdens    :      9.94s CPU     12.17s WALL (      36 calls)
     addusd:skk   :      0.09s CPU      0.09s WALL (      36 calls)
     addusd:dgemm :      1.87s CPU      4.02s WALL (      36 calls)
     addusd:qvan2 :      7.58s CPU      7.64s WALL (      36 calls)

     Called by *egterg:
     cdiaghg      :      5.00s CPU      5.11s WALL (     650 calls)
     cegterg:over :      6.59s CPU      7.65s WALL (     539 calls)
     cegterg:upda :      1.10s CPU      1.15s WALL (     539 calls)
     cegterg:last :      2.62s CPU      2.64s WALL (     318 calls)
     h_psi        :     69.73s CPU    105.88s WALL (     653 calls)
     s_psi        :      2.02s CPU      2.07s WALL (     653 calls)
     g_psi        :      0.08s CPU      0.09s WALL (     539 calls)

     Called by h_psi:
     h_psi:calbec :      4.59s CPU      5.68s WALL (     653 calls)
     vloc_psi     :     62.99s CPU     97.93s WALL (     653 calls)
     add_vuspsi   :      2.00s CPU      2.12s WALL (     653 calls)

     General routines
     calbec       :      5.71s CPU      6.96s WALL (     773 calls)
     fft          :      5.91s CPU      8.87s WALL (     490 calls)
     ffts         :      0.19s CPU      0.23s WALL (      73 calls)
     fftw         :     70.87s CPU    109.79s WALL (   43600 calls)
     interpolate  :      0.41s CPU      0.47s WALL (      37 calls)
 
     Parallel routines
     fft_scatt_xy :      2.33s CPU      4.00s WALL (   44163 calls)
     fft_scatt_yz :     61.36s CPU     97.47s WALL (   44163 calls)
 
     Environ routines
 
     PWSCF        :   5m54.94s CPU   7m27.22s WALL

 
   This run was terminated on:  12:38: 2  25Sep2021            

=------------------------------------------------------------------------------=
   JOB DONE.
=------------------------------------------------------------------------------=
