
     Program PWSCF v.7.0 starts on  2May2022 at 22: 7:30 

     This program is part of the open-source Quantum ESPRESSO suite
     for quantum simulation of materials; please cite
         "P. Giannozzi et al., J. Phys.:Condens. Matter 21 395502 (2009);
         "P. Giannozzi et al., J. Phys.:Condens. Matter 29 465901 (2017);
         "P. Giannozzi et al., J. Chem. Phys. 152 154105 (2020);
          URL http://www.quantum-espresso.org", 
     in publications or presentations arising from this work. More details at
     http://www.quantum-espresso.org/quote

     Parallel version (MPI), running on     1 processors

     MPI processes distributed on     1 nodes
     19355 MiB available memory on the printing compute node when the environment starts

     Waiting for input...
     Reading input from standard input
Warning: card &CELL ignored
Warning: card / ignored

     Current dimensions of program PWSCF are:
     Max number of different atomic species (ntypx) = 10
     Max number of k-points (npk) =  40000
     Max angular momentum in pseudopotentials (lmaxx) =  4

     Reading input from environ.in:
     * using full solvent mode
     * setting boundary derivatives method to SCCS default
     * setting electrolyte-boundary derivatives method to SCCS default
     * setting solver to fixed-point (required for gcs correction)
     
     Message from routine setup:
     using ibrav=0 with symmetry is DISCOURAGED, use correct ibrav instead

     Subspace diagonalization in iterative solution of the eigenvalue problem:
     a serial algorithm will be used


     G-vector sticks info
     --------------------
     sticks:   dense  smooth     PW     G-vecs:    dense   smooth      PW
     Sum         741     293     97               277595    70411   13373

     Using Slab Decomposition



     bravais-lattice index     =            0
     lattice parameter (alat)  =       5.5435  a.u.
     unit-cell volume          =    3161.5726 (a.u.)^3
     number of atoms/cell      =            8
     number of atomic types    =            1
     number of electrons       =        87.50
     number of Kohn-Sham states=           53
     kinetic-energy cutoff     =      30.0000  Ry
     charge density cutoff     =     300.0000  Ry
     scf convergence threshold =      5.0E-09
     mixing beta               =       0.7000
     number of iterations used =            8  plain     mixing
     Exchange-correlation= PBE
                           (   1   4   3   4   0   0   0)

     ================================================================================

                                  Environ Setup Summary

     ================================================================================

     Please cite

          O. Andreussi, I. Dabo and N. Marzari, J. Chem. Phys. 136, 064102 (2012)
          F. Nattino, M. Truscott, N. Marzari, and O. Andreussi, J. Chem. Phys. 150, 041722 (2019)

     in publications or presentations arising from this work.

     ================================================================================

     Parameters
     ==========

     compensation onset threshold      =               0.1000E+03
     static permittivity               =                    80.00

     Solvent Boundary
     ================

     solvent mode                      =                     full
     derivatives method                =                    chain
     electrolyte derivatives method    =                    chain
     numerical core for derivatives    =                      fft
     switching function adopted        =                     SCCS
     density limit for vacuum region   =               0.5000E-02
     density limit for bulk solvent    =               0.1000E-03

     Electrostatic Setup
     ===================

     electrostatic problem to solve    =              generalized
     numerical solver adopted          =              fixed-point
     type of auxiliary density adopted =                     full
     numerical core for poisson        =                      fft
     type of pbc corrections           =                      gcs
     numerical core for corrections    =                      1da

     ================================================================================


     celldm(1)=   5.543526  celldm(2)=   0.000000  celldm(3)=   0.000000
     celldm(4)=   0.000000  celldm(5)=   0.000000  celldm(6)=   0.000000

     crystal axes: (cart. coord. in units of alat)
               a(1) = (   1.000000   0.000000   0.000000 )  
               a(2) = (   0.000000   1.000000   0.000000 )  
               a(3) = (   0.000000   0.000000  18.558586 )  

     reciprocal axes: (cart. coord. in units 2 pi/alat)
               b(1) = (  1.000000  0.000000  0.000000 )  
               b(2) = (  0.000000  1.000000  0.000000 )  
               b(3) = (  0.000000  0.000000  0.053883 )  


     PseudoPot. # 1 for Ag read from file:
     MD5 check sum: d841cbfac2b0861aec33b46768a516bf
     Pseudo is Ultrasoft + core correction, Zval = 11.0
     Generated using &quot;atomic&quot; code by A. Dal Corso  v.6.2.2
     Using radial grid of 1237 points,  6 beta functions with: 
                l(1) =   0
                l(2) =   0
                l(3) =   1
                l(4) =   1
                l(5) =   2
                l(6) =   2
     Q(r) pseudized with 0 coefficients 


     atomic species   valence    mass     pseudopotential
        Ag            11.00   107.86820     Ag( 1.00)

     16 Sym. Ops., with inversion, found ( 8 have fractional translation)


                                    s                        frac. trans.

      isym =  1     identity                                     

 cryst.   s( 1) = (     1          0          0      )
                  (     0          1          0      )
                  (     0          0          1      )

 cart.    s( 1) = (  1.0000000  0.0000000  0.0000000 )
                  (  0.0000000  1.0000000  0.0000000 )
                  (  0.0000000  0.0000000  1.0000000 )


      isym =  2     180 deg rotation - cart. axis [0,0,1]        

 cryst.   s( 2) = (    -1          0          0      )
                  (     0         -1          0      )
                  (     0          0          1      )

 cart.    s( 2) = ( -1.0000000  0.0000000  0.0000000 )
                  (  0.0000000 -1.0000000  0.0000000 )
                  (  0.0000000  0.0000000  1.0000000 )


      isym =  3     180 deg rotation - cart. axis [0,1,0]        

 cryst.   s( 3) = (    -1          0          0      )    f =(  0.5000000 )
                  (     0          1          0      )       (  0.5000000 )
                  (     0          0         -1      )       ( -0.0000000 )

 cart.    s( 3) = ( -1.0000000  0.0000000  0.0000000 )    f =(  0.5000000 )
                  (  0.0000000  1.0000000  0.0000000 )       (  0.5000000 )
                  (  0.0000000  0.0000000 -1.0000000 )       ( -0.0000000 )


      isym =  4     180 deg rotation - cart. axis [1,0,0]        

 cryst.   s( 4) = (     1          0          0      )    f =(  0.5000000 )
                  (     0         -1          0      )       (  0.5000000 )
                  (     0          0         -1      )       ( -0.0000000 )

 cart.    s( 4) = (  1.0000000  0.0000000  0.0000000 )    f =(  0.5000000 )
                  (  0.0000000 -1.0000000  0.0000000 )       (  0.5000000 )
                  (  0.0000000  0.0000000 -1.0000000 )       ( -0.0000000 )


      isym =  5     180 deg rotation - cart. axis [1,1,0]        

 cryst.   s( 5) = (     0          1          0      )    f =(  0.5000000 )
                  (     1          0          0      )       (  0.5000000 )
                  (     0          0         -1      )       ( -0.0000000 )

 cart.    s( 5) = (  0.0000000  1.0000000  0.0000000 )    f =(  0.5000000 )
                  (  1.0000000  0.0000000  0.0000000 )       (  0.5000000 )
                  (  0.0000000  0.0000000 -1.0000000 )       ( -0.0000000 )


      isym =  6     180 deg rotation - cart. axis [1,-1,0]       

 cryst.   s( 6) = (     0         -1          0      )    f =(  0.5000000 )
                  (    -1          0          0      )       (  0.5000000 )
                  (     0          0         -1      )       ( -0.0000000 )

 cart.    s( 6) = (  0.0000000 -1.0000000  0.0000000 )    f =(  0.5000000 )
                  ( -1.0000000  0.0000000  0.0000000 )       (  0.5000000 )
                  (  0.0000000  0.0000000 -1.0000000 )       ( -0.0000000 )


      isym =  7      90 deg rotation - cart. axis [0,0,-1]       

 cryst.   s( 7) = (     0         -1          0      )
                  (     1          0          0      )
                  (     0          0          1      )

 cart.    s( 7) = (  0.0000000  1.0000000  0.0000000 )
                  ( -1.0000000  0.0000000  0.0000000 )
                  (  0.0000000  0.0000000  1.0000000 )


      isym =  8      90 deg rotation - cart. axis [0,0,1]        

 cryst.   s( 8) = (     0          1          0      )
                  (    -1          0          0      )
                  (     0          0          1      )

 cart.    s( 8) = (  0.0000000 -1.0000000  0.0000000 )
                  (  1.0000000  0.0000000  0.0000000 )
                  (  0.0000000  0.0000000  1.0000000 )


      isym =  9     inversion                                    

 cryst.   s( 9) = (    -1          0          0      )    f =(  0.5000000 )
                  (     0         -1          0      )       (  0.5000000 )
                  (     0          0         -1      )       ( -0.0000000 )

 cart.    s( 9) = ( -1.0000000  0.0000000  0.0000000 )    f =(  0.5000000 )
                  (  0.0000000 -1.0000000  0.0000000 )       (  0.5000000 )
                  (  0.0000000  0.0000000 -1.0000000 )       ( -0.0000000 )


      isym = 10     inv. 180 deg rotation - cart. axis [0,0,1]   

 cryst.   s(10) = (     1          0          0      )    f =(  0.5000000 )
                  (     0          1          0      )       (  0.5000000 )
                  (     0          0         -1      )       ( -0.0000000 )

 cart.    s(10) = (  1.0000000  0.0000000  0.0000000 )    f =(  0.5000000 )
                  (  0.0000000  1.0000000  0.0000000 )       (  0.5000000 )
                  (  0.0000000  0.0000000 -1.0000000 )       ( -0.0000000 )


      isym = 11     inv. 180 deg rotation - cart. axis [0,1,0]   

 cryst.   s(11) = (     1          0          0      )
                  (     0         -1          0      )
                  (     0          0          1      )

 cart.    s(11) = (  1.0000000  0.0000000  0.0000000 )
                  (  0.0000000 -1.0000000  0.0000000 )
                  (  0.0000000  0.0000000  1.0000000 )


      isym = 12     inv. 180 deg rotation - cart. axis [1,0,0]   

 cryst.   s(12) = (    -1          0          0      )
                  (     0          1          0      )
                  (     0          0          1      )

 cart.    s(12) = ( -1.0000000  0.0000000  0.0000000 )
                  (  0.0000000  1.0000000  0.0000000 )
                  (  0.0000000  0.0000000  1.0000000 )


      isym = 13     inv. 180 deg rotation - cart. axis [1,1,0]   

 cryst.   s(13) = (     0         -1          0      )
                  (    -1          0          0      )
                  (     0          0          1      )

 cart.    s(13) = (  0.0000000 -1.0000000  0.0000000 )
                  ( -1.0000000  0.0000000  0.0000000 )
                  (  0.0000000  0.0000000  1.0000000 )


      isym = 14     inv. 180 deg rotation - cart. axis [1,-1,0]  

 cryst.   s(14) = (     0          1          0      )
                  (     1          0          0      )
                  (     0          0          1      )

 cart.    s(14) = (  0.0000000  1.0000000  0.0000000 )
                  (  1.0000000  0.0000000  0.0000000 )
                  (  0.0000000  0.0000000  1.0000000 )


      isym = 15     inv.  90 deg rotation - cart. axis [0,0,-1]  

 cryst.   s(15) = (     0          1          0      )    f =(  0.5000000 )
                  (    -1          0          0      )       (  0.5000000 )
                  (     0          0         -1      )       ( -0.0000000 )

 cart.    s(15) = (  0.0000000 -1.0000000  0.0000000 )    f =(  0.5000000 )
                  (  1.0000000  0.0000000  0.0000000 )       (  0.5000000 )
                  (  0.0000000  0.0000000 -1.0000000 )       ( -0.0000000 )


      isym = 16     inv.  90 deg rotation - cart. axis [0,0,1]   

 cryst.   s(16) = (     0         -1          0      )    f =(  0.5000000 )
                  (     1          0          0      )       (  0.5000000 )
                  (     0          0         -1      )       ( -0.0000000 )

 cart.    s(16) = (  0.0000000  1.0000000  0.0000000 )    f =(  0.5000000 )
                  ( -1.0000000  0.0000000  0.0000000 )       (  0.5000000 )
                  (  0.0000000  0.0000000 -1.0000000 )       ( -0.0000000 )


   Cartesian axes

     site n.     atom                  positions (alat units)
         1           Ag  tau(   1) = (   0.5000000   0.5000000   6.8177767  )
         2           Ag  tau(   2) = (   0.0000000   0.0000000   7.5110323  )
         3           Ag  tau(   3) = (   0.5000000   0.5000000   8.2185960  )
         4           Ag  tau(   4) = (   0.0000000   0.0000000   8.9261320  )
         5           Ag  tau(   5) = (   0.5000000   0.5000000   9.6324544  )
         6           Ag  tau(   6) = (   0.0000000   0.0000000  10.3399904  )
         7           Ag  tau(   7) = (   0.5000000   0.5000000  11.0475540  )
         8           Ag  tau(   8) = (   0.0000000   0.0000000  11.7408097  )

   Crystallographic axes

     site n.     atom                  positions (cryst. coord.)
         1           Ag  tau(   1) = (  0.5000000  0.5000000  0.3673651  )
         2           Ag  tau(   2) = (  0.0000000  0.0000000  0.4047201  )
         3           Ag  tau(   3) = (  0.5000000  0.5000000  0.4428460  )
         4           Ag  tau(   4) = (  0.0000000  0.0000000  0.4809705  )
         5           Ag  tau(   5) = (  0.5000000  0.5000000  0.5190295  )
         6           Ag  tau(   6) = (  0.0000000  0.0000000  0.5571540  )
         7           Ag  tau(   7) = (  0.5000000  0.5000000  0.5952799  )
         8           Ag  tau(   8) = (  0.0000000  0.0000000  0.6326349  )

     number of k points=     3  Marzari-Vanderbilt smearing, width (Ry)=  0.0200
                       cart. coord. in units 2pi/alat
        k(    1) = (   0.0000000   0.0000000   0.0000000), wk =   0.5000000
        k(    2) = (   0.0000000  -0.5000000   0.0000000), wk =   1.0000000
        k(    3) = (  -0.5000000  -0.5000000   0.0000000), wk =   0.5000000

                       cryst. coord.
        k(    1) = (   0.0000000   0.0000000   0.0000000), wk =   0.5000000
        k(    2) = (   0.0000000  -0.5000000   0.0000000), wk =   1.0000000
        k(    3) = (  -0.5000000  -0.5000000   0.0000000), wk =   0.5000000

     Dense  grid:   277595 G-vectors     FFT dimensions: (  32,  32, 576)

     Smooth grid:    70411 G-vectors     FFT dimensions: (  20,  20, 360)

     Dynamical RAM for                 wfc:       7.09 MB

     Dynamical RAM for     wfc (w. buffer):      28.38 MB

     Dynamical RAM for           str. fact:       4.24 MB

     Dynamical RAM for           local pot:       0.00 MB

     Dynamical RAM for          nlocal pot:      19.28 MB

     Dynamical RAM for                qrad:       1.39 MB

     Dynamical RAM for          rho,v,vnew:      26.21 MB

     Dynamical RAM for               rhoin:       8.74 MB

     Dynamical RAM for            rho*nmix:      67.77 MB

     Dynamical RAM for           G-vectors:      16.42 MB

     Dynamical RAM for          h,s,v(r/c):       0.51 MB

     Dynamical RAM for          <psi|beta>:       0.12 MB

     Dynamical RAM for                 psi:      14.19 MB

     Dynamical RAM for                hpsi:      14.19 MB

     Dynamical RAM for                spsi:      14.19 MB

     Dynamical RAM for      wfcinit/wfcrot:      19.40 MB

     Dynamical RAM for           addusdens:     821.74 MB

     Dynamical RAM for          addusforce:     883.19 MB

     Estimated static dynamical RAM per process >     135.62 MB

     Estimated max dynamical RAM per process >       1.06 GB

Environ Warning (1005): wrong integral of erfc function


     Initial potential from superposition of free atoms

     starting charge      87.9968, renormalised to      87.5000

     negative rho (up, down):  3.125E-04 0.000E+00
     Starting wfcs are   72 randomized atomic wfcs

     total cpu time spent up to now is        4.1 secs

     Self-consistent Calculation

     iteration #  1     ecut=    30.00 Ry     beta= 0.70
     Davidson diagonalization with overlap

---- Real-time Memory Report at c_bands before calling an iterative solver
          1261 MiB given to the printing process from OS
             0 MiB allocation reported by mallinfo(arena+hblkhd)
         18941 MiB available memory on the node where the printing process lives
------------------
     ethr =  1.00E-02,  avg # of iterations =  5.7

     total cpu time spent up to now is        8.2 secs

     total energy              =    -543.56576660 Ry
     estimated scf accuracy    <     146.46390177 Ry
     electrostatic embedding   =       0.02186097 Ry
     electrolyte free energy   =       0.00107216 Ry
     correction to one-el term =      -0.00000000 Ry

     iteration #  2     ecut=    30.00 Ry     beta= 0.70
     Davidson diagonalization with overlap

---- Real-time Memory Report at c_bands before calling an iterative solver
          1345 MiB given to the printing process from OS
             0 MiB allocation reported by mallinfo(arena+hblkhd)
         18908 MiB available memory on the node where the printing process lives
------------------
     ethr =  1.00E-02,  avg # of iterations = 30.0

     negative rho (up, down):  8.228E-06 0.000E+00

     total cpu time spent up to now is       28.5 secs

     total energy              =    -548.63747976 Ry
     estimated scf accuracy    <    9608.11531384 Ry
     electrostatic embedding   =       0.02186097 Ry
     electrolyte free energy   =       0.00107216 Ry
     correction to one-el term =      -0.00000000 Ry

     iteration #  3     ecut=    30.00 Ry     beta= 0.70
     Davidson diagonalization with overlap

---- Real-time Memory Report at c_bands before calling an iterative solver
          1348 MiB given to the printing process from OS
             0 MiB allocation reported by mallinfo(arena+hblkhd)
         18911 MiB available memory on the node where the printing process lives
------------------
     ethr =  1.00E-02,  avg # of iterations = 18.7

     negative rho (up, down):  1.405E-04 0.000E+00

     total cpu time spent up to now is       41.9 secs

     total energy              =    -627.51270797 Ry
     estimated scf accuracy    <    3034.73129459 Ry
     electrostatic embedding   =       0.02186097 Ry
     electrolyte free energy   =       0.00107216 Ry
     correction to one-el term =      -0.00000000 Ry

     iteration #  4     ecut=    30.00 Ry     beta= 0.70
     Davidson diagonalization with overlap

---- Real-time Memory Report at c_bands before calling an iterative solver
          1350 MiB given to the printing process from OS
             0 MiB allocation reported by mallinfo(arena+hblkhd)
         18910 MiB available memory on the node where the printing process lives
------------------
     c_bands:  3 eigenvalues not converged
     ethr =  1.00E-02,  avg # of iterations = 21.0

     negative rho (up, down):  2.692E-05 0.000E+00

     total cpu time spent up to now is       52.8 secs

     total energy              =    -667.98959974 Ry
     estimated scf accuracy    <     194.78060440 Ry
     electrostatic embedding   =       0.02186097 Ry
     electrolyte free energy   =       0.00107216 Ry
     correction to one-el term =      -0.00000000 Ry

     iteration #  5     ecut=    30.00 Ry     beta= 0.70
     Davidson diagonalization with overlap

---- Real-time Memory Report at c_bands before calling an iterative solver
          1353 MiB given to the printing process from OS
             0 MiB allocation reported by mallinfo(arena+hblkhd)
         18907 MiB available memory on the node where the printing process lives
------------------
     ethr =  1.00E-02,  avg # of iterations =  8.0

     negative rho (up, down):  3.393E-06 0.000E+00

     add environment contribution to local potential

     total cpu time spent up to now is       60.8 secs

     total energy              =    -668.87282791 Ry
     estimated scf accuracy    <      76.33956711 Ry
     electrostatic embedding   =       0.02186097 Ry
     electrolyte free energy   =       0.00107216 Ry
     correction to one-el term =      -0.00000000 Ry

     iteration #  6     ecut=    30.00 Ry     beta= 0.70
     Davidson diagonalization with overlap

---- Real-time Memory Report at c_bands before calling an iterative solver
          1353 MiB given to the printing process from OS
             0 MiB allocation reported by mallinfo(arena+hblkhd)
         18924 MiB available memory on the node where the printing process lives
------------------
     ethr =  1.00E-02,  avg # of iterations =  6.3
     Minimization algorithm failed to find Fermi energy: reverting to bisection
     Possible cause: smearing is larger than the electronic band-gap.

     negative rho (up, down):  1.258E-07 0.000E+00

     add environment contribution to local potential

     total cpu time spent up to now is       67.3 secs

     total energy              =    -670.87055320 Ry
     estimated scf accuracy    <       9.58138623 Ry
     electrostatic embedding   =      -0.18639491 Ry
     electrolyte free energy   =      -0.00031876 Ry
     correction to one-el term =     -26.87970643 Ry

     iteration #  7     ecut=    30.00 Ry     beta= 0.70
     Davidson diagonalization with overlap

---- Real-time Memory Report at c_bands before calling an iterative solver
          1353 MiB given to the printing process from OS
             0 MiB allocation reported by mallinfo(arena+hblkhd)
         18922 MiB available memory on the node where the printing process lives
------------------
     ethr =  1.00E-02,  avg # of iterations =  3.3

     negative rho (up, down):  3.031E-08 0.000E+00

     add environment contribution to local potential

     total cpu time spent up to now is       74.0 secs

     total energy              =    -672.56742911 Ry
     estimated scf accuracy    <       2.97506412 Ry
     electrostatic embedding   =      -0.22090951 Ry
     electrolyte free energy   =      -0.00045555 Ry
     correction to one-el term =     -28.86815639 Ry

     iteration #  8     ecut=    30.00 Ry     beta= 0.70
     Davidson diagonalization with overlap

---- Real-time Memory Report at c_bands before calling an iterative solver
          1353 MiB given to the printing process from OS
             0 MiB allocation reported by mallinfo(arena+hblkhd)
         18919 MiB available memory on the node where the printing process lives
------------------
     ethr =  3.40E-03,  avg # of iterations =  4.3

     add environment contribution to local potential

     total cpu time spent up to now is       81.3 secs

     total energy              =    -673.95638792 Ry
     estimated scf accuracy    <       2.51331504 Ry
     electrostatic embedding   =      -0.24126586 Ry
     electrolyte free energy   =      -0.00062743 Ry
     correction to one-el term =     -28.55464269 Ry

     iteration #  9     ecut=    30.00 Ry     beta= 0.70
     Davidson diagonalization with overlap

---- Real-time Memory Report at c_bands before calling an iterative solver
          1353 MiB given to the printing process from OS
             0 MiB allocation reported by mallinfo(arena+hblkhd)
         18917 MiB available memory on the node where the printing process lives
------------------
     ethr =  2.87E-03,  avg # of iterations =  1.0

     add environment contribution to local potential

     total cpu time spent up to now is       87.2 secs

     total energy              =    -673.94782832 Ry
     estimated scf accuracy    <       3.15300021 Ry
     electrostatic embedding   =      -0.24089475 Ry
     electrolyte free energy   =      -0.00071439 Ry
     correction to one-el term =     -26.85910214 Ry

     iteration # 10     ecut=    30.00 Ry     beta= 0.70
     Davidson diagonalization with overlap

---- Real-time Memory Report at c_bands before calling an iterative solver
          1353 MiB given to the printing process from OS
             0 MiB allocation reported by mallinfo(arena+hblkhd)
         18913 MiB available memory on the node where the printing process lives
------------------
     ethr =  2.87E-03,  avg # of iterations =  1.0

     negative rho (up, down):  8.313E-08 0.000E+00

     add environment contribution to local potential

     total cpu time spent up to now is       94.1 secs

     total energy              =    -673.00735054 Ry
     estimated scf accuracy    <       2.17816593 Ry
     electrostatic embedding   =      -0.23514773 Ry
     electrolyte free energy   =      -0.00065252 Ry
     correction to one-el term =     -26.98388493 Ry

     iteration # 11     ecut=    30.00 Ry     beta= 0.70
     Davidson diagonalization with overlap

---- Real-time Memory Report at c_bands before calling an iterative solver
          1353 MiB given to the printing process from OS
             0 MiB allocation reported by mallinfo(arena+hblkhd)
         18914 MiB available memory on the node where the printing process lives
------------------
     ethr =  2.49E-03,  avg # of iterations =  4.7
     Minimization algorithm failed to find Fermi energy: reverting to bisection
     Possible cause: smearing is larger than the electronic band-gap.

     negative rho (up, down):  9.547E-06 0.000E+00

     total cpu time spent up to now is       99.0 secs

     total energy              =    -660.77784253 Ry
     estimated scf accuracy    <     111.48310053 Ry
     electrostatic embedding   =      -0.39510200 Ry
     electrolyte free energy   =      -0.00190181 Ry
     correction to one-el term =     -40.58090310 Ry

     iteration # 12     ecut=    30.00 Ry     beta= 0.70
     Davidson diagonalization with overlap

---- Real-time Memory Report at c_bands before calling an iterative solver
          1363 MiB given to the printing process from OS
             0 MiB allocation reported by mallinfo(arena+hblkhd)
         18895 MiB available memory on the node where the printing process lives
------------------
     ethr =  2.49E-03,  avg # of iterations =  7.3
     Minimization algorithm failed to find Fermi energy: reverting to bisection
     Possible cause: smearing is larger than the electronic band-gap.

     negative rho (up, down):  8.811E-06 0.000E+00

     add environment contribution to local potential

     total cpu time spent up to now is      107.7 secs

     total energy              =    -674.79597290 Ry
     estimated scf accuracy    <      60.18714774 Ry
     electrostatic embedding   =      -0.12616558 Ry
     electrolyte free energy   =      -0.00190181 Ry
     correction to one-el term =     -40.51043545 Ry

     iteration # 13     ecut=    30.00 Ry     beta= 0.70
     Davidson diagonalization with overlap

---- Real-time Memory Report at c_bands before calling an iterative solver
          1363 MiB given to the printing process from OS
             0 MiB allocation reported by mallinfo(arena+hblkhd)
         18913 MiB available memory on the node where the printing process lives
------------------
     ethr =  2.49E-03,  avg # of iterations =  2.0

     negative rho (up, down):  1.244E-05 0.000E+00

     add environment contribution to local potential

     total cpu time spent up to now is      116.3 secs

     total energy              =    -675.33396640 Ry
     estimated scf accuracy    <      22.76245211 Ry
     electrostatic embedding   =      -0.11423123 Ry
     electrolyte free energy   =      -0.00014838 Ry
     correction to one-el term =     -41.65845353 Ry

     iteration # 14     ecut=    30.00 Ry     beta= 0.70
     Davidson diagonalization with overlap

---- Real-time Memory Report at c_bands before calling an iterative solver
          1363 MiB given to the printing process from OS
             0 MiB allocation reported by mallinfo(arena+hblkhd)
         18914 MiB available memory on the node where the printing process lives
------------------
     ethr =  2.49E-03,  avg # of iterations =  1.0

     negative rho (up, down):  2.073E-05 0.000E+00

     add environment contribution to local potential

     total cpu time spent up to now is      123.6 secs

     total energy              =    -674.24482551 Ry
     estimated scf accuracy    <      26.17683823 Ry
     electrostatic embedding   =      -0.10385843 Ry
     electrolyte free energy   =      -0.00014781 Ry
     correction to one-el term =     -40.88235604 Ry

     iteration # 15     ecut=    30.00 Ry     beta= 0.70
     Davidson diagonalization with overlap

---- Real-time Memory Report at c_bands before calling an iterative solver
          1363 MiB given to the printing process from OS
             0 MiB allocation reported by mallinfo(arena+hblkhd)
         18919 MiB available memory on the node where the printing process lives
------------------
     ethr =  2.49E-03,  avg # of iterations =  1.0

     negative rho (up, down):  1.434E-04 0.000E+00

     add environment contribution to local potential

     total cpu time spent up to now is      130.9 secs

     total energy              =    -672.45976916 Ry
     estimated scf accuracy    <      16.08809414 Ry
     electrostatic embedding   =      -0.08542292 Ry
     electrolyte free energy   =      -0.00014813 Ry
     correction to one-el term =     -37.38453632 Ry

     iteration # 16     ecut=    30.00 Ry     beta= 0.70
     Davidson diagonalization with overlap

---- Real-time Memory Report at c_bands before calling an iterative solver
          1363 MiB given to the printing process from OS
             0 MiB allocation reported by mallinfo(arena+hblkhd)
         18919 MiB available memory on the node where the printing process lives
------------------
     ethr =  2.49E-03,  avg # of iterations =  8.0

     negative rho (up, down):  1.790E-05 0.000E+00

     add environment contribution to local potential

     total cpu time spent up to now is      138.0 secs

     total energy              =    -673.01237949 Ry
     estimated scf accuracy    <       4.70532105 Ry
     electrostatic embedding   =      -0.10633527 Ry
     electrolyte free energy   =      -0.00014825 Ry
     correction to one-el term =     -41.12801343 Ry

     iteration # 17     ecut=    30.00 Ry     beta= 0.70
     Davidson diagonalization with overlap

---- Real-time Memory Report at c_bands before calling an iterative solver
          1363 MiB given to the printing process from OS
             0 MiB allocation reported by mallinfo(arena+hblkhd)
         18920 MiB available memory on the node where the printing process lives
------------------
     ethr =  2.49E-03,  avg # of iterations =  1.0

     negative rho (up, down):  9.155E-06 0.000E+00

     add environment contribution to local potential

     total cpu time spent up to now is      145.0 secs

     total energy              =    -672.61549406 Ry
     estimated scf accuracy    <       4.73674180 Ry
     electrostatic embedding   =      -0.11487348 Ry
     electrolyte free energy   =      -0.00014822 Ry
     correction to one-el term =     -42.70091145 Ry

     iteration # 18     ecut=    30.00 Ry     beta= 0.70
     Davidson diagonalization with overlap

---- Real-time Memory Report at c_bands before calling an iterative solver
          1363 MiB given to the printing process from OS
             0 MiB allocation reported by mallinfo(arena+hblkhd)
         18919 MiB available memory on the node where the printing process lives
------------------
     ethr =  2.49E-03,  avg # of iterations =  2.7

     negative rho (up, down):  7.664E-06 0.000E+00

     add environment contribution to local potential

     total cpu time spent up to now is      152.1 secs

     total energy              =    -672.70677980 Ry
     estimated scf accuracy    <       0.45145651 Ry
     electrostatic embedding   =      -0.11907779 Ry
     electrolyte free energy   =      -0.00014833 Ry
     correction to one-el term =     -43.24087860 Ry

     iteration # 19     ecut=    30.00 Ry     beta= 0.70
     Davidson diagonalization with overlap

---- Real-time Memory Report at c_bands before calling an iterative solver
          1363 MiB given to the printing process from OS
             0 MiB allocation reported by mallinfo(arena+hblkhd)
         18919 MiB available memory on the node where the printing process lives
------------------
     ethr =  5.16E-04,  avg # of iterations = 10.0

     negative rho (up, down):  2.070E-06 0.000E+00

     add environment contribution to local potential

     total cpu time spent up to now is      159.7 secs

     total energy              =    -672.67828040 Ry
     estimated scf accuracy    <       1.68867998 Ry
     electrostatic embedding   =      -0.11145016 Ry
     electrolyte free energy   =      -0.00014835 Ry
     correction to one-el term =     -41.93868927 Ry

     iteration # 20     ecut=    30.00 Ry     beta= 0.70
     Davidson diagonalization with overlap

---- Real-time Memory Report at c_bands before calling an iterative solver
          1363 MiB given to the printing process from OS
             0 MiB allocation reported by mallinfo(arena+hblkhd)
         18919 MiB available memory on the node where the printing process lives
------------------
     ethr =  5.16E-04,  avg # of iterations =  1.3

     negative rho (up, down):  4.872E-07 0.000E+00

     add environment contribution to local potential

     total cpu time spent up to now is      166.2 secs

     total energy              =    -672.69355284 Ry
     estimated scf accuracy    <       0.30621832 Ry
     electrostatic embedding   =      -0.11863766 Ry
     electrolyte free energy   =      -0.00014832 Ry
     correction to one-el term =     -42.98709722 Ry

     iteration # 21     ecut=    30.00 Ry     beta= 0.70
     Davidson diagonalization with overlap

---- Real-time Memory Report at c_bands before calling an iterative solver
          1363 MiB given to the printing process from OS
             0 MiB allocation reported by mallinfo(arena+hblkhd)
         18918 MiB available memory on the node where the printing process lives
------------------
     ethr =  3.50E-04,  avg # of iterations =  1.3

     negative rho (up, down):  6.344E-08 0.000E+00

     add environment contribution to local potential

     total cpu time spent up to now is      172.3 secs

     total energy              =    -672.70726124 Ry
     estimated scf accuracy    <       0.22805829 Ry
     electrostatic embedding   =      -0.11245754 Ry
     electrolyte free energy   =      -0.00014838 Ry
     correction to one-el term =     -41.73737310 Ry

     iteration # 22     ecut=    30.00 Ry     beta= 0.70
     Davidson diagonalization with overlap

---- Real-time Memory Report at c_bands before calling an iterative solver
          1363 MiB given to the printing process from OS
             0 MiB allocation reported by mallinfo(arena+hblkhd)
         18919 MiB available memory on the node where the printing process lives
------------------
     ethr =  2.61E-04,  avg # of iterations =  1.0

     negative rho (up, down):  1.939E-08 0.000E+00

     add environment contribution to local potential

     total cpu time spent up to now is      178.9 secs

     total energy              =    -672.71112010 Ry
     estimated scf accuracy    <       0.08090278 Ry
     electrostatic embedding   =      -0.11219120 Ry
     electrolyte free energy   =      -0.00014839 Ry
     correction to one-el term =     -41.73190019 Ry

     iteration # 23     ecut=    30.00 Ry     beta= 0.70
     Davidson diagonalization with overlap

---- Real-time Memory Report at c_bands before calling an iterative solver
          1363 MiB given to the printing process from OS
             0 MiB allocation reported by mallinfo(arena+hblkhd)
         18919 MiB available memory on the node where the printing process lives
------------------
     ethr =  9.25E-05,  avg # of iterations =  1.3

     add environment contribution to local potential

     total cpu time spent up to now is      185.5 secs

     total energy              =    -672.70160628 Ry
     estimated scf accuracy    <       0.16735007 Ry
     electrostatic embedding   =      -0.10815774 Ry
     electrolyte free energy   =      -0.00014840 Ry
     correction to one-el term =     -40.99594889 Ry

     iteration # 24     ecut=    30.00 Ry     beta= 0.70
     Davidson diagonalization with overlap

---- Real-time Memory Report at c_bands before calling an iterative solver
          1363 MiB given to the printing process from OS
             0 MiB allocation reported by mallinfo(arena+hblkhd)
         18913 MiB available memory on the node where the printing process lives
------------------
     ethr =  9.25E-05,  avg # of iterations =  2.0

     negative rho (up, down):  2.081E-07 0.000E+00

     add environment contribution to local potential

     total cpu time spent up to now is      192.3 secs

     total energy              =    -672.70963470 Ry
     estimated scf accuracy    <       0.19503742 Ry
     electrostatic embedding   =      -0.10868250 Ry
     electrolyte free energy   =      -0.00014840 Ry
     correction to one-el term =     -41.24707161 Ry

     iteration # 25     ecut=    30.00 Ry     beta= 0.70
     Davidson diagonalization with overlap

---- Real-time Memory Report at c_bands before calling an iterative solver
          1363 MiB given to the printing process from OS
             0 MiB allocation reported by mallinfo(arena+hblkhd)
         18913 MiB available memory on the node where the printing process lives
------------------
     ethr =  9.25E-05,  avg # of iterations =  1.0

     add environment contribution to local potential

     total cpu time spent up to now is      198.4 secs

     total energy              =    -672.70820282 Ry
     estimated scf accuracy    <       0.08798765 Ry
     electrostatic embedding   =      -0.10735521 Ry
     electrolyte free energy   =      -0.00014843 Ry
     correction to one-el term =     -41.04412507 Ry

     iteration # 26     ecut=    30.00 Ry     beta= 0.70
     Davidson diagonalization with overlap

---- Real-time Memory Report at c_bands before calling an iterative solver
          1363 MiB given to the printing process from OS
             0 MiB allocation reported by mallinfo(arena+hblkhd)
         18902 MiB available memory on the node where the printing process lives
------------------
     ethr =  9.25E-05,  avg # of iterations =  1.0

     add environment contribution to local potential

     total cpu time spent up to now is      205.2 secs

     total energy              =    -672.70932942 Ry
     estimated scf accuracy    <       0.00037113 Ry
     electrostatic embedding   =      -0.10695542 Ry
     electrolyte free energy   =      -0.00014846 Ry
     correction to one-el term =     -41.00574986 Ry

     iteration # 27     ecut=    30.00 Ry     beta= 0.70
     Davidson diagonalization with overlap

---- Real-time Memory Report at c_bands before calling an iterative solver
          1363 MiB given to the printing process from OS
             0 MiB allocation reported by mallinfo(arena+hblkhd)
         18914 MiB available memory on the node where the printing process lives
------------------
     c_bands:  1 eigenvalues not converged
     ethr =  4.24E-07,  avg # of iterations = 11.7

     add environment contribution to local potential

     total cpu time spent up to now is      213.2 secs

     total energy              =    -672.70935100 Ry
     estimated scf accuracy    <       0.00128427 Ry
     electrostatic embedding   =      -0.10719278 Ry
     electrolyte free energy   =      -0.00014847 Ry
     correction to one-el term =     -41.06217190 Ry

     iteration # 28     ecut=    30.00 Ry     beta= 0.70
     Davidson diagonalization with overlap

---- Real-time Memory Report at c_bands before calling an iterative solver
          1363 MiB given to the printing process from OS
             0 MiB allocation reported by mallinfo(arena+hblkhd)
         18912 MiB available memory on the node where the printing process lives
------------------
     ethr =  4.24E-07,  avg # of iterations =  1.7

     add environment contribution to local potential

     total cpu time spent up to now is      219.8 secs

     total energy              =    -672.70938257 Ry
     estimated scf accuracy    <       0.00003813 Ry
     electrostatic embedding   =      -0.10728104 Ry
     electrolyte free energy   =      -0.00014848 Ry
     correction to one-el term =     -41.10796597 Ry

     iteration # 29     ecut=    30.00 Ry     beta= 0.70
     Davidson diagonalization with overlap

---- Real-time Memory Report at c_bands before calling an iterative solver
          1363 MiB given to the printing process from OS
             0 MiB allocation reported by mallinfo(arena+hblkhd)
         18912 MiB available memory on the node where the printing process lives
------------------
     ethr =  4.36E-08,  avg # of iterations =  1.7

     add environment contribution to local potential

     total cpu time spent up to now is      226.2 secs

     total energy              =    -672.70938584 Ry
     estimated scf accuracy    <       0.00000227 Ry
     electrostatic embedding   =      -0.10724522 Ry
     electrolyte free energy   =      -0.00014847 Ry
     correction to one-el term =     -41.11655935 Ry

     iteration # 30     ecut=    30.00 Ry     beta= 0.70
     Davidson diagonalization with overlap

---- Real-time Memory Report at c_bands before calling an iterative solver
          1363 MiB given to the printing process from OS
             0 MiB allocation reported by mallinfo(arena+hblkhd)
         18914 MiB available memory on the node where the printing process lives
------------------
     ethr =  2.59E-09,  avg # of iterations =  4.3

     add environment contribution to local potential

     total cpu time spent up to now is      233.3 secs

     total energy              =    -672.70938762 Ry
     estimated scf accuracy    <       0.00000716 Ry
     electrostatic embedding   =      -0.10726803 Ry
     electrolyte free energy   =      -0.00014848 Ry
     correction to one-el term =     -41.14179651 Ry

     iteration # 31     ecut=    30.00 Ry     beta= 0.70
     Davidson diagonalization with overlap

---- Real-time Memory Report at c_bands before calling an iterative solver
          1363 MiB given to the printing process from OS
             0 MiB allocation reported by mallinfo(arena+hblkhd)
         18915 MiB available memory on the node where the printing process lives
------------------
     ethr =  2.59E-09,  avg # of iterations =  2.0

     add environment contribution to local potential

     total cpu time spent up to now is      240.5 secs

     total energy              =    -672.70938780 Ry
     estimated scf accuracy    <       0.00000026 Ry
     electrostatic embedding   =      -0.10728037 Ry
     electrolyte free energy   =      -0.00014848 Ry
     correction to one-el term =     -41.14861877 Ry

     iteration # 32     ecut=    30.00 Ry     beta= 0.70
     Davidson diagonalization with overlap

---- Real-time Memory Report at c_bands before calling an iterative solver
          1363 MiB given to the printing process from OS
             0 MiB allocation reported by mallinfo(arena+hblkhd)
         18913 MiB available memory on the node where the printing process lives
------------------
     ethr =  2.95E-10,  avg # of iterations =  4.0

     add environment contribution to local potential

     total cpu time spent up to now is      247.5 secs

     total energy              =    -672.70938829 Ry
     estimated scf accuracy    <       0.00000006 Ry
     electrostatic embedding   =      -0.10729097 Ry
     electrolyte free energy   =      -0.00014845 Ry
     correction to one-el term =     -41.15712343 Ry

     iteration # 33     ecut=    30.00 Ry     beta= 0.70
     Davidson diagonalization with overlap

---- Real-time Memory Report at c_bands before calling an iterative solver
          1363 MiB given to the printing process from OS
             0 MiB allocation reported by mallinfo(arena+hblkhd)
         18914 MiB available memory on the node where the printing process lives
------------------
     ethr =  6.61E-11,  avg # of iterations =  4.3

     add environment contribution to local potential

     total cpu time spent up to now is      254.7 secs

     total energy              =    -672.70938811 Ry
     estimated scf accuracy    <       0.00000004 Ry
     electrostatic embedding   =      -0.10728960 Ry
     electrolyte free energy   =      -0.00014848 Ry
     correction to one-el term =     -41.16168757 Ry

     iteration # 34     ecut=    30.00 Ry     beta= 0.70
     Davidson diagonalization with overlap

---- Real-time Memory Report at c_bands before calling an iterative solver
          1363 MiB given to the printing process from OS
             0 MiB allocation reported by mallinfo(arena+hblkhd)
         18913 MiB available memory on the node where the printing process lives
------------------
     ethr =  4.55E-11,  avg # of iterations =  3.0

     the potential shift due to the Gaussian-smeared nuclei is    -0.5949 ev

     total cpu time spent up to now is      259.0 secs

     End of self-consistent calculation

          k = 0.0000 0.0000 0.0000 (  8687 PWs)   bands (ev):

   -11.7390 -11.4257 -10.9431 -10.5055 -10.4221 -10.4195 -10.4042 -10.3259
   -10.2067 -10.1618 -10.0559  -9.8969  -9.6968  -9.4702  -9.1808  -8.9835
    -8.9582  -8.9582  -8.9160  -8.9160  -8.6764  -8.6764  -8.3868  -8.3020
    -8.2948  -8.2948  -8.1612  -8.1594  -8.0998  -8.0173  -7.9801  -7.9801
    -7.8976  -7.7742  -7.6887  -7.6887  -7.6877  -7.5206  -7.4146  -7.3294
    -7.3294  -7.3253  -7.2417  -7.0972  -7.0972  -6.1035  -4.5202  -2.7791
    -2.2658   0.1455   0.1549   0.3802   0.5229

     occupation numbers 
     1.0000   1.0000   1.0000   1.0000   1.0000   1.0000   1.0000   1.0000
     1.0000   1.0000   1.0000   1.0000   1.0000   1.0000   1.0000   1.0000
     1.0000   1.0000   1.0000   1.0000   1.0000   1.0000   1.0000   1.0000
     1.0000   1.0000   1.0000   1.0000   1.0000   1.0000   1.0000   1.0000
     1.0000   1.0000   1.0000   1.0000   1.0000   1.0000   1.0000   1.0000
     1.0000   1.0000   1.0000   1.0000   1.0000   1.0000   0.0578   0.0000
     0.0000   0.0000   0.0000   0.0000   0.0000

          k = 0.0000-0.5000 0.0000 (  8814 PWs)   bands (ev):

   -10.4343 -10.4342 -10.3386 -10.3386 -10.0752 -10.0752  -9.6803  -9.6803
    -9.2778  -9.2777  -9.2351  -9.2351  -9.0510  -9.0509  -9.0487  -9.0486
    -8.9434  -8.9433  -8.9342  -8.9341  -8.7276  -8.7276  -8.6867  -8.6867
    -8.4355  -8.4355  -8.2814  -8.2814  -7.9675  -7.9675  -7.7959  -7.7959
    -7.7813  -7.7812  -7.4730  -7.4730  -7.3564  -7.3564  -7.2518  -7.2518
    -4.9447  -4.9446  -4.8767  -4.8766  -4.7771  -4.7771  -4.4661  -4.4660
    -1.4625  -1.4624  -0.2450  -0.2450   1.1416

     occupation numbers 
     1.0000   1.0000   1.0000   1.0000   1.0000   1.0000   1.0000   1.0000
     1.0000   1.0000   1.0000   1.0000   1.0000   1.0000   1.0000   1.0000
     1.0000   1.0000   1.0000   1.0000   1.0000   1.0000   1.0000   1.0000
     1.0000   1.0000   1.0000   1.0000   1.0000   1.0000   1.0000   1.0000
     1.0000   1.0000   1.0000   1.0000   1.0000   1.0000   1.0000   1.0000
     0.9279   0.9277   0.7743   0.7742   0.5038   0.5038   0.0297   0.0297
     0.0000   0.0000   0.0000   0.0000   0.0000

          k =-0.5000-0.5000 0.0000 (  8868 PWs)   bands (ev):

   -10.4866 -10.4865 -10.3659 -10.3659 -10.3110 -10.3110 -10.2185 -10.2185
   -10.1169 -10.1169  -9.9384  -9.9384  -9.8259  -9.8259  -9.4235  -9.4235
    -8.8740  -8.8740  -8.3400  -8.3400  -7.9724  -7.9723  -7.8729  -7.8729
    -7.7356  -7.7356  -7.5471  -7.5471  -7.4551  -7.4550  -7.2905  -7.2905
    -7.2319  -7.2319  -7.2076  -7.2075  -7.0317  -7.0317  -6.9343  -6.9342
    -2.5031  -2.5031  -1.8373  -1.8373  -0.8347  -0.8347   0.4615   0.4615
     1.8860   1.8861   1.9920   1.9921   2.0708

     occupation numbers 
     1.0000   1.0000   1.0000   1.0000   1.0000   1.0000   1.0000   1.0000
     1.0000   1.0000   1.0000   1.0000   1.0000   1.0000   1.0000   1.0000
     1.0000   1.0000   1.0000   1.0000   1.0000   1.0000   1.0000   1.0000
     1.0000   1.0000   1.0000   1.0000   1.0000   1.0000   1.0000   1.0000
     1.0000   1.0000   1.0000   1.0000   1.0000   1.0000   1.0000   1.0000
     0.0000   0.0000   0.0000   0.0000   0.0000   0.0000   0.0000   0.0000
     0.0000   0.0000   0.0000   0.0000   0.0000

     the Fermi energy is    -4.7378 ev

!    total energy              =    -672.70938812 Ry
     estimated scf accuracy    <          7.3E-10 Ry
     smearing contrib. (-TS)   =      -0.01082064 Ry
     internal energy E=F+TS    =    -672.69856748 Ry

     The total energy is F=E-TS. E is the sum of the following terms:
     one-electron contribution =  -26353.88172424 Ry
     hartree contribution      =   13220.02253785 Ry
     xc contribution           =    -178.44530120 Ry
     ewald contribution        =   12680.87942748 Ry
     electrostatic embedding   =      -0.10729602 Ry
     electrolyte free energy   =      -0.00014848 Ry
     correction to one-el term =     -41.16606288 Ry

     WARNING: you are using the parabolic pbc correction;
              the potential shift above must be added to 
              band and Fermi energies.

     convergence has been achieved in  34 iterations
     The dielectric solvent contribution to forces
     atom    1 type  1   force =     0.00000000    0.00000000   -0.55918292
     atom    2 type  1   force =    -0.00000000   -0.00000000   -0.42910215
     atom    3 type  1   force =     0.00000000    0.00000000   -0.25704465
     atom    4 type  1   force =    -0.00000000   -0.00000000   -0.08556302
     atom    5 type  1   force =     0.00000000    0.00000000    0.08563112
     atom    6 type  1   force =    -0.00000000   -0.00000000    0.25711276
     atom    7 type  1   force =     0.00000000    0.00000000    0.42917021
     atom    8 type  1   force =    -0.00000000   -0.00000000    0.55925144


     Forces acting on atoms (cartesian axes, Ry/au):

     atom    1 type  1   force =     0.00000000    0.00000000   -0.00261001
     atom    2 type  1   force =     0.00000000    0.00000000    0.00589745
     atom    3 type  1   force =     0.00000000    0.00000000   -0.00185702
     atom    4 type  1   force =     0.00000000    0.00000000    0.00108519
     atom    5 type  1   force =     0.00000000    0.00000000   -0.00108519
     atom    6 type  1   force =     0.00000000    0.00000000    0.00185702
     atom    7 type  1   force =     0.00000000    0.00000000   -0.00589745
     atom    8 type  1   force =     0.00000000    0.00000000    0.00261001
     The non-local contrib.  to forces
     atom    1 type  1   force =     0.00000000    0.00000000   -0.27997482
     atom    2 type  1   force =     0.00000000    0.00000000   -0.13856210
     atom    3 type  1   force =     0.00000000    0.00000000    0.06089151
     atom    4 type  1   force =     0.00000000    0.00000000    0.01255067
     atom    5 type  1   force =     0.00000000    0.00000000   -0.01255067
     atom    6 type  1   force =     0.00000000    0.00000000   -0.06089151
     atom    7 type  1   force =     0.00000000    0.00000000    0.13856210
     atom    8 type  1   force =     0.00000000    0.00000000    0.27997482
     The ionic contribution  to forces
     atom    1 type  1   force =    -0.00000000   -0.00000000 -239.27066904
     atom    2 type  1   force =     0.00000000    0.00000000 -172.16089596
     atom    3 type  1   force =    -0.00000000   -0.00000000 -103.18769990
     atom    4 type  1   force =     0.00000000    0.00000000  -34.40075415
     atom    5 type  1   force =    -0.00000000   -0.00000000   34.40075220
     atom    6 type  1   force =     0.00000000    0.00000000  103.18770000
     atom    7 type  1   force =    -0.00000000   -0.00000000  172.16089755
     atom    8 type  1   force =     0.00000000    0.00000000  239.27066931
     The local contribution  to forces
     atom    1 type  1   force =    -0.00000000   -0.00000000  240.10186449
     atom    2 type  1   force =     0.00000000    0.00000000  172.73733434
     atom    3 type  1   force =    -0.00000000   -0.00000000  103.38142033
     atom    4 type  1   force =     0.00000000    0.00000000   34.47457362
     atom    5 type  1   force =    -0.00000000   -0.00000000  -34.47457362
     atom    6 type  1   force =     0.00000000    0.00000000 -103.38142033
     atom    7 type  1   force =    -0.00000000   -0.00000000 -172.73728340
     atom    8 type  1   force =     0.00000000    0.00000000 -240.10186449
     The core correction contribution to forces
     atom    1 type  1   force =    -0.00000000   -0.00000000    0.00533054
     atom    2 type  1   force =     0.00000000    0.00000000   -0.00279439
     atom    3 type  1   force =    -0.00000000   -0.00000000    0.00055342
     atom    4 type  1   force =     0.00000000    0.00000000    0.00035825
     atom    5 type  1   force =    -0.00000000   -0.00000000   -0.00035825
     atom    6 type  1   force =     0.00000000    0.00000000   -0.00055342
     atom    7 type  1   force =    -0.00000000   -0.00000000    0.00279726
     atom    8 type  1   force =     0.00000000    0.00000000   -0.00533054
     The Hubbard contrib.    to forces
     atom    1 type  1   force =     0.00000000    0.00000000    0.00000000
     atom    2 type  1   force =     0.00000000    0.00000000    0.00000000
     atom    3 type  1   force =     0.00000000    0.00000000    0.00000000
     atom    4 type  1   force =     0.00000000    0.00000000    0.00000000
     atom    5 type  1   force =     0.00000000    0.00000000    0.00000000
     atom    6 type  1   force =     0.00000000    0.00000000    0.00000000
     atom    7 type  1   force =     0.00000000    0.00000000    0.00000000
     atom    8 type  1   force =     0.00000000    0.00000000    0.00000000
     The SCF correction term to forces
     atom    1 type  1   force =    -0.00000000   -0.00000000    0.00005614
     atom    2 type  1   force =    -0.00000000   -0.00000000   -0.00002055
     atom    3 type  1   force =    -0.00000000   -0.00000000    0.00005637
     atom    4 type  1   force =    -0.00000000    0.00000000   -0.00004710
     atom    5 type  1   force =     0.00000000    0.00000000    0.00004710
     atom    6 type  1   force =    -0.00000000   -0.00000000   -0.00005637
     atom    7 type  1   force =    -0.00000000   -0.00000000    0.00002055
     atom    8 type  1   force =    -0.00000000   -0.00000000   -0.00005614

     Total force =     0.009614     Total SCF correction =     0.000134


     init_run     :      3.74s CPU      3.97s WALL (       1 calls)
     electrons    :    238.54s CPU    254.88s WALL (       1 calls)
     forces       :      3.31s CPU      3.70s WALL (       1 calls)

     Called by init_run:
     wfcinit      :      1.01s CPU      1.03s WALL (       1 calls)
     wfcinit:atom :      0.01s CPU      0.01s WALL (       3 calls)
     wfcinit:wfcr :      0.90s CPU      0.92s WALL (       3 calls)
     potinit      :      0.49s CPU      0.51s WALL (       1 calls)
     hinit0       :      1.59s CPU      1.60s WALL (       1 calls)

     Called by electrons:
     c_bands      :    110.74s CPU    112.35s WALL (      34 calls)
     sum_band     :     34.14s CPU     40.21s WALL (      34 calls)
     v_of_rho     :      8.52s CPU     10.29s WALL (      35 calls)
     v_h          :      0.29s CPU      0.29s WALL (      35 calls)
     v_xc         :      8.56s CPU     10.37s WALL (      36 calls)
     newd         :     17.59s CPU     24.02s WALL (      35 calls)
     mix_rho      :      0.88s CPU      0.89s WALL (      34 calls)

     Called by c_bands:
     init_us_2    :      0.92s CPU      1.00s WALL (     210 calls)
     init_us_2:cp :      0.92s CPU      1.00s WALL (     210 calls)
     cegterg      :    105.91s CPU    107.49s WALL (     106 calls)

     Called by sum_band:
     sum_band:wei :      0.01s CPU      0.01s WALL (      34 calls)
     sum_band:loo :     12.14s CPU     12.14s WALL (      34 calls)
     sum_band:buf :      0.11s CPU      0.11s WALL (     102 calls)
     sum_band:ini :      0.46s CPU      0.46s WALL (     102 calls)
     sum_band:cal :      1.62s CPU      1.62s WALL (     102 calls)
     sum_band:bec :      0.01s CPU      0.01s WALL (     102 calls)
     addusdens    :     20.84s CPU     26.84s WALL (      34 calls)
     addusd:skk   :      0.29s CPU      0.56s WALL (      34 calls)
     addusd:dgemm :      2.47s CPU      8.05s WALL (      34 calls)
     addusd:qvan2 :     14.53s CPU     14.53s WALL (      34 calls)

     Called by *egterg:
     cdiaghg      :      1.82s CPU      1.83s WALL (     642 calls)
     cegterg:over :      5.96s CPU      5.96s WALL (     536 calls)
     cegterg:upda :      3.79s CPU      3.80s WALL (     536 calls)
     cegterg:last :      8.00s CPU      8.00s WALL (     321 calls)
     h_psi        :     78.34s CPU     79.67s WALL (     645 calls)
     s_psi        :      5.89s CPU      6.08s WALL (     645 calls)
     g_psi        :      0.55s CPU      0.55s WALL (     536 calls)

     Called by h_psi:
     h_psi:calbec :      5.95s CPU      5.96s WALL (     645 calls)
     vloc_psi     :     65.77s CPU     67.05s WALL (     645 calls)
     add_vuspsi   :      6.13s CPU      6.13s WALL (     645 calls)

     General routines
     calbec       :      7.79s CPU      7.80s WALL (     759 calls)
     fft          :      2.35s CPU      2.69s WALL (     464 calls)
     ffts         :      0.12s CPU      0.12s WALL (      69 calls)
     fftw         :     67.83s CPU     68.92s WALL (   43386 calls)
     interpolate  :      0.32s CPU      0.32s WALL (      35 calls)

     Parallel routines

     Environ routines

     PWSCF        :   4m 5.77s CPU   4m22.75s WALL


   This run was terminated on:  22:11:53   2May2022            

=------------------------------------------------------------------------------=
   JOB DONE.
=------------------------------------------------------------------------------=
