
     Program PWSCF v.5.1.2 (svn rev. 11553M) starts on 26May2015 at 14:22:25 

     This program is part of the open-source Quantum ESPRESSO suite
     for quantum simulation of materials; please cite
         "P. Giannozzi et al., J. Phys.:Condens. Matter 21 395502 (2009);
          URL http://www.quantum-espresso.org", 
     in publications or presentations arising from this work. More details at
     http://www.quantum-espresso.org/quote

     Parallel version (MPI), running on     2 processors
     R & G space division:  proc/nbgrp/npool/nimage =       2
     Waiting for input...
     Reading input from standard input

     Current dimensions of program PWSCF are:
     Max number of different atomic species (ntypx) = 10
     Max number of k-points (npk) =  40000
     Max angular momentum in pseudopotentials (lmaxx) =  3
               file H.pbe-rrkjus.UPF: wavefunction(s)  1S renormalized
               file O.pbe-rrkjus.UPF: wavefunction(s)  2S renormalized

     Subspace diagonalization in iterative solution of the eigenvalue problem:
     a serial algorithm will be used

 
     Parallelization info
     --------------------
     sticks:   dense  smooth     PW     G-vecs:    dense   smooth      PW
     Min        4774    1904    474               350736    88753   11058
     Max        4775    1905    475               350739    88756   11061
     Sum        9549    3809    949               701475   177509   22119
 


     bravais-lattice index     =            1
     lattice parameter (alat)  =      20.0000  a.u.
     unit-cell volume          =    8000.0000 (a.u.)^3
     number of atoms/cell      =            3
     number of atomic types    =            2
     number of electrons       =         8.00
     number of Kohn-Sham states=            4
     kinetic-energy cutoff     =      30.0000  Ry
     charge density cutoff     =     300.0000  Ry
     convergence threshold     =      5.0E-09
     mixing beta               =       0.4000
     number of iterations used =            8  plain     mixing
     Exchange-correlation      =  SLA  PW   PBE  PBE ( 1  4  3  4 0 0)
     nstep                     =           50

 

     Environ Module
     ==============

     Please cite
         "O. Andreussi, I. Dabo and N. Marzari, J. Chem. Phys. 136, 064102 (2012);"
     in publications or presentations arising from this work.

     compensation onset threshold      =               0.1000E+00 
     switching function adopted        =                     SCCS 
     density limit for vacuum region   =               0.5000E-02 
     density limit for bulk solvent    =               0.1000E-03 
 

     celldm(1)=  20.000000  celldm(2)=   0.000000  celldm(3)=   0.000000
     celldm(4)=   0.000000  celldm(5)=   0.000000  celldm(6)=   0.000000

     crystal axes: (cart. coord. in units of alat)
               a(1) = (   1.000000   0.000000   0.000000 )  
               a(2) = (   0.000000   1.000000   0.000000 )  
               a(3) = (   0.000000   0.000000   1.000000 )  

     reciprocal axes: (cart. coord. in units 2 pi/alat)
               b(1) = (  1.000000  0.000000  0.000000 )  
               b(2) = (  0.000000  1.000000  0.000000 )  
               b(3) = (  0.000000  0.000000  1.000000 )  


     PseudoPot. # 1 for H  read from file:
     /mnt/storage/andreo/PWSCF/espresso-svn/pseudo/H.pbe-rrkjus.UPF
     MD5 check sum: 7cc9d459525c9a0585f487a71c3c9563
     Pseudo is Ultrasoft, Zval =  1.0
     Generated by new atomic code, or converted to UPF format
     Using radial grid of 1061 points,  2 beta functions with: 
                l(1) =   0
                l(2) =   0
     Q(r) pseudized with 0 coefficients 


     PseudoPot. # 2 for O  read from file:
     /mnt/storage/andreo/PWSCF/espresso-svn/pseudo/O.pbe-rrkjus.UPF
     MD5 check sum: 390ba29e75625707450f3bd3f0eb6be9
     Pseudo is Ultrasoft, Zval =  6.0
     Generated by new atomic code, or converted to UPF format
     Using radial grid of 1269 points,  4 beta functions with: 
                l(1) =   0
                l(2) =   0
                l(3) =   1
                l(4) =   1
     Q(r) pseudized with 0 coefficients 


     atomic species   valence    mass     pseudopotential
        H              1.00     1.00000     H ( 1.00)
        O              6.00    16.00000     O ( 1.00)

      2 Sym. Ops. (no inversion) found ( 1 have fractional translation)


                                    s                        frac. trans.

      isym =  1     identity                                     

 cryst.   s( 1) = (     1          0          0      )
                  (     0          1          0      )
                  (     0          0          1      )

 cart.    s( 1) = (  1.0000000  0.0000000  0.0000000 )
                  (  0.0000000  1.0000000  0.0000000 )
                  (  0.0000000  0.0000000  1.0000000 )


      isym =  2     inv. 180 deg rotation - cart. axis [0,0,1]   

 cryst.   s( 2) = (     1          0          0      )    f =(  0.0000000 )
                  (     0          1          0      )       (  0.0000000 )
                  (     0          0         -1      )       ( -0.1500000 )

 cart.    s( 2) = (  1.0000000  0.0000000  0.0000000 )    f =(  0.0000000 )
                  (  0.0000000  1.0000000  0.0000000 )       (  0.0000000 )
                  (  0.0000000  0.0000000 -1.0000000 )       ( -0.1500000 )


     point group C_s (m)    
     there are  2 classes
     the character table:

       E     s    
A'     1.00  1.00
A''    1.00 -1.00

     the symmetry operations in each class and the name of the first element:

     E        1
          identity                                               
     s        2
          inv. 180 deg rotation - cart. axis [0,0,1]             

   Cartesian axes

     site n.     atom                  positions (alat units)
         1           O   tau(   1) = (   0.5895000   0.6025000   0.5750000  )
         2           H   tau(   2) = (   0.6725000   0.5610000   0.5750000  )
         3           H   tau(   3) = (   0.5280000   0.5330000   0.5750000  )

   Crystallographic axes

     site n.     atom                  positions (cryst. coord.)
         1           O   tau(   1) = (  0.5895000  0.6025000  0.5750000  )
         2           H   tau(   2) = (  0.6725000  0.5610000  0.5750000  )
         3           H   tau(   3) = (  0.5280000  0.5330000  0.5750000  )

     number of k points=     1
                       cart. coord. in units 2pi/alat
        k(    1) = (   0.0000000   0.0000000   0.0000000), wk =   2.0000000

                       cryst. coord.
        k(    1) = (   0.0000000   0.0000000   0.0000000), wk =   2.0000000

     Dense  grid:   701475 G-vectors     FFT dimensions: ( 120, 120, 120)

     Smooth grid:   177509 G-vectors     FFT dimensions: (  72,  72,  72)

     Largest allocated arrays     est. size (Mb)     dimensions
        Kohn-Sham Wavefunctions         0.67 Mb     (   11058,    4)
        NL pseudopotentials             2.02 Mb     (   11058,   12)
        Each V/rho on FFT grid         13.18 Mb     (  864000)
        Each G-vector array             2.68 Mb     (  350739)
        G-vector shells                 0.02 Mb     (    2535)
     Largest temporary arrays     est. size (Mb)     dimensions
        Each subspace H/S matrix        0.00 Mb     (       4,    4)
        Each <psi_i|beta_j> matrix      0.00 Mb     (      12,    4)
        Arrays for rho mixing         105.47 Mb     (  864000,    8)

     Initial potential from superposition of free atoms
     Check: negative starting charge=   -0.000775

     starting charge    7.80759, renormalised to    8.00000

     negative rho (up, down):  7.936E-04 0.000E+00
     Starting wfc are    6 randomized atomic wfcs

     total cpu time spent up to now is        2.1 secs

     per-process dynamical memory:   190.7 Mb

     Self-consistent Calculation

     iteration #  1     ecut=    30.00 Ry     beta=0.40
     CG style diagonalization
     ethr =  1.00E-02,  avg # of iterations =  3.0

     negative rho (up, down):  4.646E-04 0.000E+00

     total cpu time spent up to now is        4.3 secs

     total energy              =     -34.22008133 Ry
     Harris-Foulkes estimate   =     -34.58548725 Ry
     estimated scf accuracy    <       0.67747205 Ry

     iteration #  2     ecut=    30.00 Ry     beta=0.40
     CG style diagonalization
     ethr =  8.47E-03,  avg # of iterations =  3.8

     negative rho (up, down):  2.937E-04 0.000E+00

     add environment contribution to local potential

     total cpu time spent up to now is        6.5 secs

     total energy              =     -34.27777040 Ry
     Harris-Foulkes estimate   =     -34.31759677 Ry
     estimated scf accuracy    <       0.09821302 Ry

     iteration #  3     ecut=    30.00 Ry     beta=0.40
     CG style diagonalization
     ethr =  1.23E-03,  avg # of iterations =  3.0

     negative rho (up, down):  1.263E-03 0.000E+00

     add environment contribution to local potential

     total cpu time spent up to now is        8.6 secs

     total energy              =     -34.26502906 Ry
     Harris-Foulkes estimate   =     -34.28126767 Ry
     estimated scf accuracy    <       0.02867832 Ry

     iteration #  4     ecut=    30.00 Ry     beta=0.40
     CG style diagonalization
     ethr =  3.58E-04,  avg # of iterations =  3.2

     negative rho (up, down):  5.462E-04 0.000E+00

     add environment contribution to local potential

     total cpu time spent up to now is       10.6 secs

     total energy              =     -34.26787330 Ry
     Harris-Foulkes estimate   =     -34.26841308 Ry
     estimated scf accuracy    <       0.00096427 Ry

     iteration #  5     ecut=    30.00 Ry     beta=0.40
     CG style diagonalization
     ethr =  1.21E-05,  avg # of iterations =  4.2

     negative rho (up, down):  7.690E-04 0.000E+00

     add environment contribution to local potential

     total cpu time spent up to now is       12.7 secs

     total energy              =     -34.26827769 Ry
     Harris-Foulkes estimate   =     -34.26825493 Ry
     estimated scf accuracy    <       0.00025976 Ry

     iteration #  6     ecut=    30.00 Ry     beta=0.40
     CG style diagonalization
     ethr =  3.25E-06,  avg # of iterations =  4.0

     negative rho (up, down):  4.550E-04 0.000E+00

     add environment contribution to local potential

     total cpu time spent up to now is       14.8 secs

     total energy              =     -34.26831044 Ry
     Harris-Foulkes estimate   =     -34.26831936 Ry
     estimated scf accuracy    <       0.00003036 Ry

     iteration #  7     ecut=    30.00 Ry     beta=0.40
     CG style diagonalization
     ethr =  3.80E-07,  avg # of iterations =  3.8

     negative rho (up, down):  3.097E-04 0.000E+00

     add environment contribution to local potential

     total cpu time spent up to now is       16.9 secs

     total energy              =     -34.26831197 Ry
     Harris-Foulkes estimate   =     -34.26831442 Ry
     estimated scf accuracy    <       0.00000801 Ry

     iteration #  8     ecut=    30.00 Ry     beta=0.40
     CG style diagonalization
     ethr =  1.00E-07,  avg # of iterations =  3.8

     negative rho (up, down):  2.375E-04 0.000E+00

     add environment contribution to local potential

     total cpu time spent up to now is       18.9 secs

     total energy              =     -34.26831357 Ry
     Harris-Foulkes estimate   =     -34.26831361 Ry
     estimated scf accuracy    <       0.00000048 Ry

     iteration #  9     ecut=    30.00 Ry     beta=0.40
     CG style diagonalization
     ethr =  5.98E-09,  avg # of iterations =  3.5

     negative rho (up, down):  2.276E-04 0.000E+00

     add environment contribution to local potential

     total cpu time spent up to now is       20.9 secs

     total energy              =     -34.26831374 Ry
     Harris-Foulkes estimate   =     -34.26831361 Ry
     estimated scf accuracy    <       0.00000016 Ry

     iteration # 10     ecut=    30.00 Ry     beta=0.40
     CG style diagonalization
     ethr =  2.05E-09,  avg # of iterations =  3.0

     negative rho (up, down):  2.213E-04 0.000E+00

     add environment contribution to local potential

     total cpu time spent up to now is       23.0 secs

     total energy              =     -34.26831373 Ry
     Harris-Foulkes estimate   =     -34.26831375 Ry
     estimated scf accuracy    <       0.00000008 Ry

     iteration # 11     ecut=    30.00 Ry     beta=0.40
     CG style diagonalization
     ethr =  1.02E-09,  avg # of iterations =  4.0

     negative rho (up, down):  2.139E-04 0.000E+00

     total cpu time spent up to now is       24.9 secs

     End of self-consistent calculation

          k = 0.0000 0.0000 0.0000 ( 22119 PWs)   bands (ev):

   -25.0827 -12.9574  -9.1086  -7.0993

     occupation numbers 
     1.0000   1.0000   1.0000   1.0000

     highest occupied level (ev):    -7.0993

!    total energy              =     -34.26831377 Ry
     Harris-Foulkes estimate   =     -34.26831374 Ry
     estimated scf accuracy    <          2.2E-09 Ry

     The total energy is the sum of the following terms:

     one-electron contribution =     -63.77869685 Ry
     hartree contribution      =      33.33868646 Ry
     xc contribution           =      -8.38566113 Ry
     ewald contribution        =       4.55735774 Ry

     charge density inside the Wigner-Seitz cell:    8.00000000

     reference position (x0):        11.84375000   11.77250000   11.50000000 bohr

     Dipole moments (with respect to x0):
     Elect   0.1388  -0.7166   0.0000 au (Ha),   0.3529  -1.8214   0.0000 Debye
     Ionic   0.0000   0.0000   0.0000 au (Ha),   0.0000   0.0000   0.0000 Debye
     Total   0.1388  -0.7166   0.0000 au (Ha),   0.3529  -1.8214   0.0000 Debye

     Electrons quadrupole moment        -20.39984648 a.u. (Ha)
          Ions quadrupole moment          6.25033750 a.u. (Ha)
         Total quadrupole moment        -14.14950898 a.u. (Ha)

     *********    MAKOV-PAYNE CORRECTION    *********

     Makov-Payne correction with Madelung constant =   2.8373

     Makov-Payne correction     0.00000000 Ry =  0.000 eV (1st order, 1/a0)
                                0.00027897 Ry =  0.004 eV (2nd order, 1/a0^3)
                                0.00027897 Ry =  0.004 eV (total)

!    Total+Makov-Payne energy  =     -34.26803480 Ry

     convergence has been achieved in  11 iterations

     Forces acting on atoms (Ry/au):

     The global environment contribution to forces
     atom    1 type  2   force =     0.00000000    0.00000000    0.00000000
     atom    2 type  1   force =     0.00000000    0.00000000    0.00000000
     atom    3 type  1   force =     0.00000000    0.00000000    0.00000000
 
     atom    1 type  2   force =     0.00280196   -0.01470258    0.00000000
     atom    2 type  1   force =    -0.01387314    0.00491488    0.00000000
     atom    3 type  1   force =     0.01107117    0.00978770    0.00000000
     The non-local contrib.  to forces
     atom    1 type  2   force =     0.47464706   -2.44927623    0.00000000
     atom    2 type  1   force =    -0.17605715    0.07931012    0.00000000
     atom    3 type  1   force =     0.13366579    0.13929736    0.00000000
     The ionic contribution  to forces
     atom    1 type  2   force =    -0.80474894    4.15284562    0.00000000
     atom    2 type  1   force =     3.32883149   -1.50955609    0.00000000
     atom    3 type  1   force =    -2.52408255   -2.64328953    0.00000000
     The local contribution  to forces
     atom    1 type  2   force =     0.33293757   -1.71827509    0.00000000
     atom    2 type  1   force =    -3.16662784    1.43520555    0.00000000
     atom    3 type  1   force =     2.40151712    2.51382626    0.00000000
     The core correction contribution to forces
     atom    1 type  2   force =     0.00000000    0.00000000    0.00000000
     atom    2 type  1   force =     0.00000000    0.00000000    0.00000000
     atom    3 type  1   force =     0.00000000    0.00000000    0.00000000
     The Hubbard contrib.    to forces
     atom    1 type  2   force =     0.00000000    0.00000000    0.00000000
     atom    2 type  1   force =     0.00000000    0.00000000    0.00000000
     atom    3 type  1   force =     0.00000000    0.00000000    0.00000000
     The SCF correction term to forces
     atom    1 type  2   force =    -0.00000885    0.00004586    0.00000000
     atom    2 type  1   force =     0.00000525   -0.00000196    0.00000000
     atom    3 type  1   force =    -0.00000430   -0.00000364    0.00000000

     Total force =     0.025671     Total SCF correction =     0.000047

     BFGS Geometry Optimization

     number of scf cycles    =   1
     number of bfgs steps    =   0

     energy   new            =     -34.2683137689 Ry

     new trust radius        =       0.0149671888 bohr
     new conv_thr            =       0.0000000050 Ry


ATOMIC_POSITIONS (bohr)
O       11.792801962  12.035297424  11.500000000
H       13.436126863  11.224914879  11.500000000
H       10.571071175  10.669787697  11.500000000



     Writing output data file h2o_vacuum.save
     Check: negative starting charge=   -0.000775
     NEW-OLD atomic charge density approx. for the potential
     Check: negative starting charge=   -0.000776

     negative rho (up, down):  8.709E-04 0.000E+00

     add environment contribution to local potential

     total cpu time spent up to now is       31.6 secs

     per-process dynamical memory:   171.2 Mb

     Self-consistent Calculation

     iteration #  1     ecut=    30.00 Ry     beta=0.40
     CG style diagonalization
     ethr =  1.00E-06,  avg # of iterations =  5.5

     negative rho (up, down):  5.669E-04 0.000E+00

     add environment contribution to local potential

     total cpu time spent up to now is       33.8 secs

     total energy              =     -34.26828274 Ry
     Harris-Foulkes estimate   =     -34.26861979 Ry
     estimated scf accuracy    <       0.00066468 Ry

     iteration #  2     ecut=    30.00 Ry     beta=0.40
     CG style diagonalization
     ethr =  8.31E-06,  avg # of iterations =  4.0

     negative rho (up, down):  4.164E-04 0.000E+00

     add environment contribution to local potential

     total cpu time spent up to now is       35.8 secs

     total energy              =     -34.26841471 Ry
     Harris-Foulkes estimate   =     -34.26842966 Ry
     estimated scf accuracy    <       0.00004091 Ry

     iteration #  3     ecut=    30.00 Ry     beta=0.40
     CG style diagonalization
     ethr =  5.11E-07,  avg # of iterations =  3.8

     negative rho (up, down):  2.730E-04 0.000E+00

     add environment contribution to local potential

     total cpu time spent up to now is       37.8 secs

     total energy              =     -34.26842022 Ry
     Harris-Foulkes estimate   =     -34.26842289 Ry
     estimated scf accuracy    <       0.00000773 Ry

     iteration #  4     ecut=    30.00 Ry     beta=0.40
     CG style diagonalization
     ethr =  9.67E-08,  avg # of iterations =  4.0

     negative rho (up, down):  2.409E-04 0.000E+00

     add environment contribution to local potential

     total cpu time spent up to now is       39.9 secs

     total energy              =     -34.26842132 Ry
     Harris-Foulkes estimate   =     -34.26842144 Ry
     estimated scf accuracy    <       0.00000045 Ry

     iteration #  5     ecut=    30.00 Ry     beta=0.40
     CG style diagonalization
     ethr =  5.67E-09,  avg # of iterations =  3.5

     negative rho (up, down):  2.237E-04 0.000E+00

     add environment contribution to local potential

     total cpu time spent up to now is       41.9 secs

     total energy              =     -34.26842139 Ry
     Harris-Foulkes estimate   =     -34.26842138 Ry
     estimated scf accuracy    <       0.00000005 Ry

     iteration #  6     ecut=    30.00 Ry     beta=0.40
     CG style diagonalization
     ethr =  6.11E-10,  avg # of iterations =  3.8

     negative rho (up, down):  2.183E-04 0.000E+00

     add environment contribution to local potential

     total cpu time spent up to now is       44.1 secs

     total energy              =     -34.26842140 Ry
     Harris-Foulkes estimate   =     -34.26842140 Ry
     estimated scf accuracy    <       0.00000001 Ry

     iteration #  7     ecut=    30.00 Ry     beta=0.40
     CG style diagonalization
     ethr =  1.30E-10,  avg # of iterations =  3.8

     negative rho (up, down):  2.154E-04 0.000E+00

     total cpu time spent up to now is       46.0 secs

     End of self-consistent calculation

          k = 0.0000 0.0000 0.0000 ( 22119 PWs)   bands (ev):

   -25.2099 -13.1044  -9.0954  -7.1245

     occupation numbers 
     1.0000   1.0000   1.0000   1.0000

     highest occupied level (ev):    -7.1245

!    total energy              =     -34.26842143 Ry
     Harris-Foulkes estimate   =     -34.26842140 Ry
     estimated scf accuracy    <          1.6E-09 Ry

     The total energy is the sum of the following terms:

     one-electron contribution =     -64.06583269 Ry
     hartree contribution      =      33.47596003 Ry
     xc contribution           =      -8.40863952 Ry
     ewald contribution        =       4.73009075 Ry

     charge density inside the Wigner-Seitz cell:    8.00000000

     reference position (x0):        11.84550123   11.76331089   11.50000000 bohr

     Dipole moments (with respect to x0):
     Elect   0.1380  -0.7119   0.0000 au (Ha),   0.3506  -1.8094   0.0000 Debye
     Ionic   0.0000   0.0000   0.0000 au (Ha),   0.0000   0.0000   0.0000 Debye
     Total   0.1380  -0.7119   0.0000 au (Ha),   0.3506  -1.8094   0.0000 Debye

     Electrons quadrupole moment        -20.23113435 a.u. (Ha)
          Ions quadrupole moment          6.10044843 a.u. (Ha)
         Total quadrupole moment        -14.13068592 a.u. (Ha)

     *********    MAKOV-PAYNE CORRECTION    *********

     Makov-Payne correction with Madelung constant =   2.8373

     Makov-Payne correction     0.00000000 Ry =  0.000 eV (1st order, 1/a0)
                                0.00027531 Ry =  0.004 eV (2nd order, 1/a0^3)
                                0.00027531 Ry =  0.004 eV (total)

!    Total+Makov-Payne energy  =     -34.26814613 Ry

     convergence has been achieved in   7 iterations

     Forces acting on atoms (Ry/au):

     The global environment contribution to forces
     atom    1 type  2   force =     0.00000000    0.00000000    0.00000000
     atom    2 type  1   force =     0.00000000    0.00000000    0.00000000
     atom    3 type  1   force =     0.00000000    0.00000000    0.00000000
 
     atom    1 type  2   force =    -0.00250326    0.01355544    0.00000000
     atom    2 type  1   force =     0.00707947   -0.00562553    0.00000000
     atom    3 type  1   force =    -0.00457621   -0.00792991    0.00000000
     The non-local contrib.  to forces
     atom    1 type  2   force =     0.47411770   -2.44571253    0.00000000
     atom    2 type  1   force =    -0.18367957    0.08153042    0.00000000
     atom    3 type  1   force =     0.13993216    0.14423867    0.00000000
     The ionic contribution  to forces
     atom    1 type  2   force =    -0.81958885    4.23116179    0.00000000
     atom    2 type  1   force =     3.42268004   -1.53177436    0.00000000
     atom    3 type  1   force =    -2.60309120   -2.69938743    0.00000000
     The local contribution  to forces
     atom    1 type  2   force =     0.34305433   -1.77200410    0.00000000
     atom    2 type  1   force =    -3.23185275    1.44461497    0.00000000
     atom    3 type  1   force =     2.45864626    2.54721476    0.00000000
     The core correction contribution to forces
     atom    1 type  2   force =     0.00000000    0.00000000    0.00000000
     atom    2 type  1   force =     0.00000000    0.00000000    0.00000000
     atom    3 type  1   force =     0.00000000    0.00000000    0.00000000
     The Hubbard contrib.    to forces
     atom    1 type  2   force =     0.00000000    0.00000000    0.00000000
     atom    2 type  1   force =     0.00000000    0.00000000    0.00000000
     atom    3 type  1   force =     0.00000000    0.00000000    0.00000000
     The SCF correction term to forces
     atom    1 type  2   force =    -0.00002149    0.00011220    0.00000000
     atom    2 type  1   force =    -0.00000330    0.00000536    0.00000000
     atom    3 type  1   force =     0.00000153    0.00000600    0.00000000

     Total force =     0.018858     Total SCF correction =     0.000115

     number of scf cycles    =   2
     number of bfgs steps    =   1

     energy   old            =     -34.2683137689 Ry
     energy   new            =     -34.2684214334 Ry

     CASE: energy  _new < energy  _old

     new trust radius        =       0.0078481030 bohr
     new conv_thr            =            5.4E-11 Ry


ATOMIC_POSITIONS (bohr)
O       11.791378261  12.043015312  11.500000000
H       13.440047247  11.221690802  11.500000000
H       10.568574492  10.665293886  11.500000000



     Writing output data file h2o_vacuum.save
     Check: negative starting charge=   -0.000776
     NEW-OLD atomic charge density approx. for the potential
     Check: negative starting charge=   -0.000776

     negative rho (up, down):  2.756E-04 0.000E+00

     add environment contribution to local potential

     total cpu time spent up to now is       52.1 secs

     per-process dynamical memory:   161.1 Mb

     Self-consistent Calculation

     iteration #  1     ecut=    30.00 Ry     beta=0.40
     CG style diagonalization
     ethr =  1.00E-06,  avg # of iterations =  5.0

     negative rho (up, down):  2.331E-04 0.000E+00

     add environment contribution to local potential

     total cpu time spent up to now is       54.2 secs

     total energy              =     -34.26849863 Ry
     Harris-Foulkes estimate   =     -34.26855430 Ry
     estimated scf accuracy    <       0.00011086 Ry

     iteration #  2     ecut=    30.00 Ry     beta=0.40
     CG style diagonalization
     ethr =  1.39E-06,  avg # of iterations =  4.0

     negative rho (up, down):  2.170E-04 0.000E+00

     add environment contribution to local potential

     total cpu time spent up to now is       56.3 secs

     total energy              =     -34.26852162 Ry
     Harris-Foulkes estimate   =     -34.26852419 Ry
     estimated scf accuracy    <       0.00000757 Ry

     iteration #  3     ecut=    30.00 Ry     beta=0.40
     CG style diagonalization
     ethr =  9.46E-08,  avg # of iterations =  4.0

     negative rho (up, down):  2.172E-04 0.000E+00

     add environment contribution to local potential

     total cpu time spent up to now is       58.3 secs

     total energy              =     -34.26852292 Ry
     Harris-Foulkes estimate   =     -34.26852320 Ry
     estimated scf accuracy    <       0.00000135 Ry

     iteration #  4     ecut=    30.00 Ry     beta=0.40
     CG style diagonalization
     ethr =  1.68E-08,  avg # of iterations =  4.0

     negative rho (up, down):  2.145E-04 0.000E+00

     add environment contribution to local potential

     total cpu time spent up to now is       60.5 secs

     total energy              =     -34.26852312 Ry
     Harris-Foulkes estimate   =     -34.26852315 Ry
     estimated scf accuracy    <       0.00000009 Ry

     iteration #  5     ecut=    30.00 Ry     beta=0.40
     CG style diagonalization
     ethr =  1.18E-09,  avg # of iterations =  4.0

     negative rho (up, down):  2.164E-04 0.000E+00

     add environment contribution to local potential

     total cpu time spent up to now is       62.5 secs

     total energy              =     -34.26852314 Ry
     Harris-Foulkes estimate   =     -34.26852313 Ry
     estimated scf accuracy    <          9.6E-09 Ry

     iteration #  6     ecut=    30.00 Ry     beta=0.40
     CG style diagonalization
     ethr =  1.20E-10,  avg # of iterations =  3.0

     negative rho (up, down):  2.154E-04 0.000E+00

     add environment contribution to local potential

     total cpu time spent up to now is       64.5 secs

     total energy              =     -34.26852313 Ry
     Harris-Foulkes estimate   =     -34.26852314 Ry
     estimated scf accuracy    <          6.5E-10 Ry

     iteration #  7     ecut=    30.00 Ry     beta=0.40
     CG style diagonalization
     ethr =  8.15E-12,  avg # of iterations =  4.0

     negative rho (up, down):  2.149E-04 0.000E+00

     total cpu time spent up to now is       66.5 secs

     End of self-consistent calculation

          k = 0.0000 0.0000 0.0000 ( 22119 PWs)   bands (ev):

   -25.1612 -13.0341  -9.1107  -7.1151

     occupation numbers 
     1.0000   1.0000   1.0000   1.0000

     highest occupied level (ev):    -7.1151

!    total energy              =     -34.26852313 Ry
     Harris-Foulkes estimate   =     -34.26852313 Ry
     estimated scf accuracy    <          1.8E-11 Ry

     The total energy is the sum of the following terms:

     one-electron contribution =     -63.94838372 Ry
     hartree contribution      =      33.41949235 Ry
     xc contribution           =      -8.39917999 Ry
     ewald contribution        =       4.65954824 Ry

     charge density inside the Wigner-Seitz cell:    8.00000000

     reference position (x0):        11.84461141   11.76813457   11.50000000 bohr

     Dipole moments (with respect to x0):
     Elect   0.1385  -0.7150   0.0000 au (Ha),   0.3521  -1.8174   0.0000 Debye
     Ionic   0.0000   0.0000   0.0000 au (Ha),   0.0000   0.0000   0.0000 Debye
     Total   0.1385  -0.7150   0.0000 au (Ha),   0.3521  -1.8174   0.0000 Debye

     Electrons quadrupole moment        -20.29923919 a.u. (Ha)
          Ions quadrupole moment          6.15890323 a.u. (Ha)
         Total quadrupole moment        -14.14033595 a.u. (Ha)

     *********    MAKOV-PAYNE CORRECTION    *********

     Makov-Payne correction with Madelung constant =   2.8373

     Makov-Payne correction     0.00000000 Ry =  0.000 eV (1st order, 1/a0)
                                0.00027772 Ry =  0.004 eV (2nd order, 1/a0^3)
                                0.00027772 Ry =  0.004 eV (total)

!    Total+Makov-Payne energy  =     -34.26824540 Ry

     convergence has been achieved in   7 iterations

     Forces acting on atoms (Ry/au):

     The global environment contribution to forces
     atom    1 type  2   force =     0.00000000    0.00000000    0.00000000
     atom    2 type  1   force =     0.00000000    0.00000000    0.00000000
     atom    3 type  1   force =     0.00000000    0.00000000    0.00000000
 
     atom    1 type  2   force =    -0.00026459    0.00102673    0.00000000
     atom    2 type  1   force =    -0.00125506   -0.00082081    0.00000000
     atom    3 type  1   force =     0.00151965   -0.00020592    0.00000000
     The non-local contrib.  to forces
     atom    1 type  2   force =     0.47487500   -2.45017844    0.00000000
     atom    2 type  1   force =    -0.18035393    0.08101322    0.00000000
     atom    3 type  1   force =     0.13700814    0.14246441    0.00000000
     The ionic contribution  to forces
     atom    1 type  2   force =    -0.81560685    4.20833968    0.00000000
     atom    2 type  1   force =     3.38176126   -1.52820722    0.00000000
     atom    3 type  1   force =    -2.56615441   -2.68013246    0.00000000
     The local contribution  to forces
     atom    1 type  2   force =     0.34051208   -1.75710966    0.00000000
     atom    2 type  1   force =    -3.20261450    1.44638440    0.00000000
     atom    3 type  1   force =     2.43071221    2.53747291    0.00000000
     The core correction contribution to forces
     atom    1 type  2   force =     0.00000000    0.00000000    0.00000000
     atom    2 type  1   force =     0.00000000    0.00000000    0.00000000
     atom    3 type  1   force =     0.00000000    0.00000000    0.00000000
     The Hubbard contrib.    to forces
     atom    1 type  2   force =     0.00000000    0.00000000    0.00000000
     atom    2 type  1   force =     0.00000000    0.00000000    0.00000000
     atom    3 type  1   force =     0.00000000    0.00000000    0.00000000
     The SCF correction term to forces
     atom    1 type  2   force =     0.00000215   -0.00001341    0.00000000
     atom    2 type  1   force =    -0.00000093    0.00000024    0.00000000
     atom    3 type  1   force =     0.00000066    0.00000067    0.00000000

     Total force =     0.002393     Total SCF correction =     0.000014

     number of scf cycles    =   3
     number of bfgs steps    =   2

     energy   old            =     -34.2684214334 Ry
     energy   new            =     -34.2685231283 Ry

     CASE: energy  _new < energy  _old

     new trust radius        =       0.0015882529 bohr
     new conv_thr            =            5.1E-11 Ry


ATOMIC_POSITIONS (bohr)
O       11.791073988  12.044256690  11.500000000
H       13.438793712  11.220758911  11.500000000
H       10.570132300  10.664984399  11.500000000



     Writing output data file h2o_vacuum.save
     Check: negative starting charge=   -0.000776
     NEW-OLD atomic charge density approx. for the potential
     Check: negative starting charge=   -0.000776

     negative rho (up, down):  2.451E-04 0.000E+00

     add environment contribution to local potential

     total cpu time spent up to now is       72.6 secs

     per-process dynamical memory:   161.1 Mb

     Self-consistent Calculation

     iteration #  1     ecut=    30.00 Ry     beta=0.40
     CG style diagonalization
     ethr =  1.00E-06,  avg # of iterations =  3.8

     Threshold (ethr) on eigenvalues was too large:
     Diagonalizing with lowered threshold

     CG style diagonalization
     ethr =  2.17E-09,  avg # of iterations =  4.2

     negative rho (up, down):  2.296E-04 0.000E+00

     add environment contribution to local potential

     total cpu time spent up to now is       76.4 secs

     total energy              =     -34.26852824 Ry
     Harris-Foulkes estimate   =     -34.26852826 Ry
     estimated scf accuracy    <       0.00000021 Ry

     iteration #  2     ecut=    30.00 Ry     beta=0.40
     CG style diagonalization
     ethr =  2.59E-09,  avg # of iterations =  3.0

     negative rho (up, down):  2.173E-04 0.000E+00

     add environment contribution to local potential

     total cpu time spent up to now is       78.5 secs

     total energy              =     -34.26852824 Ry
     Harris-Foulkes estimate   =     -34.26852824 Ry
     estimated scf accuracy    <       0.00000006 Ry

     iteration #  3     ecut=    30.00 Ry     beta=0.40
     CG style diagonalization
     ethr =  8.11E-10,  avg # of iterations =  3.0

     negative rho (up, down):  2.159E-04 0.000E+00

     add environment contribution to local potential

     total cpu time spent up to now is       80.6 secs

     total energy              =     -34.26852824 Ry
     Harris-Foulkes estimate   =     -34.26852825 Ry
     estimated scf accuracy    <          1.7E-09 Ry

     iteration #  4     ecut=    30.00 Ry     beta=0.40
     CG style diagonalization
     ethr =  2.08E-11,  avg # of iterations =  4.0

     negative rho (up, down):  2.153E-04 0.000E+00

     add environment contribution to local potential

     total cpu time spent up to now is       83.1 secs

     total energy              =     -34.26852824 Ry
     Harris-Foulkes estimate   =     -34.26852824 Ry
     estimated scf accuracy    <          4.2E-10 Ry

     iteration #  5     ecut=    30.00 Ry     beta=0.40
     CG style diagonalization
     ethr =  5.24E-12,  avg # of iterations =  3.5

     negative rho (up, down):  2.149E-04 0.000E+00

     total cpu time spent up to now is       85.1 secs

     End of self-consistent calculation

          k = 0.0000 0.0000 0.0000 ( 22119 PWs)   bands (ev):

   -25.1640 -13.0270  -9.1180  -7.1158

     occupation numbers 
     1.0000   1.0000   1.0000   1.0000

     highest occupied level (ev):    -7.1158

!    total energy              =     -34.26852823 Ry
     Harris-Foulkes estimate   =     -34.26852824 Ry
     estimated scf accuracy    <          3.6E-11 Ry

     The total energy is the sum of the following terms:

     one-electron contribution =     -63.94887198 Ry
     hartree contribution      =      33.41947863 Ry
     xc contribution           =      -8.39918368 Ry
     ewald contribution        =       4.66004879 Ry

     charge density inside the Wigner-Seitz cell:    8.00000000

     reference position (x0):        11.84442124   11.76891043   11.50000000 bohr

     Dipole moments (with respect to x0):
     Elect   0.1387  -0.7158   0.0000 au (Ha),   0.3526  -1.8195   0.0000 Debye
     Ionic   0.0000   0.0000   0.0000 au (Ha),   0.0000   0.0000   0.0000 Debye
     Total   0.1387  -0.7158   0.0000 au (Ha),   0.3526  -1.8195   0.0000 Debye

     Electrons quadrupole moment        -20.29862523 a.u. (Ha)
          Ions quadrupole moment          6.15692761 a.u. (Ha)
         Total quadrupole moment        -14.14169762 a.u. (Ha)

     *********    MAKOV-PAYNE CORRECTION    *********

     Makov-Payne correction with Madelung constant =   2.8373

     Makov-Payne correction     0.00000000 Ry =  0.000 eV (1st order, 1/a0)
                                0.00027839 Ry =  0.004 eV (2nd order, 1/a0^3)
                                0.00027839 Ry =  0.004 eV (total)

!    Total+Makov-Payne energy  =     -34.26824985 Ry

     convergence has been achieved in   5 iterations

     Forces acting on atoms (Ry/au):

     The global environment contribution to forces
     atom    1 type  2   force =     0.00000000    0.00000000    0.00000000
     atom    2 type  1   force =     0.00000000    0.00000000    0.00000000
     atom    3 type  1   force =     0.00000000    0.00000000    0.00000000
 
     atom    1 type  2   force =    -0.00001450    0.00057696    0.00000000
     atom    2 type  1   force =    -0.00102591   -0.00046288    0.00000000
     atom    3 type  1   force =     0.00104041   -0.00011408    0.00000000
     The non-local contrib.  to forces
     atom    1 type  2   force =     0.47523474   -2.45219220    0.00000000
     atom    2 type  1   force =    -0.18018372    0.08127596    0.00000000
     atom    3 type  1   force =     0.13679118    0.14269642    0.00000000
     The ionic contribution  to forces
     atom    1 type  2   force =    -0.81644534    4.21547628    0.00000000
     atom    2 type  1   force =     3.37977899   -1.53197331    0.00000000
     atom    3 type  1   force =    -2.56333365   -2.68350297    0.00000000
     The local contribution  to forces
     atom    1 type  2   force =     0.34123823   -1.76269121    0.00000000
     atom    2 type  1   force =    -3.20057840    1.45024867    0.00000000
     atom    3 type  1   force =     2.42762693    2.54070681    0.00000000
     The core correction contribution to forces
     atom    1 type  2   force =     0.00000000    0.00000000    0.00000000
     atom    2 type  1   force =     0.00000000    0.00000000    0.00000000
     atom    3 type  1   force =     0.00000000    0.00000000    0.00000000
     The Hubbard contrib.    to forces
     atom    1 type  2   force =     0.00000000    0.00000000    0.00000000
     atom    2 type  1   force =     0.00000000    0.00000000    0.00000000
     atom    3 type  1   force =     0.00000000    0.00000000    0.00000000
     The SCF correction term to forces
     atom    1 type  2   force =     0.00000120   -0.00000144    0.00000000
     atom    2 type  1   force =     0.00000053    0.00000028    0.00000000
     atom    3 type  1   force =    -0.00000074    0.00000013    0.00000000

     Total force =     0.001642     Total SCF correction =     0.000002

     number of scf cycles    =   4
     number of bfgs steps    =   3

     energy   old            =     -34.2685231283 Ry
     energy   new            =     -34.2685282348 Ry

     CASE: energy  _new < energy  _old

     new trust radius        =       0.0023823793 bohr
     new conv_thr            =            5.0E-11 Ry


ATOMIC_POSITIONS (bohr)
O       11.790952069  12.045917154  11.500000000
H       13.436730301  11.219568086  11.500000000
H       10.572317630  10.664514760  11.500000000



     Writing output data file h2o_vacuum.save
     Check: negative starting charge=   -0.000776
     NEW-OLD atomic charge density approx. for the potential
     Check: negative starting charge=   -0.000776

     negative rho (up, down):  2.677E-04 0.000E+00

     add environment contribution to local potential

     total cpu time spent up to now is       91.3 secs

     per-process dynamical memory:   161.1 Mb

     Self-consistent Calculation

     iteration #  1     ecut=    30.00 Ry     beta=0.40
     CG style diagonalization
     ethr =  1.00E-06,  avg # of iterations =  3.8

     Threshold (ethr) on eigenvalues was too large:
     Diagonalizing with lowered threshold

     CG style diagonalization
     ethr =  5.07E-09,  avg # of iterations =  4.2

     negative rho (up, down):  2.407E-04 0.000E+00

     add environment contribution to local potential

     total cpu time spent up to now is       94.4 secs

     total energy              =     -34.26853206 Ry
     Harris-Foulkes estimate   =     -34.26853219 Ry
     estimated scf accuracy    <       0.00000057 Ry

     iteration #  2     ecut=    30.00 Ry     beta=0.40
     CG style diagonalization
     ethr =  7.09E-09,  avg # of iterations =  3.0

     negative rho (up, down):  2.227E-04 0.000E+00

     add environment contribution to local potential

     total cpu time spent up to now is       96.5 secs

     total energy              =     -34.26853206 Ry
     Harris-Foulkes estimate   =     -34.26853208 Ry
     estimated scf accuracy    <       0.00000014 Ry

     iteration #  3     ecut=    30.00 Ry     beta=0.40
     CG style diagonalization
     ethr =  1.72E-09,  avg # of iterations =  3.0

     negative rho (up, down):  2.169E-04 0.000E+00

     add environment contribution to local potential

     total cpu time spent up to now is       98.5 secs

     total energy              =     -34.26853207 Ry
     Harris-Foulkes estimate   =     -34.26853207 Ry
     estimated scf accuracy    <       0.00000001 Ry

     iteration #  4     ecut=    30.00 Ry     beta=0.40
     CG style diagonalization
     ethr =  1.52E-10,  avg # of iterations =  3.2

     negative rho (up, down):  2.155E-04 0.000E+00

     add environment contribution to local potential

     total cpu time spent up to now is      100.6 secs

     total energy              =     -34.26853207 Ry
     Harris-Foulkes estimate   =     -34.26853207 Ry
     estimated scf accuracy    <          9.4E-10 Ry

     iteration #  5     ecut=    30.00 Ry     beta=0.40
     CG style diagonalization
     ethr =  1.18E-11,  avg # of iterations =  4.0

     negative rho (up, down):  2.152E-04 0.000E+00

     add environment contribution to local potential

     total cpu time spent up to now is      102.6 secs

     total energy              =     -34.26853207 Ry
     Harris-Foulkes estimate   =     -34.26853207 Ry
     estimated scf accuracy    <          4.7E-10 Ry

     iteration #  6     ecut=    30.00 Ry     beta=0.40
     CG style diagonalization
     ethr =  5.93E-12,  avg # of iterations =  4.0

     negative rho (up, down):  2.150E-04 0.000E+00

     total cpu time spent up to now is      104.5 secs

     End of self-consistent calculation

          k = 0.0000 0.0000 0.0000 ( 22119 PWs)   bands (ev):

   -25.1691 -13.0182  -9.1282  -7.1171

     occupation numbers 
     1.0000   1.0000   1.0000   1.0000

     highest occupied level (ev):    -7.1171

!    total energy              =     -34.26853207 Ry
     Harris-Foulkes estimate   =     -34.26853207 Ry
     estimated scf accuracy    <          3.8E-11 Ry

     The total energy is the sum of the following terms:

     one-electron contribution =     -63.95226842 Ry
     hartree contribution      =      33.42071169 Ry
     xc contribution           =      -8.39939726 Ry
     ewald contribution        =       4.66242192 Ry

     charge density inside the Wigner-Seitz cell:    8.00000000

     reference position (x0):        11.84434504   11.76994822   11.50000000 bohr

     Dipole moments (with respect to x0):
     Elect   0.1388  -0.7170   0.0000 au (Ha),   0.3528  -1.8225   0.0000 Debye
     Ionic   0.0000   0.0000   0.0000 au (Ha),   0.0000   0.0000   0.0000 Debye
     Total   0.1388  -0.7170   0.0000 au (Ha),   0.3528  -1.8225   0.0000 Debye

     Electrons quadrupole moment        -20.29622264 a.u. (Ha)
          Ions quadrupole moment          6.15270395 a.u. (Ha)
         Total quadrupole moment        -14.14351869 a.u. (Ha)

     *********    MAKOV-PAYNE CORRECTION    *********

     Makov-Payne correction with Madelung constant =   2.8373

     Makov-Payne correction     0.00000000 Ry =  0.000 eV (1st order, 1/a0)
                                0.00027929 Ry =  0.004 eV (2nd order, 1/a0^3)
                                0.00027929 Ry =  0.004 eV (total)

!    Total+Makov-Payne energy  =     -34.26825278 Ry

     convergence has been achieved in   6 iterations

     Forces acting on atoms (Ry/au):

     The global environment contribution to forces
     atom    1 type  2   force =     0.00000000    0.00000000    0.00000000
     atom    2 type  1   force =     0.00000000    0.00000000    0.00000000
     atom    3 type  1   force =     0.00000000    0.00000000    0.00000000
 
     atom    1 type  2   force =    -0.00038172    0.00008462    0.00000000
     atom    2 type  1   force =    -0.00011019   -0.00025031    0.00000000
     atom    3 type  1   force =     0.00049191    0.00016568    0.00000000
     The non-local contrib.  to forces
     atom    1 type  2   force =     0.47570660   -2.45500856    0.00000000
     atom    2 type  1   force =    -0.18012724    0.08174338    0.00000000
     atom    3 type  1   force =     0.13646992    0.14295898    0.00000000
     The ionic contribution  to forces
     atom    1 type  2   force =    -0.81976855    4.22589876    0.00000000
     atom    2 type  1   force =     3.37911051   -1.53847550    0.00000000
     atom    3 type  1   force =    -2.55934195   -2.68742327    0.00000000
     The local contribution  to forces
     atom    1 type  2   force =     0.34372148   -1.77079103    0.00000000
     atom    2 type  1   force =    -3.19905333    1.45649428    0.00000000
     atom    3 type  1   force =     2.42340308    2.54464221    0.00000000
     The core correction contribution to forces
     atom    1 type  2   force =     0.00000000    0.00000000    0.00000000
     atom    2 type  1   force =     0.00000000    0.00000000    0.00000000
     atom    3 type  1   force =     0.00000000    0.00000000    0.00000000
     The Hubbard contrib.    to forces
     atom    1 type  2   force =     0.00000000    0.00000000    0.00000000
     atom    2 type  1   force =     0.00000000    0.00000000    0.00000000
     atom    3 type  1   force =     0.00000000    0.00000000    0.00000000
     The SCF correction term to forces
     atom    1 type  2   force =    -0.00000194   -0.00000145    0.00000000
     atom    2 type  1   force =    -0.00000082    0.00000064    0.00000000
     atom    3 type  1   force =     0.00000017    0.00000086    0.00000000

     Total force =     0.000705     Total SCF correction =     0.000003

     bfgs converged in   5 scf cycles and   4 bfgs steps
     (criteria: energy <  1.0E-04, force <  1.0E-03)

     End of BFGS Geometry Optimization

     Final energy   =     -34.2685320654 Ry
Begin final coordinates

ATOMIC_POSITIONS (bohr)
O       11.790952069  12.045917154  11.500000000
H       13.436730301  11.219568086  11.500000000
H       10.572317630  10.664514760  11.500000000
End final coordinates



     Writing output data file h2o_vacuum.save
 
     init_run     :      1.55s CPU      2.08s WALL (       1 calls)
     electrons    :     58.93s CPU     83.96s WALL (       5 calls)
     update_pot   :      3.15s CPU      8.33s WALL (       4 calls)
     forces       :      2.87s CPU      4.26s WALL (       5 calls)

     Called by init_run:
     wfcinit      :      0.06s CPU      0.08s WALL (       1 calls)
     potinit      :      0.69s CPU      0.82s WALL (       1 calls)

     Called by electrons:
     c_bands      :      5.79s CPU      5.87s WALL (      38 calls)
     sum_band     :     22.62s CPU     31.55s WALL (      38 calls)
     v_of_rho     :     17.87s CPU     20.73s WALL (      41 calls)
     v_h          :      1.74s CPU      2.07s WALL (      41 calls)
     v_xc         :     16.13s CPU     18.66s WALL (      41 calls)
     newd         :      9.59s CPU     17.85s WALL (      41 calls)
     mix_rho      :      3.18s CPU      3.23s WALL (      38 calls)

     Called by c_bands:
     init_us_2    :      0.17s CPU      0.17s WALL (      77 calls)
     ccgdiagg     :      4.32s CPU      4.37s WALL (      38 calls)
     wfcrot       :      1.44s CPU      1.46s WALL (      38 calls)

     Called by sum_band:
     sum_band:bec :      0.00s CPU      0.00s WALL (      38 calls)
     addusdens    :     15.44s CPU     24.02s WALL (      38 calls)

     Called by *cgdiagg:
     h_psi        :      5.39s CPU      5.45s WALL (     459 calls)
     s_psi        :      0.10s CPU      0.10s WALL (     880 calls)
     cdiaghg      :      0.00s CPU      0.00s WALL (      38 calls)

     Called by h_psi:
     h_psi:vloc   :      5.04s CPU      5.10s WALL (     459 calls)
     h_psi:vnl    :      0.33s CPU      0.33s WALL (     459 calls)
     add_vuspsi   :      0.08s CPU      0.08s WALL (     459 calls)

     General routines
     calbec       :      0.33s CPU      0.34s WALL (     938 calls)
     fft          :     20.75s CPU     23.10s WALL (     658 calls)
     ffts         :      0.40s CPU      0.41s WALL (      79 calls)
     fftw         :      4.37s CPU      4.43s WALL (    1302 calls)
     interpolate  :      3.34s CPU      3.64s WALL (      79 calls)
     davcio       :      0.00s CPU      0.00s WALL (       5 calls)
 
     Parallel routines
     fft_scatter  :     12.26s CPU     13.84s WALL (    2039 calls)
 
     Environ routines
 
     PWSCF        :  1m 8.40s CPU     1m48.36s WALL

 
   This run was terminated on:  14:24:13  26May2015            

=------------------------------------------------------------------------------=
   JOB DONE.
=------------------------------------------------------------------------------=
