
     Program PWSCF v.6.1 (svn rev. 13369) starts on 25Jan2018 at 23:27:27 

     This program is part of the open-source Quantum ESPRESSO suite
     for quantum simulation of materials; please cite
         "P. Giannozzi et al., J. Phys.:Condens. Matter 21 395502 (2009);
          URL http://www.quantum-espresso.org", 
     in publications or presentations arising from this work. More details at
     http://www.quantum-espresso.org/quote

     Parallel version (MPI), running on     1 processors
     Waiting for input...
     Reading input from standard input

     Current dimensions of program PWSCF are:
     Max number of different atomic species (ntypx) = 10
     Max number of k-points (npk) =  40000
     Max angular momentum in pseudopotentials (lmaxx) =  3
               file H.pbe-rrkjus.UPF: wavefunction(s)  1S renormalized
               file O.pbe-rrkjus.UPF: wavefunction(s)  2S renormalized

     Subspace diagonalization in iterative solution of the eigenvalue problem:
     a serial algorithm will be used

 
     G-vector sticks info
     --------------------
     sticks:   dense  smooth     PW     G-vecs:    dense   smooth      PW
     Sum        9549    3809    949               701475   177509   22119
 


     bravais-lattice index     =            1
     lattice parameter (alat)  =      20.0000  a.u.
     unit-cell volume          =    8000.0000 (a.u.)^3
     number of atoms/cell      =            3
     number of atomic types    =            2
     number of electrons       =         8.00
     number of Kohn-Sham states=            4
     kinetic-energy cutoff     =      30.0000  Ry
     charge density cutoff     =     300.0000  Ry
     convergence threshold     =      5.0E-09
     mixing beta               =       0.4000
     number of iterations used =            8  plain     mixing
     Exchange-correlation      =  SLA  PW   PBE  PBE ( 1  4  3  4 0 0)
     nstep                     =           50

 

     Environ Module
     ==============

     Plese cite
         O. Andreussi, I. Dabo and N. Marzari, J. Chem. Phys. 136, 064102 (2012)         
     in publications or presentations arising from this work.

     compensation onset threshold      =               0.1000E+00 
     static permittivity               =                    78.30 
     epsilon calculation mode          =               electronic 
     surface tension in input (dyn/cm) =                    50.00 
     surface tension in internal units =               0.6423E-04 
     external pressure in input (GPa)  =                    -0.35 
     external pressure in inter. units =              -0.2379E-04 

     Electrostatic Setup
     -------------------
     electrostatic problem to solve    = generalized              
     numerical solver adopted          = iterative                
     type of auxiliary density adopted = full                     
     type of core tool for poisson     = fft                      
     type of core tool for s(r) deriv  = analytic                 



     celldm(1)=  20.000000  celldm(2)=   0.000000  celldm(3)=   0.000000
     celldm(4)=   0.000000  celldm(5)=   0.000000  celldm(6)=   0.000000

     crystal axes: (cart. coord. in units of alat)
               a(1) = (   1.000000   0.000000   0.000000 )  
               a(2) = (   0.000000   1.000000   0.000000 )  
               a(3) = (   0.000000   0.000000   1.000000 )  

     reciprocal axes: (cart. coord. in units 2 pi/alat)
               b(1) = (  1.000000  0.000000  0.000000 )  
               b(2) = (  0.000000  1.000000  0.000000 )  
               b(3) = (  0.000000  0.000000  1.000000 )  


     PseudoPot. # 1 for H  read from file:
     /home/fnattino/Programs/qe-6.1/pseudo/H.pbe-rrkjus.UPF
     MD5 check sum: 7cc9d459525c9a0585f487a71c3c9563
     Pseudo is Ultrasoft, Zval =  1.0
     Generated by new atomic code, or converted to UPF format
     Using radial grid of 1061 points,  2 beta functions with: 
                l(1) =   0
                l(2) =   0
     Q(r) pseudized with 0 coefficients 


     PseudoPot. # 2 for O  read from file:
     /home/fnattino/Programs/qe-6.1/pseudo/O.pbe-rrkjus.UPF
     MD5 check sum: 390ba29e75625707450f3bd3f0eb6be9
     Pseudo is Ultrasoft, Zval =  6.0
     Generated by new atomic code, or converted to UPF format
     Using radial grid of 1269 points,  4 beta functions with: 
                l(1) =   0
                l(2) =   0
                l(3) =   1
                l(4) =   1
     Q(r) pseudized with 0 coefficients 


     atomic species   valence    mass     pseudopotential
        H              1.00     1.00000     H ( 1.00)
        O              6.00    16.00000     O ( 1.00)

     No symmetry found


                                    s                        frac. trans.

      isym =  1     identity                                     

 cryst.   s( 1) = (     1          0          0      )
                  (     0          1          0      )
                  (     0          0          1      )

 cart.    s( 1) = (  1.0000000  0.0000000  0.0000000 )
                  (  0.0000000  1.0000000  0.0000000 )
                  (  0.0000000  0.0000000  1.0000000 )


     point group C_1 (1)    
     there are  1 classes
     the character table:

       E    
A      1.00

     the symmetry operations in each class and the name of the first element:

     E        1
          identity                                               

   Cartesian axes

     site n.     atom                  positions (alat units)
         1           O   tau(   1) = (   0.5895000   0.6025000   0.5750000  )
         2           H   tau(   2) = (   0.6725000   0.5610000   0.5750000  )
         3           H   tau(   3) = (   0.5280000   0.5330000   0.5750000  )

   Crystallographic axes

     site n.     atom                  positions (cryst. coord.)
         1           O   tau(   1) = (  0.5895000  0.6025000  0.5750000  )
         2           H   tau(   2) = (  0.6725000  0.5610000  0.5750000  )
         3           H   tau(   3) = (  0.5280000  0.5330000  0.5750000  )

     number of k points=     1
                       cart. coord. in units 2pi/alat
        k(    1) = (   0.0000000   0.0000000   0.0000000), wk =   2.0000000

                       cryst. coord.
        k(    1) = (   0.0000000   0.0000000   0.0000000), wk =   2.0000000

     Dense  grid:   701475 G-vectors     FFT dimensions: ( 120, 120, 120)

     Smooth grid:   177509 G-vectors     FFT dimensions: (  72,  72,  72)

     Estimated max dynamical RAM per process >     411.75MB

     Initial potential from superposition of free atoms
     Check: negative starting charge=   -0.000775

     starting charge    7.80759, renormalised to    8.00000

     negative rho (up, down):  7.936E-04 0.000E+00
     Starting wfc are    6 randomized atomic wfcs

     total cpu time spent up to now is        3.3 secs

     per-process dynamical memory:   696.5 Mb

     Self-consistent Calculation

     iteration #  1     ecut=    30.00 Ry     beta=0.40
     CG style diagonalization
     ethr =  1.00E-02,  avg # of iterations =  3.0

     negative rho (up, down):  4.642E-04 0.000E+00

     total cpu time spent up to now is        5.5 secs

     total energy              =     -34.21342767 Ry
     Harris-Foulkes estimate   =     -34.58548901 Ry
     estimated scf accuracy    <       0.67771187 Ry
     electrostatic embedding   =       0.00000000 Ry
     cavitation energy         =       0.02808377 Ry
     PV energy                 =      -0.02154747 Ry
     correction to one-el term =       0.00000000 Ry

     iteration #  2     ecut=    30.00 Ry     beta=0.40
     CG style diagonalization
     ethr =  8.47E-03,  avg # of iterations =  3.8

     negative rho (up, down):  2.934E-04 0.000E+00

     add environment contribution to local potential

     total cpu time spent up to now is       18.0 secs

     total energy              =     -34.27054087 Ry
     Harris-Foulkes estimate   =     -34.31757621 Ry
     estimated scf accuracy    <       0.09820248 Ry
     electrostatic embedding   =       0.00000000 Ry
     cavitation energy         =       0.01921142 Ry
     PV energy                 =      -0.01199462 Ry
     correction to one-el term =       0.00000000 Ry

     iteration #  3     ecut=    30.00 Ry     beta=0.40
     CG style diagonalization
     ethr =  1.23E-03,  avg # of iterations =  3.5

     negative rho (up, down):  7.485E-04 0.000E+00

     add environment contribution to local potential

     total cpu time spent up to now is       30.4 secs

     total energy              =     -34.27916502 Ry
     Harris-Foulkes estimate   =     -33.85202667 Ry
     estimated scf accuracy    <       0.02803416 Ry
     electrostatic embedding   =      -0.02799302 Ry
     cavitation energy         =       0.01556425 Ry
     PV energy                 =      -0.00852554 Ry
     correction to one-el term =      -0.42216232 Ry

     iteration #  4     ecut=    30.00 Ry     beta=0.40
     CG style diagonalization
     ethr =  3.50E-04,  avg # of iterations =  3.5

     negative rho (up, down):  5.464E-04 0.000E+00

     add environment contribution to local potential

     total cpu time spent up to now is       41.7 secs

     total energy              =     -34.28727362 Ry
     Harris-Foulkes estimate   =     -34.16306359 Ry
     estimated scf accuracy    <       0.00221091 Ry
     electrostatic embedding   =      -0.02767035 Ry
     cavitation energy         =       0.01365497 Ry
     PV energy                 =      -0.00694393 Ry
     correction to one-el term =      -0.10402698 Ry

     iteration #  5     ecut=    30.00 Ry     beta=0.40
     CG style diagonalization
     ethr =  2.76E-05,  avg # of iterations =  4.0

     negative rho (up, down):  1.120E-03 0.000E+00

     add environment contribution to local potential

     total cpu time spent up to now is       52.7 secs

     total energy              =     -34.28821637 Ry
     Harris-Foulkes estimate   =     -34.20757658 Ry
     estimated scf accuracy    <       0.00036857 Ry
     electrostatic embedding   =      -0.03114540 Ry
     cavitation energy         =       0.01376176 Ry
     PV energy                 =      -0.00702845 Ry
     correction to one-el term =      -0.05632726 Ry

     iteration #  6     ecut=    30.00 Ry     beta=0.40
     CG style diagonalization
     ethr =  4.61E-06,  avg # of iterations =  4.0

     negative rho (up, down):  5.621E-04 0.000E+00

     add environment contribution to local potential

     total cpu time spent up to now is       62.9 secs

     total energy              =     -34.28841670 Ry
     Harris-Foulkes estimate   =     -34.23747760 Ry
     estimated scf accuracy    <       0.00002672 Ry
     electrostatic embedding   =      -0.03311148 Ry
     cavitation energy         =       0.01368310 Ry
     PV energy                 =      -0.00696874 Ry
     correction to one-el term =      -0.02455631 Ry

     iteration #  7     ecut=    30.00 Ry     beta=0.40
     CG style diagonalization
     ethr =  3.34E-07,  avg # of iterations =  4.0

     negative rho (up, down):  2.848E-04 0.000E+00

     add environment contribution to local potential

     total cpu time spent up to now is       72.5 secs

     total energy              =     -34.28843934 Ry
     Harris-Foulkes estimate   =     -34.23115861 Ry
     estimated scf accuracy    <       0.00000551 Ry
     electrostatic embedding   =      -0.03426681 Ry
     cavitation energy         =       0.01373758 Ry
     PV energy                 =      -0.00701285 Ry
     correction to one-el term =      -0.02974334 Ry

     iteration #  8     ecut=    30.00 Ry     beta=0.40
     CG style diagonalization
     ethr =  6.89E-08,  avg # of iterations =  4.0

     negative rho (up, down):  2.411E-04 0.000E+00

     add environment contribution to local potential

     total cpu time spent up to now is       81.5 secs

     total energy              =     -34.28844106 Ry
     Harris-Foulkes estimate   =     -34.22987315 Ry
     estimated scf accuracy    <       0.00000158 Ry
     electrostatic embedding   =      -0.03408109 Ry
     cavitation energy         =       0.01371460 Ry
     PV energy                 =      -0.00699550 Ry
     correction to one-el term =      -0.03120683 Ry

     iteration #  9     ecut=    30.00 Ry     beta=0.40
     CG style diagonalization
     ethr =  1.98E-08,  avg # of iterations =  4.0

     negative rho (up, down):  2.243E-04 0.000E+00

     add environment contribution to local potential

     total cpu time spent up to now is       90.6 secs

     total energy              =     -34.28844266 Ry
     Harris-Foulkes estimate   =     -34.22892458 Ry
     estimated scf accuracy    <       0.00000026 Ry
     electrostatic embedding   =      -0.03430978 Ry
     cavitation energy         =       0.01372140 Ry
     PV energy                 =      -0.00700115 Ry
     correction to one-el term =      -0.03192874 Ry

     iteration # 10     ecut=    30.00 Ry     beta=0.40
     CG style diagonalization
     ethr =  3.24E-09,  avg # of iterations =  4.0

     negative rho (up, down):  2.156E-04 0.000E+00

     add environment contribution to local potential

     total cpu time spent up to now is       98.3 secs

     total energy              =     -34.28844309 Ry
     Harris-Foulkes estimate   =     -34.22836914 Ry
     estimated scf accuracy    <       0.00000002 Ry
     electrostatic embedding   =      -0.03443043 Ry
     cavitation energy         =       0.01371882 Ry
     PV energy                 =      -0.00699946 Ry
     correction to one-el term =      -0.03236291 Ry

     iteration # 11     ecut=    30.00 Ry     beta=0.40
     CG style diagonalization
     ethr =  1.94E-10,  avg # of iterations =  4.2

     negative rho (up, down):  2.124E-04 0.000E+00

     total cpu time spent up to now is      100.3 secs

     End of self-consistent calculation

          k = 0.0000 0.0000 0.0000 ( 22119 PWs)   bands (ev):

   -24.6753 -12.4430  -8.8789  -6.9125

     occupation numbers 
     1.0000   1.0000   1.0000   1.0000

     highest occupied level (ev):    -6.9125

!    total energy              =     -34.28844308 Ry
     Harris-Foulkes estimate   =     -34.22820319 Ry
     estimated scf accuracy    <          4.9E-10 Ry

     The total energy is the sum of the following terms:

     one-electron contribution =     -63.88226395 Ry
     hartree contribution      =      33.50185738 Ry
     xc contribution           =      -8.40515431 Ry
     ewald contribution        =       4.55735774 Ry
     electrostatic embedding   =      -0.03445702 Ry
     cavitation energy         =       0.01371859 Ry
     PV energy                 =      -0.00699935 Ry
     correction to one-el term =      -0.03250216 Ry

     convergence has been achieved in  11 iterations
     The global environment contribution to forces
     atom    1 type  2   force =     0.04903648   -0.25378538    0.00000000
     atom    2 type  1   force =     0.03954046   -0.03946443    0.00000001
     atom    3 type  1   force =    -0.02200157   -0.05128592   -0.00000000
 

     Forces acting on atoms (cartesian axes, Ry/au):

     atom    1 type  2   force =     0.00230154   -0.01218973    0.00000001
     atom    2 type  1   force =    -0.01036555    0.00427153   -0.00000000
     atom    3 type  1   force =     0.00806401    0.00791820   -0.00000001
     The non-local contrib.  to forces
     atom    1 type  2   force =     0.43428851   -2.24094043    0.00000000
     atom    2 type  1   force =    -0.18031334    0.08317153   -0.00000000
     atom    3 type  1   force =     0.13617609    0.14446163    0.00000000
     The ionic contribution  to forces
     atom    1 type  2   force =    -0.80474894    4.15284562   -0.00000000
     atom    2 type  1   force =     3.32883149   -1.50955609    0.00000000
     atom    3 type  1   force =    -2.52408255   -2.64328953    0.00000000
     The local contribution  to forces
     atom    1 type  2   force =     0.32374607   -1.67033767   -0.00000004
     atom    2 type  1   force =    -3.19841735    1.47015933   -0.00000001
     atom    3 type  1   force =     2.41798093    2.55807078   -0.00000000
     The core correction contribution to forces
     atom    1 type  2   force =     0.00000000    0.00000000    0.00000000
     atom    2 type  1   force =     0.00000000    0.00000000    0.00000000
     atom    3 type  1   force =     0.00000000    0.00000000    0.00000000
     The Hubbard contrib.    to forces
     atom    1 type  2   force =     0.00000000    0.00000000    0.00000000
     atom    2 type  1   force =     0.00000000    0.00000000    0.00000000
     atom    3 type  1   force =     0.00000000    0.00000000    0.00000000
     The SCF correction term to forces
     atom    1 type  2   force =    -0.00001272    0.00006714    0.00000004
     atom    2 type  1   force =     0.00000104    0.00000021    0.00000000
     atom    3 type  1   force =    -0.00000102    0.00000026   -0.00000000

     Total force =     0.020182     Total SCF correction =     0.000068

     BFGS Geometry Optimization

     number of scf cycles    =   1
     number of bfgs steps    =   0

     energy   new            =     -34.2884430779 Ry

     new trust radius        =       0.0124050994 bohr
     new conv_thr            =       0.0000000050 Ry


ATOMIC_POSITIONS (bohr)
O       11.792301539  12.037810274  11.500000007
H       13.439634450  11.224271528  11.499999999
H       10.568064011  10.667918198  11.499999994



     Writing output data file h2o_water_iterative.save
     Check: negative starting charge=   -0.000775
     NEW-OLD atomic charge density approx. for the potential
     Check: negative starting charge=   -0.000776

     negative rho (up, down):  7.005E-04 0.000E+00

     add environment contribution to local potential

     total cpu time spent up to now is      111.5 secs

     per-process dynamical memory:   696.5 Mb

     Self-consistent Calculation

     iteration #  1     ecut=    30.00 Ry     beta=0.40
     CG style diagonalization
     ethr =  1.00E-06,  avg # of iterations =  4.8

     negative rho (up, down):  4.719E-04 0.000E+00

     add environment contribution to local potential

     total cpu time spent up to now is      121.4 secs

     total energy              =     -34.28843457 Ry
     Harris-Foulkes estimate   =     -34.22553641 Ry
     estimated scf accuracy    <       0.00034441 Ry
     electrostatic embedding   =      -0.03412981 Ry
     cavitation energy         =       0.01368994 Ry
     PV energy                 =      -0.00697915 Ry
     correction to one-el term =      -0.03565314 Ry

     iteration #  2     ecut=    30.00 Ry     beta=0.40
     CG style diagonalization
     ethr =  4.31E-06,  avg # of iterations =  4.0

     negative rho (up, down):  3.574E-04 0.000E+00

     add environment contribution to local potential

     total cpu time spent up to now is      130.2 secs

     total energy              =     -34.28850216 Ry
     Harris-Foulkes estimate   =     -34.22553505 Ry
     estimated scf accuracy    <       0.00001860 Ry
     electrostatic embedding   =      -0.03428753 Ry
     cavitation energy         =       0.01365679 Ry
     PV energy                 =      -0.00695345 Ry
     correction to one-el term =      -0.03538927 Ry

     iteration #  3     ecut=    30.00 Ry     beta=0.40
     CG style diagonalization
     ethr =  2.33E-07,  avg # of iterations =  4.0

     negative rho (up, down):  2.501E-04 0.000E+00

     add environment contribution to local potential

     total cpu time spent up to now is      138.9 secs

     total energy              =     -34.28850385 Ry
     Harris-Foulkes estimate   =     -34.22512112 Ry
     estimated scf accuracy    <       0.00000444 Ry
     electrostatic embedding   =      -0.03420333 Ry
     cavitation energy         =       0.01366353 Ry
     PV energy                 =      -0.00695840 Ry
     correction to one-el term =      -0.03588629 Ry

     iteration #  4     ecut=    30.00 Ry     beta=0.40
     CG style diagonalization
     ethr =  5.55E-08,  avg # of iterations =  4.0

     negative rho (up, down):  2.303E-04 0.000E+00

     add environment contribution to local potential

     total cpu time spent up to now is      146.3 secs

     total energy              =     -34.28850469 Ry
     Harris-Foulkes estimate   =     -34.22465870 Ry
     estimated scf accuracy    <       0.00000027 Ry
     electrostatic embedding   =      -0.03415063 Ry
     cavitation energy         =       0.01366597 Ry
     PV energy                 =      -0.00695996 Ry
     correction to one-el term =      -0.03640142 Ry

     iteration #  5     ecut=    30.00 Ry     beta=0.40
     CG style diagonalization
     ethr =  3.38E-09,  avg # of iterations =  4.0

     negative rho (up, down):  2.180E-04 0.000E+00

     add environment contribution to local potential

     total cpu time spent up to now is      153.4 secs

     total energy              =     -34.28850481 Ry
     Harris-Foulkes estimate   =     -34.22459146 Ry
     estimated scf accuracy    <       0.00000003 Ry
     electrostatic embedding   =      -0.03415994 Ry
     cavitation energy         =       0.01366792 Ry
     PV energy                 =      -0.00696141 Ry
     correction to one-el term =      -0.03645990 Ry

     iteration #  6     ecut=    30.00 Ry     beta=0.40
     CG style diagonalization
     ethr =  3.35E-10,  avg # of iterations =  3.2

     negative rho (up, down):  2.136E-04 0.000E+00

     total cpu time spent up to now is      155.4 secs

     End of self-consistent calculation

          k = 0.0000 0.0000 0.0000 ( 22119 PWs)   bands (ev):

   -24.7746 -12.5633  -8.8728  -6.9331

     occupation numbers 
     1.0000   1.0000   1.0000   1.0000

     highest occupied level (ev):    -6.9331

!    total energy              =     -34.28850486 Ry
     Harris-Foulkes estimate   =     -34.22452180 Ry
     estimated scf accuracy    <          2.9E-09 Ry

     The total energy is the sum of the following terms:

     one-electron contribution =     -64.10034456 Ry
     hartree contribution      =      33.60542643 Ry
     xc contribution           =      -8.42288428 Ry
     ewald contribution        =       4.69328053 Ry
     electrostatic embedding   =      -0.03416454 Ry
     cavitation energy         =       0.01366896 Ry
     PV energy                 =      -0.00696214 Ry
     correction to one-el term =      -0.03652527 Ry

     convergence has been achieved in   6 iterations
     The global environment contribution to forces
     atom    1 type  2   force =     0.04896344   -0.25335236   -0.00000000
     atom    2 type  1   force =     0.03951733   -0.03920438   -0.00000000
     atom    3 type  1   force =    -0.02206644   -0.05103344   -0.00000000
 

     Forces acting on atoms (cartesian axes, Ry/au):

     atom    1 type  2   force =    -0.00186361    0.01038034    0.00000000
     atom    2 type  1   force =     0.00595267   -0.00419549   -0.00000000
     atom    3 type  1   force =    -0.00408905   -0.00618486   -0.00000000
     The non-local contrib.  to forces
     atom    1 type  2   force =     0.43341452   -2.23580939   -0.00000002
     atom    2 type  1   force =    -0.18638000    0.08478999    0.00000000
     atom    3 type  1   force =     0.14123537    0.14827628    0.00000000
     The ionic contribution  to forces
     atom    1 type  2   force =    -0.81559254    4.21143421    0.00000004
     atom    2 type  1   force =     3.40330362   -1.52522019   -0.00000001
     atom    3 type  1   force =    -2.58771108   -2.68621402   -0.00000002
     The local contribution  to forces
     atom    1 type  2   force =     0.33138089   -1.71181846   -0.00000002
     atom    2 type  1   force =    -3.25045608    1.47546959    0.00000001
     atom    3 type  1   force =     2.46449710    2.58281923    0.00000002
     The core correction contribution to forces
     atom    1 type  2   force =     0.00000000    0.00000000    0.00000000
     atom    2 type  1   force =     0.00000000    0.00000000    0.00000000
     atom    3 type  1   force =     0.00000000    0.00000000    0.00000000
     The Hubbard contrib.    to forces
     atom    1 type  2   force =     0.00000000    0.00000000    0.00000000
     atom    2 type  1   force =     0.00000000    0.00000000    0.00000000
     atom    3 type  1   force =     0.00000000    0.00000000    0.00000000
     The SCF correction term to forces
     atom    1 type  2   force =     0.00000963   -0.00004926   -0.00000000
     atom    2 type  1   force =     0.00000735   -0.00000610    0.00000000
     atom    3 type  1   force =    -0.00000444   -0.00000851   -0.00000000

     Total force =     0.014807     Total SCF correction =     0.000052

     number of scf cycles    =   2
     number of bfgs steps    =   1

     energy   old            =     -34.2884430779 Ry
     energy   new            =     -34.2885048615 Ry

     CASE: energy  _new < energy  _old

     new trust radius        =       0.0060428535 bohr
     new conv_thr            =            5.0E-11 Ry


ATOMIC_POSITIONS (bohr)
O       11.791234571  12.043758186  11.500000007
H       13.443019112  11.221862438  11.499999999
H       10.565746317  10.664379376  11.499999994



     Writing output data file h2o_water_iterative.save
     Check: negative starting charge=   -0.000776
     NEW-OLD atomic charge density approx. for the potential
     Check: negative starting charge=   -0.000775

     negative rho (up, down):  2.431E-04 0.000E+00

     add environment contribution to local potential

     total cpu time spent up to now is      165.8 secs

     per-process dynamical memory:   696.5 Mb

     Self-consistent Calculation

     iteration #  1     ecut=    30.00 Ry     beta=0.40
     CG style diagonalization
     ethr =  1.00E-06,  avg # of iterations =  3.8

     negative rho (up, down):  2.166E-04 0.000E+00

     add environment contribution to local potential

     total cpu time spent up to now is      174.8 secs

     total energy              =     -34.28855424 Ry
     Harris-Foulkes estimate   =     -34.22577993 Ry
     estimated scf accuracy    <       0.00006010 Ry
     electrostatic embedding   =      -0.03430239 Ry
     cavitation energy         =       0.01367965 Ry
     PV energy                 =      -0.00696961 Ry
     correction to one-el term =      -0.03521194 Ry

     iteration #  2     ecut=    30.00 Ry     beta=0.40
     CG style diagonalization
     ethr =  7.51E-07,  avg # of iterations =  4.0

     negative rho (up, down):  2.075E-04 0.000E+00

     add environment contribution to local potential

     total cpu time spent up to now is      183.0 secs

     total energy              =     -34.28856652 Ry
     Harris-Foulkes estimate   =     -34.22577370 Ry
     estimated scf accuracy    <       0.00000340 Ry
     electrostatic embedding   =      -0.03423213 Ry
     cavitation energy         =       0.01369324 Ry
     PV energy                 =      -0.00698017 Ry
     correction to one-el term =      -0.03527482 Ry

     iteration #  3     ecut=    30.00 Ry     beta=0.40
     CG style diagonalization
     ethr =  4.25E-08,  avg # of iterations =  4.0

     negative rho (up, down):  2.135E-04 0.000E+00

     add environment contribution to local potential

     total cpu time spent up to now is      191.3 secs

     total energy              =     -34.28856701 Ry
     Harris-Foulkes estimate   =     -34.22592895 Ry
     estimated scf accuracy    <       0.00000081 Ry
     electrostatic embedding   =      -0.03427212 Ry
     cavitation energy         =       0.01369068 Ry
     PV energy                 =      -0.00697828 Ry
     correction to one-el term =      -0.03507849 Ry

     iteration #  4     ecut=    30.00 Ry     beta=0.40
     CG style diagonalization
     ethr =  1.01E-08,  avg # of iterations =  4.0

     negative rho (up, down):  2.118E-04 0.000E+00

     add environment contribution to local potential

     total cpu time spent up to now is      197.8 secs

     total energy              =     -34.28856716 Ry
     Harris-Foulkes estimate   =     -34.22611589 Ry
     estimated scf accuracy    <       0.00000005 Ry
     electrostatic embedding   =      -0.03429925 Ry
     cavitation energy         =       0.01369007 Ry
     PV energy                 =      -0.00697793 Ry
     correction to one-el term =      -0.03486419 Ry

     iteration #  5     ecut=    30.00 Ry     beta=0.40
     CG style diagonalization
     ethr =  6.20E-10,  avg # of iterations =  4.0

     negative rho (up, down):  2.140E-04 0.000E+00

     add environment contribution to local potential

     total cpu time spent up to now is      204.6 secs

     total energy              =     -34.28856718 Ry
     Harris-Foulkes estimate   =     -34.22614185 Ry
     estimated scf accuracy    <          5.1E-09 Ry
     electrostatic embedding   =      -0.03429448 Ry
     cavitation energy         =       0.01368936 Ry
     PV energy                 =      -0.00697740 Ry
     correction to one-el term =      -0.03484282 Ry

     iteration #  6     ecut=    30.00 Ry     beta=0.40
     CG style diagonalization
     ethr =  6.40E-11,  avg # of iterations =  3.2

     negative rho (up, down):  2.135E-04 0.000E+00

     add environment contribution to local potential

     total cpu time spent up to now is      210.4 secs

     total energy              =     -34.28856719 Ry
     Harris-Foulkes estimate   =     -34.22618005 Ry
     estimated scf accuracy    <          5.2E-10 Ry
     electrostatic embedding   =      -0.03429170 Ry
     cavitation energy         =       0.01368888 Ry
     PV energy                 =      -0.00697705 Ry
     correction to one-el term =      -0.03480727 Ry

     iteration #  7     ecut=    30.00 Ry     beta=0.40
     CG style diagonalization
     ethr =  6.47E-12,  avg # of iterations =  3.8

     negative rho (up, down):  2.132E-04 0.000E+00

     total cpu time spent up to now is      212.3 secs

     End of self-consistent calculation

          k = 0.0000 0.0000 0.0000 ( 22119 PWs)   bands (ev):

   -24.7348 -12.5082  -8.8801  -6.9248

     occupation numbers 
     1.0000   1.0000   1.0000   1.0000

     highest occupied level (ev):    -6.9248

!    total energy              =     -34.28856715 Ry
     Harris-Foulkes estimate   =     -34.22618170 Ry
     estimated scf accuracy    <          3.7E-11 Ry

     The total energy is the sum of the following terms:

     one-electron contribution =     -64.00969764 Ry
     hartree contribution      =      33.56213704 Ry
     xc contribution           =      -8.41546606 Ry
     ewald contribution        =       4.63684498 Ry
     electrostatic embedding   =      -0.03429051 Ry
     cavitation energy         =       0.01368892 Ry
     PV energy                 =      -0.00697708 Ry
     correction to one-el term =      -0.03480680 Ry

     convergence has been achieved in   7 iterations
     The global environment contribution to forces
     atom    1 type  2   force =     0.04902785   -0.25376113   -0.00000000
     atom    2 type  1   force =     0.03946292   -0.03939198   -0.00000000
     atom    3 type  1   force =    -0.02195786   -0.05118953   -0.00000000
 

     Forces acting on atoms (cartesian axes, Ry/au):

     atom    1 type  2   force =    -0.00015711    0.00048995    0.00000000
     atom    2 type  1   force =    -0.00071172   -0.00044659   -0.00000000
     atom    3 type  1   force =     0.00086883   -0.00004336   -0.00000000
     The non-local contrib.  to forces
     atom    1 type  2   force =     0.43405494   -2.23962739   -0.00000002
     atom    2 type  1   force =    -0.18375546    0.08433391    0.00000000
     atom    3 type  1   force =     0.13893486    0.14681130    0.00000000
     The ionic contribution  to forces
     atom    1 type  2   force =    -0.81229994    4.19181868    0.00000004
     atom    2 type  1   force =     3.37112173   -1.52168577   -0.00000001
     atom    3 type  1   force =    -2.55882179   -2.67013291   -0.00000002
     The local contribution  to forces
     atom    1 type  2   force =     0.32908319   -1.69790362   -0.00000002
     atom    2 type  1   force =    -3.22751532    1.47632027    0.00000001
     atom    3 type  1   force =     2.44273886    2.57449075    0.00000002
     The core correction contribution to forces
     atom    1 type  2   force =     0.00000000    0.00000000    0.00000000
     atom    2 type  1   force =     0.00000000    0.00000000    0.00000000
     atom    3 type  1   force =     0.00000000    0.00000000    0.00000000
     The Hubbard contrib.    to forces
     atom    1 type  2   force =     0.00000000    0.00000000    0.00000000
     atom    2 type  1   force =     0.00000000    0.00000000    0.00000000
     atom    3 type  1   force =     0.00000000    0.00000000    0.00000000
     The SCF correction term to forces
     atom    1 type  2   force =     0.00000235   -0.00001369    0.00000000
     atom    2 type  1   force =    -0.00000010   -0.00000013   -0.00000000
     atom    3 type  1   force =     0.00000026   -0.00000007   -0.00000000

     Total force =     0.001314     Total SCF correction =     0.000014

     bfgs converged in   3 scf cycles and   2 bfgs steps
     (criteria: energy <  1.0E-04 Ry, force <  1.0E-03 Ry/Bohr)

     End of BFGS Geometry Optimization

     Final energy   =     -34.2885671550 Ry
Begin final coordinates

ATOMIC_POSITIONS (bohr)
O       11.791234571  12.043758186  11.500000007
H       13.443019112  11.221862438  11.499999999
H       10.565746317  10.664379376  11.499999994
End final coordinates



     Writing output data file h2o_water_iterative.save
 
     init_run     :      3.02s CPU      3.19s WALL (       1 calls)
     electrons    :    180.81s CPU    187.73s WALL (       3 calls)
     update_pot   :      1.37s CPU      1.43s WALL (       2 calls)
     forces       :      1.89s CPU      2.09s WALL (       3 calls)

     Called by init_run:
     wfcinit      :      0.05s CPU      0.05s WALL (       1 calls)
     wfcinit:atom :      0.00s CPU      0.00s WALL (       1 calls)
     wfcinit:wfcr :      0.04s CPU      0.04s WALL (       1 calls)
     potinit      :      1.64s CPU      1.69s WALL (       1 calls)

     Called by electrons:
     c_bands      :      3.16s CPU      3.16s WALL (      24 calls)
     sum_band     :      9.57s CPU     10.50s WALL (      24 calls)
     v_of_rho     :     11.80s CPU     12.34s WALL (      27 calls)
     v_h          :      2.21s CPU      2.49s WALL (      71 calls)
     v_xc         :     10.94s CPU     11.44s WALL (      27 calls)
     newd         :      5.16s CPU      6.26s WALL (      27 calls)
     mix_rho      :      1.61s CPU      1.62s WALL (      24 calls)

     Called by c_bands:
     init_us_2    :      0.19s CPU      0.18s WALL (      49 calls)
     ccgdiagg     :      2.44s CPU      2.44s WALL (      24 calls)
     wfcrot       :      0.67s CPU      0.66s WALL (      22 calls)

     Called by sum_band:
     sum_band:bec :      0.00s CPU      0.00s WALL (      24 calls)
     addusdens    :      6.90s CPU      7.82s WALL (      24 calls)

     Called by *cgdiagg:
     h_psi        :      2.76s CPU      2.75s WALL (     309 calls)
     s_psi        :      0.11s CPU      0.12s WALL (     596 calls)
     cdiaghg      :      0.00s CPU      0.00s WALL (      22 calls)

     Called by h_psi:
     h_psi:pot    :      2.76s CPU      2.73s WALL (     309 calls)
     h_psi:calbec :      0.09s CPU      0.11s WALL (     309 calls)
     vloc_psi     :      2.59s CPU      2.55s WALL (     309 calls)
     add_vuspsi   :      0.07s CPU      0.07s WALL (     309 calls)
     h_1psi       :      2.21s CPU      2.18s WALL (     287 calls)

     General routines
     calbec       :      0.17s CPU      0.18s WALL (     632 calls)
     fft          :     62.61s CPU     64.57s WALL (    2989 calls)
     ffts         :      0.16s CPU      0.17s WALL (      51 calls)
     fftw         :      1.96s CPU      1.93s WALL (     850 calls)
     interpolate  :      1.56s CPU      1.58s WALL (      51 calls)
     davcio       :      0.00s CPU      0.00s WALL (       3 calls)
 
     Parallel routines
     fft_scatter  :     17.64s CPU     18.63s WALL (    3890 calls)
 
     Environ routines
     calc_eelect  :      0.06s CPU      0.07s WALL (      48 calls)
     calc_velect  :    142.16s CPU    146.50s WALL (      44 calls)
     dielectric   :      1.16s CPU      1.16s WALL (      30 calls)
     calc_felect  :      0.46s CPU      0.47s WALL (       3 calls)
 
     PWSCF        :  3m25.18s CPU     3m33.19s WALL

 
   This run was terminated on:  23:31: 1  25Jan2018            

=------------------------------------------------------------------------------=
   JOB DONE.
=------------------------------------------------------------------------------=
