
     Program PWSCF v.6.7MaX starts on 25Sep2021 at 14:39:53 

     This program is part of the open-source Quantum ESPRESSO suite
     for quantum simulation of materials; please cite
         "P. Giannozzi et al., J. Phys.:Condens. Matter 21 395502 (2009);
         "P. Giannozzi et al., J. Phys.:Condens. Matter 29 465901 (2017);
          URL http://www.quantum-espresso.org", 
     in publications or presentations arising from this work. More details at
     http://www.quantum-espresso.org/quote

     Parallel version (MPI), running on     1 processors

     MPI processes distributed on     1 nodes
     Waiting for input...
     Reading input from standard input

     Current dimensions of program PWSCF are:
     Max number of different atomic species (ntypx) = 10
     Max number of k-points (npk) =  40000
     Max angular momentum in pseudopotentials (lmaxx) =  3

     Reading input from environ.in

     ================================================================================

     Reading ENVIRON namelist

     Skipping BOUNDARY namelist

     Checking boundary derivatives
     derivatives               = chain          ! SCCS default

     Setting up vacuum environment (solvent mode = electronic)
     env_static_permittivity   = 1.D0           
     env_optical_permittivity  = 1.D0           
     env_surface_tension       = 0.D0           
     env_pressure              = 0.D0           

     Reading ELECTROSTATIC namelist

     Setting up electrostatic problem
     problem                   = poisson        

     Checking PBC correction

     ================================================================================
 
     file H.pbe-rrkjus.UPF: wavefunction(s)  1S renormalized
     file O.pbe-rrkjus.UPF: wavefunction(s)  2S renormalized

     Subspace diagonalization in iterative solution of the eigenvalue problem:
     a serial algorithm will be used

 
     G-vector sticks info
     --------------------
     sticks:   dense  smooth     PW     G-vecs:    dense   smooth      PW
     Sum        9549    3809    949               701475   177509   22119
 


     bravais-lattice index     =            1
     lattice parameter (alat)  =      20.0000  a.u.
     unit-cell volume          =    8000.0000 (a.u.)^3
     number of atoms/cell      =            3
     number of atomic types    =            2
     number of electrons       =         8.00
     number of Kohn-Sham states=            4
     kinetic-energy cutoff     =      30.0000  Ry
     charge density cutoff     =     300.0000  Ry
     scf convergence threshold =      5.0E-09
     mixing beta               =       0.4000
     number of iterations used =            8  plain     mixing
     energy convergence thresh.=      1.0E-04
     force convergence thresh. =      1.0E-03
     Exchange-correlation= SLA  PW   PBE  PBE
                           (   1   4   3   4   0   0   0)
     nstep                     =           50

 

     Environ Module
     ==============

     Please cite
         O. Andreussi, I. Dabo and N. Marzari, J. Chem. Phys. 136, 064102 (2012)         
     in publications or presentations arising from this work.

     compensation onset threshold      =               0.1000E+00

     Electrostatic Setup
     -------------------
     electrostatic problem to solve    = poisson                 
     numerical solver adopted          = direct                  
     type of auxiliary density adopted = none                    
     type of core tool for poisson     = fft                     
     type of core tool for correction  = 1d-analytic             



     celldm(1)=  20.000000  celldm(2)=   0.000000  celldm(3)=   0.000000
     celldm(4)=   0.000000  celldm(5)=   0.000000  celldm(6)=   0.000000

     crystal axes: (cart. coord. in units of alat)
               a(1) = (   1.000000   0.000000   0.000000 )  
               a(2) = (   0.000000   1.000000   0.000000 )  
               a(3) = (   0.000000   0.000000   1.000000 )  

     reciprocal axes: (cart. coord. in units 2 pi/alat)
               b(1) = (  1.000000  0.000000  0.000000 )  
               b(2) = (  0.000000  1.000000  0.000000 )  
               b(3) = (  0.000000  0.000000  1.000000 )  


     PseudoPot. # 1 for H  read from file:
     /home/simplogic86/Work/QE1/pseudo/H.pbe-rrkjus.UPF
     MD5 check sum: 2d52a7f45632fd764c17cc6affed14c8
     Pseudo is Ultrasoft, Zval =  1.0
     Generated by new atomic code, or converted to UPF format
     Using radial grid of 1061 points,  2 beta functions with: 
                l(1) =   0
                l(2) =   0
     Q(r) pseudized with 0 coefficients 


     PseudoPot. # 2 for O  read from file:
     /home/simplogic86/Work/QE1/pseudo/O.pbe-rrkjus.UPF
     MD5 check sum: fadcf19ee70a498d3030e2e79cf929a4
     Pseudo is Ultrasoft, Zval =  6.0
     Generated by new atomic code, or converted to UPF format
     Using radial grid of 1269 points,  4 beta functions with: 
                l(1) =   0
                l(2) =   0
                l(3) =   1
                l(4) =   1
     Q(r) pseudized with 0 coefficients 


     atomic species   valence    mass     pseudopotential
        H              1.00     1.00000     H ( 1.00)
        O              6.00    16.00000     O ( 1.00)

     No symmetry found


                                    s                        frac. trans.

      isym =  1     identity                                     

 cryst.   s( 1) = (     1          0          0      )
                  (     0          1          0      )
                  (     0          0          1      )

 cart.    s( 1) = (  1.0000000  0.0000000  0.0000000 )
                  (  0.0000000  1.0000000  0.0000000 )
                  (  0.0000000  0.0000000  1.0000000 )


     point group C_1 (1)    
     there are  1 classes
     the character table:

       E    
A      1.00

     the symmetry operations in each class and the name of the first element:

     E        1
          identity                                               

   Cartesian axes

     site n.     atom                  positions (alat units)
         1           O   tau(   1) = (   0.5895000   0.6025000   0.5750000  )
         2           H   tau(   2) = (   0.6725000   0.5610000   0.5750000  )
         3           H   tau(   3) = (   0.5280000   0.5330000   0.5750000  )

   Crystallographic axes

     site n.     atom                  positions (cryst. coord.)
         1           O   tau(   1) = (  0.5895000  0.6025000  0.5750000  )
         2           H   tau(   2) = (  0.6725000  0.5610000  0.5750000  )
         3           H   tau(   3) = (  0.5280000  0.5330000  0.5750000  )

     number of k points=     1
                       cart. coord. in units 2pi/alat
        k(    1) = (   0.0000000   0.0000000   0.0000000), wk =   2.0000000

                       cryst. coord.
        k(    1) = (   0.0000000   0.0000000   0.0000000), wk =   2.0000000

     Dense  grid:   701475 G-vectors     FFT dimensions: ( 120, 120, 120)

     Smooth grid:   177509 G-vectors     FFT dimensions: (  72,  72,  72)

     Dynamical RAM for                 wfc:       1.35 MB

     Dynamical RAM for     wfc (w. buffer):       1.35 MB

     Dynamical RAM for           str. fact:      21.41 MB

     Dynamical RAM for           local pot:       0.00 MB

     Dynamical RAM for          nlocal pot:       4.06 MB

     Dynamical RAM for                qrad:       0.79 MB

     Dynamical RAM for          rho,v,vnew:      71.66 MB

     Dynamical RAM for               rhoin:      23.89 MB

     Dynamical RAM for            rho*nmix:     171.26 MB

     Dynamical RAM for           G-vectors:      41.49 MB

     Dynamical RAM for          h,s,v(r/c):       0.00 MB

     Dynamical RAM for          <psi|beta>:       0.00 MB

     Dynamical RAM for      wfcinit/wfcrot:       4.07 MB

     Dynamical RAM for           addusdens:     481.66 MB

     Dynamical RAM for          addusforce:     508.43 MB

     Estimated static dynamical RAM per process >     433.95 MB

     Estimated max dynamical RAM per process >     942.38 MB

     Initial potential from superposition of free atoms

     starting charge    7.80759, renormalised to    8.00000

     negative rho (up, down):  7.936E-04 0.000E+00
     Starting wfcs are    6 randomized atomic wfcs

     total cpu time spent up to now is        2.4 secs

     Self-consistent Calculation

     iteration #  1     ecut=    30.00 Ry     beta= 0.40
     CG style diagonalization
     ethr =  1.00E-02,  avg # of iterations =  3.0

     negative rho (up, down):  4.640E-04 0.000E+00

     total cpu time spent up to now is        3.7 secs

     total energy              =     -34.21986745 Ry
     estimated scf accuracy    <       0.67783981 Ry
     electrostatic embedding   =       0.00000000 Ry
     correction to one-el term =       0.00000000 Ry

     iteration #  2     ecut=    30.00 Ry     beta= 0.40
     CG style diagonalization
     ethr =  8.47E-03,  avg # of iterations =  3.8

     negative rho (up, down):  2.931E-04 0.000E+00

     add environment contribution to local potential

     total cpu time spent up to now is        5.4 secs

     total energy              =     -34.27778002 Ry
     estimated scf accuracy    <       0.09826032 Ry
     electrostatic embedding   =       0.00000000 Ry
     correction to one-el term =       0.00000000 Ry

     iteration #  3     ecut=    30.00 Ry     beta= 0.40
     CG style diagonalization
     ethr =  1.23E-03,  avg # of iterations =  3.0

     negative rho (up, down):  1.275E-03 0.000E+00

     add environment contribution to local potential

     total cpu time spent up to now is        7.8 secs

     total energy              =     -34.26476100 Ry
     estimated scf accuracy    <       0.02877260 Ry
     electrostatic embedding   =       0.00015341 Ry
     correction to one-el term =       0.09307414 Ry

     iteration #  4     ecut=    30.00 Ry     beta= 0.40
     CG style diagonalization
     ethr =  3.60E-04,  avg # of iterations =  3.2

     negative rho (up, down):  5.527E-04 0.000E+00

     add environment contribution to local potential

     total cpu time spent up to now is        9.8 secs

     total energy              =     -34.26761360 Ry
     estimated scf accuracy    <       0.00097576 Ry
     electrostatic embedding   =       0.00021894 Ry
     correction to one-el term =       0.04945337 Ry

     iteration #  5     ecut=    30.00 Ry     beta= 0.40
     CG style diagonalization
     ethr =  1.22E-05,  avg # of iterations =  4.2

     negative rho (up, down):  7.557E-04 0.000E+00

     add environment contribution to local potential

     total cpu time spent up to now is       11.8 secs

     total energy              =     -34.26801115 Ry
     estimated scf accuracy    <       0.00026113 Ry
     electrostatic embedding   =       0.00025036 Ry
     correction to one-el term =       0.05058750 Ry

     iteration #  6     ecut=    30.00 Ry     beta= 0.40
     CG style diagonalization
     ethr =  3.26E-06,  avg # of iterations =  4.0

     negative rho (up, down):  4.488E-04 0.000E+00

     add environment contribution to local potential

     total cpu time spent up to now is       14.3 secs

     total energy              =     -34.26804412 Ry
     estimated scf accuracy    <       0.00003178 Ry
     electrostatic embedding   =       0.00027229 Ry
     correction to one-el term =       0.04628011 Ry

     iteration #  7     ecut=    30.00 Ry     beta= 0.40
     CG style diagonalization
     ethr =  3.97E-07,  avg # of iterations =  4.0

     negative rho (up, down):  3.066E-04 0.000E+00

     add environment contribution to local potential

     total cpu time spent up to now is       16.5 secs

     total energy              =     -34.26804648 Ry
     estimated scf accuracy    <       0.00000793 Ry
     electrostatic embedding   =       0.00027230 Ry
     correction to one-el term =       0.04623841 Ry

     iteration #  8     ecut=    30.00 Ry     beta= 0.40
     CG style diagonalization
     ethr =  9.91E-08,  avg # of iterations =  3.8

     negative rho (up, down):  2.381E-04 0.000E+00

     add environment contribution to local potential

     total cpu time spent up to now is       18.3 secs

     total energy              =     -34.26804794 Ry
     estimated scf accuracy    <       0.00000074 Ry
     electrostatic embedding   =       0.00027665 Ry
     correction to one-el term =       0.04620296 Ry

     iteration #  9     ecut=    30.00 Ry     beta= 0.40
     CG style diagonalization
     ethr =  9.25E-09,  avg # of iterations =  3.2

     negative rho (up, down):  2.299E-04 0.000E+00

     add environment contribution to local potential

     total cpu time spent up to now is       20.1 secs

     total energy              =     -34.26804810 Ry
     estimated scf accuracy    <       0.00000022 Ry
     electrostatic embedding   =       0.00027625 Ry
     correction to one-el term =       0.04620082 Ry

     iteration # 10     ecut=    30.00 Ry     beta= 0.40
     CG style diagonalization
     ethr =  2.81E-09,  avg # of iterations =  3.0

     negative rho (up, down):  2.217E-04 0.000E+00

     add environment contribution to local potential

     total cpu time spent up to now is       22.0 secs

     total energy              =     -34.26804809 Ry
     estimated scf accuracy    <       0.00000007 Ry
     electrostatic embedding   =       0.00027606 Ry
     correction to one-el term =       0.04617002 Ry

     iteration # 11     ecut=    30.00 Ry     beta= 0.40
     CG style diagonalization
     ethr =  8.35E-10,  avg # of iterations =  4.0

     negative rho (up, down):  2.138E-04 0.000E+00

     the potential shift due to the Gaussian-smeared nuclei is    -0.0214 ev

     total cpu time spent up to now is       23.5 secs

     End of self-consistent calculation

          k = 0.0000 0.0000 0.0000 ( 22119 PWs)   bands (ev):

   -25.1646 -13.0391  -9.1877  -7.1794

     occupation numbers 
     1.0000   1.0000   1.0000   1.0000

     highest occupied level (ev):    -7.1794

!    total energy              =     -34.26804813 Ry
     estimated scf accuracy    <          3.3E-09 Ry

     The total energy is the sum of the following terms:
     one-electron contribution =     -63.82312345 Ry
     hartree contribution      =      33.33670296 Ry
     xc contribution           =      -8.38542016 Ry
     ewald contribution        =       4.55735774 Ry
     electrostatic embedding   =       0.00027580 Ry
     correction to one-el term =       0.04615897 Ry

     WARNING: you are using the parabolic pbc correction;
              the potential shift above must be added to 
              band and Fermi energies.

     convergence has been achieved in  11 iterations
     The global environment contribution to forces
     atom    1 type  2   force =    -0.00086738    0.00447687    0.00000001
     atom    2 type  1   force =    -0.00014456    0.00074614    0.00000000
     atom    3 type  1   force =    -0.00014456    0.00074614    0.00000000
 

     Forces acting on atoms (cartesian axes, Ry/au):

     atom    1 type  2   force =     0.00285224   -0.01495983    0.00000000
     atom    2 type  1   force =    -0.01380832    0.00506085    0.00000000
     atom    3 type  1   force =     0.01095607    0.00989897   -0.00000000
     The non-local contrib.  to forces
     atom    1 type  2   force =     0.47529414   -2.45261137   -0.00000001
     atom    2 type  1   force =    -0.17603856    0.07924621   -0.00000000
     atom    3 type  1   force =     0.13367243    0.13923111   -0.00000000
     The ionic contribution  to forces
     atom    1 type  2   force =    -0.80474894    4.15284562    0.00000000
     atom    2 type  1   force =     3.32883149   -1.50955609    0.00000000
     atom    3 type  1   force =    -2.52408255   -2.64328953    0.00000000
     The local contribution  to forces
     atom    1 type  2   force =     0.33320933   -1.71967933   -0.00000002
     atom    2 type  1   force =    -3.16641743    1.43463326   -0.00000000
     atom    3 type  1   force =     2.40153562    2.51321698   -0.00000000
     The core correction contribution to forces
     atom    1 type  2   force =     0.00000000    0.00000000    0.00000000
     atom    2 type  1   force =     0.00000000    0.00000000    0.00000000
     atom    3 type  1   force =     0.00000000    0.00000000    0.00000000
     The Hubbard contrib.    to forces
     atom    1 type  2   force =     0.00000000    0.00000000    0.00000000
     atom    2 type  1   force =     0.00000000    0.00000000    0.00000000
     atom    3 type  1   force =     0.00000000    0.00000000    0.00000000
     The SCF correction term to forces
     atom    1 type  2   force =    -0.00000424    0.00002215    0.00000003
     atom    2 type  1   force =    -0.00000858    0.00000511   -0.00000000
     atom    3 type  1   force =     0.00000582    0.00000805   -0.00000000

     Total force =     0.025812     Total SCF correction =     0.000027

     BFGS Geometry Optimization
     Energy error            =      0.0E+00
     Gradient error          =      1.5E-02

     number of scf cycles    =   1
     number of bfgs steps    =   0

     energy   new            =     -34.2680481336 Ry

     new trust radius        =       0.0152293031 bohr
     new conv_thr            =       0.0000000050 Ry


ATOMIC_POSITIONS (bohr)
O            11.7928522437       12.0350401745       11.5000000013
H            13.4361916820       11.2250608541       11.5000000001
H            10.5709560743       10.6698989714       11.4999999986



     Writing output data file /home/simplogic86/Work/QE1/tempdir/h2o_vacuum_direct.save/
     NEW-OLD atomic charge density approx. for the potential

     negative rho (up, down):  8.708E-04 0.000E+00

     add environment contribution to local potential

     total cpu time spent up to now is       26.9 secs

     Self-consistent Calculation

     iteration #  1     ecut=    30.00 Ry     beta= 0.40
     CG style diagonalization
     ethr =  1.00E-06,  avg # of iterations =  4.8

     negative rho (up, down):  5.666E-04 0.000E+00

     add environment contribution to local potential

     total cpu time spent up to now is       29.0 secs

     total energy              =     -34.26801009 Ry
     estimated scf accuracy    <       0.00068669 Ry
     electrostatic embedding   =       0.00027421 Ry
     correction to one-el term =       0.04627324 Ry

     iteration #  2     ecut=    30.00 Ry     beta= 0.40
     CG style diagonalization
     ethr =  8.58E-06,  avg # of iterations =  4.0

     negative rho (up, down):  4.167E-04 0.000E+00

     add environment contribution to local potential

     total cpu time spent up to now is       31.3 secs

     total energy              =     -34.26814777 Ry
     estimated scf accuracy    <       0.00004300 Ry
     electrostatic embedding   =       0.00027646 Ry
     correction to one-el term =       0.04594220 Ry

     iteration #  3     ecut=    30.00 Ry     beta= 0.40
     CG style diagonalization
     ethr =  5.38E-07,  avg # of iterations =  3.8

     negative rho (up, down):  2.739E-04 0.000E+00

     add environment contribution to local potential

     total cpu time spent up to now is       33.5 secs

     total energy              =     -34.26815393 Ry
     estimated scf accuracy    <       0.00000778 Ry
     electrostatic embedding   =       0.00027386 Ry
     correction to one-el term =       0.04603131 Ry

     iteration #  4     ecut=    30.00 Ry     beta= 0.40
     CG style diagonalization
     ethr =  9.73E-08,  avg # of iterations =  3.8

     negative rho (up, down):  2.407E-04 0.000E+00

     add environment contribution to local potential

     total cpu time spent up to now is       35.7 secs

     total energy              =     -34.26815502 Ry
     estimated scf accuracy    <       0.00000038 Ry
     electrostatic embedding   =       0.00027193 Ry
     correction to one-el term =       0.04605716 Ry

     iteration #  5     ecut=    30.00 Ry     beta= 0.40
     CG style diagonalization
     ethr =  4.75E-09,  avg # of iterations =  3.5

     negative rho (up, down):  2.240E-04 0.000E+00

     add environment contribution to local potential

     total cpu time spent up to now is       38.0 secs

     total energy              =     -34.26815506 Ry
     estimated scf accuracy    <       0.00000006 Ry
     electrostatic embedding   =       0.00027207 Ry
     correction to one-el term =       0.04607332 Ry

     iteration #  6     ecut=    30.00 Ry     beta= 0.40
     CG style diagonalization
     ethr =  7.72E-10,  avg # of iterations =  3.8

     negative rho (up, down):  2.183E-04 0.000E+00

     add environment contribution to local potential

     total cpu time spent up to now is       40.3 secs

     total energy              =     -34.26815508 Ry
     estimated scf accuracy    <       0.00000001 Ry
     electrostatic embedding   =       0.00027213 Ry
     correction to one-el term =       0.04608556 Ry

     iteration #  7     ecut=    30.00 Ry     beta= 0.40
     CG style diagonalization
     ethr =  1.75E-10,  avg # of iterations =  3.8

     negative rho (up, down):  2.154E-04 0.000E+00

     the potential shift due to the Gaussian-smeared nuclei is    -0.0214 ev

     total cpu time spent up to now is       42.0 secs

     End of self-consistent calculation

          k = 0.0000 0.0000 0.0000 ( 22119 PWs)   bands (ev):

   -25.2926 -13.1881  -9.1735  -7.2049

     occupation numbers 
     1.0000   1.0000   1.0000   1.0000

     highest occupied level (ev):    -7.2049

!    total energy              =     -34.26815511 Ry
     estimated scf accuracy    <          4.5E-10 Ry

     The total energy is the sum of the following terms:
     one-electron contribution =     -64.11261374 Ry
     hartree contribution      =      33.47553945 Ry
     xc contribution           =      -8.40866060 Ry
     ewald contribution        =       4.73122277 Ry
     electrostatic embedding   =       0.00027218 Ry
     correction to one-el term =       0.04608484 Ry

     WARNING: you are using the parabolic pbc correction;
              the potential shift above must be added to 
              band and Fermi energies.

     convergence has been achieved in   7 iterations
     The global environment contribution to forces
     atom    1 type  2   force =    -0.00086182    0.00444736    0.00000001
     atom    2 type  1   force =    -0.00014364    0.00074123    0.00000000
     atom    3 type  1   force =    -0.00014364    0.00074123    0.00000000
 

     Forces acting on atoms (cartesian axes, Ry/au):

     atom    1 type  2   force =    -0.00250815    0.01358251   -0.00000000
     atom    2 type  1   force =     0.00723566   -0.00560964    0.00000000
     atom    3 type  1   force =    -0.00472750   -0.00797287    0.00000000
     The non-local contrib.  to forces
     atom    1 type  2   force =     0.47469880   -2.44869727   -0.00000002
     atom    2 type  1   force =    -0.18373126    0.08144624   -0.00000000
     atom    3 type  1   force =     0.14001143    0.14417956    0.00000000
     The ionic contribution  to forces
     atom    1 type  2   force =    -0.81952169    4.23080548    0.00000001
     atom    2 type  1   force =     3.42354667   -1.53142353   -0.00000000
     atom    3 type  1   force =    -2.60402498   -2.69938195   -0.00000001
     The local contribution  to forces
     atom    1 type  2   force =     0.34325261   -1.77302629   -0.00000000
     atom    2 type  1   force =    -3.23237022    1.44363144    0.00000000
     atom    3 type  1   force =     2.45949328    2.54649312    0.00000000
     The core correction contribution to forces
     atom    1 type  2   force =     0.00000000    0.00000000    0.00000000
     atom    2 type  1   force =     0.00000000    0.00000000    0.00000000
     atom    3 type  1   force =     0.00000000    0.00000000    0.00000000
     The Hubbard contrib.    to forces
     atom    1 type  2   force =     0.00000000    0.00000000    0.00000000
     atom    2 type  1   force =     0.00000000    0.00000000    0.00000000
     atom    3 type  1   force =     0.00000000    0.00000000    0.00000000
     The SCF correction term to forces
     atom    1 type  2   force =    -0.00001164    0.00006108   -0.00000000
     atom    2 type  1   force =    -0.00000148    0.00000282   -0.00000000
     atom    3 type  1   force =     0.00000081    0.00000302   -0.00000000

     Total force =     0.018987     Total SCF correction =     0.000062
     Energy error            =      1.1E-04
     Gradient error          =      1.4E-02

     number of scf cycles    =   2
     number of bfgs steps    =   1

     energy   old            =     -34.2680481336 Ry
     energy   new            =     -34.2681551112 Ry

     CASE: energy  _new < energy  _old

     new trust radius        =       0.0078685223 bohr
     new conv_thr            =            5.3E-11 Ry


ATOMIC_POSITIONS (bohr)
O            11.7914247331       12.0427781236       11.5000000004
H            13.4402238027       11.2218478105       11.5000000006
H            10.5683514641       10.6653740659       11.4999999990



     Writing output data file /home/simplogic86/Work/QE1/tempdir/h2o_vacuum_direct.save/
     NEW-OLD atomic charge density approx. for the potential

     negative rho (up, down):  2.770E-04 0.000E+00

     add environment contribution to local potential

     total cpu time spent up to now is       46.0 secs

     Self-consistent Calculation

     iteration #  1     ecut=    30.00 Ry     beta= 0.40
     CG style diagonalization
     ethr =  1.00E-06,  avg # of iterations =  4.2

     negative rho (up, down):  2.338E-04 0.000E+00

     add environment contribution to local potential

     total cpu time spent up to now is       48.2 secs

     total energy              =     -34.26823132 Ry
     estimated scf accuracy    <       0.00011643 Ry
     electrostatic embedding   =       0.00027292 Ry
     correction to one-el term =       0.04603706 Ry

     iteration #  2     ecut=    30.00 Ry     beta= 0.40
     CG style diagonalization
     ethr =  1.46E-06,  avg # of iterations =  4.0

     negative rho (up, down):  2.173E-04 0.000E+00

     add environment contribution to local potential

     total cpu time spent up to now is       50.6 secs

     total energy              =     -34.26825610 Ry
     estimated scf accuracy    <       0.00000850 Ry
     electrostatic embedding   =       0.00027221 Ry
     correction to one-el term =       0.04617847 Ry

     iteration #  3     ecut=    30.00 Ry     beta= 0.40
     CG style diagonalization
     ethr =  1.06E-07,  avg # of iterations =  4.0

     negative rho (up, down):  2.173E-04 0.000E+00

     add environment contribution to local potential

     total cpu time spent up to now is       52.8 secs

     total energy              =     -34.26825761 Ry
     estimated scf accuracy    <       0.00000141 Ry
     electrostatic embedding   =       0.00027348 Ry
     correction to one-el term =       0.04614037 Ry

     iteration #  4     ecut=    30.00 Ry     beta= 0.40
     CG style diagonalization
     ethr =  1.76E-08,  avg # of iterations =  4.0

     negative rho (up, down):  2.144E-04 0.000E+00

     add environment contribution to local potential

     total cpu time spent up to now is       55.2 secs

     total energy              =     -34.26825783 Ry
     estimated scf accuracy    <       0.00000009 Ry
     electrostatic embedding   =       0.00027458 Ry
     correction to one-el term =       0.04613198 Ry

     iteration #  5     ecut=    30.00 Ry     beta= 0.40
     CG style diagonalization
     ethr =  1.19E-09,  avg # of iterations =  3.2

     negative rho (up, down):  2.163E-04 0.000E+00

     add environment contribution to local potential

     total cpu time spent up to now is       57.4 secs

     total energy              =     -34.26825784 Ry
     estimated scf accuracy    <       0.00000001 Ry
     electrostatic embedding   =       0.00027449 Ry
     correction to one-el term =       0.04612594 Ry

     iteration #  6     ecut=    30.00 Ry     beta= 0.40
     CG style diagonalization
     ethr =  1.46E-10,  avg # of iterations =  4.0

     negative rho (up, down):  2.154E-04 0.000E+00

     add environment contribution to local potential

     total cpu time spent up to now is       59.6 secs

     total energy              =     -34.26825784 Ry
     estimated scf accuracy    <          3.3E-09 Ry
     electrostatic embedding   =       0.00027450 Ry
     correction to one-el term =       0.04612098 Ry

     iteration #  7     ecut=    30.00 Ry     beta= 0.40
     CG style diagonalization
     ethr =  4.11E-11,  avg # of iterations =  3.8

     negative rho (up, down):  2.148E-04 0.000E+00

     the potential shift due to the Gaussian-smeared nuclei is    -0.0214 ev

     total cpu time spent up to now is       61.4 secs

     End of self-consistent calculation

          k = 0.0000 0.0000 0.0000 ( 22119 PWs)   bands (ev):

   -25.2433 -13.1175  -9.1887  -7.1954

     occupation numbers 
     1.0000   1.0000   1.0000   1.0000

     highest occupied level (ev):    -7.1954

!    total energy              =     -34.26825783 Ry
     estimated scf accuracy    <          5.0E-11 Ry

     The total energy is the sum of the following terms:
     one-electron contribution =     -63.99378752 Ry
     hartree contribution      =      33.41834579 Ry
     xc contribution           =      -8.39908165 Ry
     ewald contribution        =       4.65986945 Ry
     electrostatic embedding   =       0.00027448 Ry
     correction to one-el term =       0.04612162 Ry

     WARNING: you are using the parabolic pbc correction;
              the potential shift above must be added to 
              band and Fermi energies.

     convergence has been achieved in   7 iterations
     The global environment contribution to forces
     atom    1 type  2   force =    -0.00086517    0.00446620    0.00000001
     atom    2 type  1   force =    -0.00014420    0.00074437    0.00000000
     atom    3 type  1   force =    -0.00014420    0.00074437    0.00000000
 

     Forces acting on atoms (cartesian axes, Ry/au):

     atom    1 type  2   force =    -0.00024681    0.00093841   -0.00000000
     atom    2 type  1   force =    -0.00121229   -0.00076701    0.00000000
     atom    3 type  1   force =     0.00145911   -0.00017141    0.00000000
     The non-local contrib.  to forces
     atom    1 type  2   force =     0.47544926   -2.45312633   -0.00000001
     atom    2 type  1   force =    -0.18037569    0.08090913   -0.00000000
     atom    3 type  1   force =     0.13706711    0.14237564    0.00000000
     The ionic contribution  to forces
     atom    1 type  2   force =    -0.81542253    4.20738186    0.00000000
     atom    2 type  1   force =     3.38225158   -1.52761743    0.00000000
     atom    3 type  1   force =    -2.56682905   -2.67976443   -0.00000000
     The local contribution  to forces
     atom    1 type  2   force =     0.34063841   -1.75776605   -0.00000000
     atom    2 type  1   force =    -3.20289623    1.44520959   -0.00000000
     atom    3 type  1   force =     2.43141261    2.53648543    0.00000000
     The core correction contribution to forces
     atom    1 type  2   force =     0.00000000    0.00000000    0.00000000
     atom    2 type  1   force =     0.00000000    0.00000000    0.00000000
     atom    3 type  1   force =     0.00000000    0.00000000    0.00000000
     The Hubbard contrib.    to forces
     atom    1 type  2   force =     0.00000000    0.00000000    0.00000000
     atom    2 type  1   force =     0.00000000    0.00000000    0.00000000
     atom    3 type  1   force =     0.00000000    0.00000000    0.00000000
     The SCF correction term to forces
     atom    1 type  2   force =     0.00000068   -0.00000457    0.00000000
     atom    2 type  1   force =    -0.00000031    0.00000002    0.00000000
     atom    3 type  1   force =     0.00000009    0.00000026    0.00000000

     Total force =     0.002271     Total SCF correction =     0.000005
     Energy error            =      1.0E-04
     Gradient error          =      1.5E-03

     number of scf cycles    =   3
     number of bfgs steps    =   2

     energy   old            =     -34.2681551112 Ry
     energy   new            =     -34.2682578294 Ry

     CASE: energy  _new < energy  _old

     new trust radius        =       0.0014994706 bohr
     new conv_thr            =            5.1E-11 Ry


ATOMIC_POSITIONS (bohr)
O            11.7911412470       12.0439164352       11.4999999990
H            13.4390326686       11.2209813580       11.5000000013
H            10.5698260843       10.6651022068       11.4999999997



     Writing output data file /home/simplogic86/Work/QE1/tempdir/h2o_vacuum_direct.save/
     NEW-OLD atomic charge density approx. for the potential

     negative rho (up, down):  2.429E-04 0.000E+00

     add environment contribution to local potential

     total cpu time spent up to now is       65.4 secs

     Self-consistent Calculation

     iteration #  1     ecut=    30.00 Ry     beta= 0.40
     CG style diagonalization
     ethr =  1.00E-06,  avg # of iterations =  2.8

     Threshold (ethr) on eigenvalues was too large:
     Diagonalizing with lowered threshold

     CG style diagonalization
     ethr =  2.53E-09,  avg # of iterations =  3.2

     negative rho (up, down):  2.286E-04 0.000E+00

     add environment contribution to local potential

     total cpu time spent up to now is       69.0 secs

     total energy              =     -34.26826238 Ry
     estimated scf accuracy    <       0.00000019 Ry
     electrostatic embedding   =       0.00027459 Ry
     correction to one-el term =       0.04612012 Ry

     iteration #  2     ecut=    30.00 Ry     beta= 0.40
     CG style diagonalization
     ethr =  2.36E-09,  avg # of iterations =  3.0

     negative rho (up, down):  2.173E-04 0.000E+00

     add environment contribution to local potential

     total cpu time spent up to now is       71.3 secs

     total energy              =     -34.26826239 Ry
     estimated scf accuracy    <       0.00000006 Ry
     electrostatic embedding   =       0.00027479 Ry
     correction to one-el term =       0.04612127 Ry

     iteration #  3     ecut=    30.00 Ry     beta= 0.40
     CG style diagonalization
     ethr =  7.22E-10,  avg # of iterations =  3.0

     negative rho (up, down):  2.157E-04 0.000E+00

     add environment contribution to local potential

     total cpu time spent up to now is       73.7 secs

     total energy              =     -34.26826238 Ry
     estimated scf accuracy    <          1.4E-09 Ry
     electrostatic embedding   =       0.00027506 Ry
     correction to one-el term =       0.04612407 Ry

     iteration #  4     ecut=    30.00 Ry     beta= 0.40
     CG style diagonalization
     ethr =  1.76E-11,  avg # of iterations =  3.8

     negative rho (up, down):  2.152E-04 0.000E+00

     add environment contribution to local potential

     total cpu time spent up to now is       76.1 secs

     total energy              =     -34.26826238 Ry
     estimated scf accuracy    <          1.2E-10 Ry
     electrostatic embedding   =       0.00027509 Ry
     correction to one-el term =       0.04612544 Ry

     iteration #  5     ecut=    30.00 Ry     beta= 0.40
     CG style diagonalization
     ethr =  1.45E-12,  avg # of iterations =  3.2

     negative rho (up, down):  2.149E-04 0.000E+00

     the potential shift due to the Gaussian-smeared nuclei is    -0.0214 ev

     total cpu time spent up to now is       77.7 secs

     End of self-consistent calculation

          k = 0.0000 0.0000 0.0000 ( 22119 PWs)   bands (ev):

   -25.2461 -13.1111  -9.1955  -7.1961

     occupation numbers 
     1.0000   1.0000   1.0000   1.0000

     highest occupied level (ev):    -7.1961

!    total energy              =     -34.26826238 Ry
     estimated scf accuracy    <          1.9E-11 Ry

     The total energy is the sum of the following terms:
     one-electron contribution =     -63.99465453 Ry
     hartree contribution      =      33.41850246 Ry
     xc contribution           =      -8.39911282 Ry
     ewald contribution        =       4.66060182 Ry
     electrostatic embedding   =       0.00027509 Ry
     correction to one-el term =       0.04612559 Ry

     WARNING: you are using the parabolic pbc correction;
              the potential shift above must be added to 
              band and Fermi energies.

     convergence has been achieved in   5 iterations
     The global environment contribution to forces
     atom    1 type  2   force =    -0.00086638    0.00447111   -0.00000001
     atom    2 type  1   force =    -0.00014440    0.00074518   -0.00000000
     atom    3 type  1   force =    -0.00014440    0.00074518   -0.00000000
 

     Forces acting on atoms (cartesian axes, Ry/au):

     atom    1 type  2   force =    -0.00001136    0.00055957    0.00000000
     atom    2 type  1   force =    -0.00096952   -0.00044377   -0.00000000
     atom    3 type  1   force =     0.00098089   -0.00011580   -0.00000000
     The non-local contrib.  to forces
     atom    1 type  2   force =     0.47578187   -2.45499804    0.00000002
     atom    2 type  1   force =    -0.18022658    0.08115757   -0.00000000
     atom    3 type  1   force =     0.13687490    0.14260174    0.00000000
     The ionic contribution  to forces
     atom    1 type  2   force =    -0.81619943    4.21418606   -0.00000001
     atom    2 type  1   force =     3.38052380   -1.53116547    0.00000000
     atom    3 type  1   force =    -2.56432436   -2.68302059    0.00000000
     The local contribution  to forces
     atom    1 type  2   force =     0.34131793   -1.76308079    0.00000000
     atom    2 type  1   force =    -3.20107747    1.44883102   -0.00000000
     atom    3 type  1   force =     2.42861985    2.53956983    0.00000000
     The core correction contribution to forces
     atom    1 type  2   force =     0.00000000    0.00000000    0.00000000
     atom    2 type  1   force =     0.00000000    0.00000000    0.00000000
     atom    3 type  1   force =     0.00000000    0.00000000    0.00000000
     The Hubbard contrib.    to forces
     atom    1 type  2   force =     0.00000000    0.00000000    0.00000000
     atom    2 type  1   force =     0.00000000    0.00000000    0.00000000
     atom    3 type  1   force =     0.00000000    0.00000000    0.00000000
     The SCF correction term to forces
     atom    1 type  2   force =    -0.00000053   -0.00000648    0.00000000
     atom    2 type  1   force =    -0.00000006    0.00000021    0.00000000
     atom    3 type  1   force =    -0.00000029    0.00000033    0.00000000

     Total force =     0.001557     Total SCF correction =     0.000007
     Energy error            =      4.6E-06
     Gradient error          =      9.8E-04

     bfgs converged in   4 scf cycles and   3 bfgs steps
     (criteria: energy <  1.0E-04 Ry, force <  1.0E-03 Ry/Bohr)

     End of BFGS Geometry Optimization

     Final energy   =     -34.2682623797 Ry

     File /home/simplogic86/Work/QE1/tempdir/h2o_vacuum_direct.bfgs deleted, as requested
Begin final coordinates

ATOMIC_POSITIONS (bohr)
O            11.7911412470       12.0439164352       11.4999999990
H            13.4390326686       11.2209813580       11.5000000013
H            10.5698260843       10.6651022068       11.4999999997
End final coordinates



     Writing output data file /home/simplogic86/Work/QE1/tempdir/h2o_vacuum_direct.save/
 
     init_run     :      2.10s CPU      2.40s WALL (       1 calls)
     electrons    :     54.88s CPU     63.95s WALL (       4 calls)
     update_pot   :      2.06s CPU      2.24s WALL (       3 calls)
     forces       :      3.53s CPU      4.15s WALL (       4 calls)

     Called by init_run:
     wfcinit      :      0.05s CPU      0.05s WALL (       1 calls)
     wfcinit:atom :      0.00s CPU      0.00s WALL (       1 calls)
     wfcinit:wfcr :      0.04s CPU      0.04s WALL (       1 calls)
     potinit      :      0.51s CPU      0.58s WALL (       1 calls)
     hinit0       :      0.95s CPU      1.00s WALL (       1 calls)

     Called by electrons:
     c_bands      :      5.22s CPU      6.16s WALL (      31 calls)
     sum_band     :     13.41s CPU     16.56s WALL (      31 calls)
     v_of_rho     :     16.26s CPU     18.02s WALL (      34 calls)
     v_h          :      1.08s CPU      1.11s WALL (      34 calls)
     v_xc         :     15.18s CPU     16.91s WALL (      34 calls)
     newd         :      8.77s CPU     11.48s WALL (      34 calls)
     mix_rho      :      2.33s CPU      2.96s WALL (      31 calls)

     Called by c_bands:
     init_us_2    :      0.21s CPU      0.22s WALL (      63 calls)
     ccgdiagg     :      4.17s CPU      5.09s WALL (      31 calls)
     wfcrot       :      0.98s CPU      1.00s WALL (      27 calls)

     Called by sum_band:
     sum_band:wei :      0.00s CPU      0.00s WALL (      31 calls)
     sum_band:loo :      0.75s CPU      0.75s WALL (      31 calls)
     sum_band:buf :      0.00s CPU      0.00s WALL (      31 calls)
     sum_band:ini :      0.11s CPU      0.11s WALL (      31 calls)
     sum_band:cal :      0.02s CPU      0.02s WALL (      31 calls)
     sum_band:bec :      0.00s CPU      0.00s WALL (      31 calls)
     addusdens    :     11.42s CPU     14.56s WALL (      31 calls)
     addusd:skk   :      0.25s CPU      0.26s WALL (      62 calls)
     addusd:dgemm :      1.54s CPU      4.12s WALL (      62 calls)
     addusd:qvan2 :      7.15s CPU      7.19s WALL (      62 calls)

     Called by *cgdiagg:
     h_psi        :      4.54s CPU      5.38s WALL (     374 calls)
     s_psi        :      0.24s CPU      0.30s WALL (     721 calls)

     Called by h_psi:
     h_psi:calbec :      0.18s CPU      0.23s WALL (     374 calls)
     vloc_psi     :      4.20s CPU      4.99s WALL (     374 calls)
     add_vuspsi   :      0.14s CPU      0.14s WALL (     374 calls)
     hs_1psi      :      3.74s CPU      4.63s WALL (     347 calls)
     s_1psi       :      0.24s CPU      0.24s WALL (     347 calls)

     General routines
     calbec       :      0.32s CPU      0.38s WALL (     768 calls)
     fft          :      8.96s CPU      9.61s WALL (     446 calls)
     ffts         :      0.24s CPU      0.24s WALL (      65 calls)
     fftw         :      4.10s CPU      4.80s WALL (    1038 calls)
     interpolate  :      0.97s CPU      0.97s WALL (      34 calls)
 
     Parallel routines
 
     Environ routines
 
     PWSCF        :   1m 8.35s CPU   1m18.86s WALL

 
   This run was terminated on:  14:41:12  25Sep2021            

=------------------------------------------------------------------------------=
   JOB DONE.
=------------------------------------------------------------------------------=
