
     Program PWSCF v.5.1.2 (svn rev. 11553M) starts on 26May2015 at 14:24:13 

     This program is part of the open-source Quantum ESPRESSO suite
     for quantum simulation of materials; please cite
         "P. Giannozzi et al., J. Phys.:Condens. Matter 21 395502 (2009);
          URL http://www.quantum-espresso.org", 
     in publications or presentations arising from this work. More details at
     http://www.quantum-espresso.org/quote

     Parallel version (MPI), running on     2 processors
     R & G space division:  proc/nbgrp/npool/nimage =       2
     Waiting for input...
     Reading input from standard input

     Current dimensions of program PWSCF are:
     Max number of different atomic species (ntypx) = 10
     Max number of k-points (npk) =  40000
     Max angular momentum in pseudopotentials (lmaxx) =  3
               file H.pbe-rrkjus.UPF: wavefunction(s)  1S renormalized
               file O.pbe-rrkjus.UPF: wavefunction(s)  2S renormalized

     Subspace diagonalization in iterative solution of the eigenvalue problem:
     a serial algorithm will be used

 
     Parallelization info
     --------------------
     sticks:   dense  smooth     PW     G-vecs:    dense   smooth      PW
     Min        4774    1904    474               350736    88753   11058
     Max        4775    1905    475               350739    88756   11061
     Sum        9549    3809    949               701475   177509   22119
 


     bravais-lattice index     =            1
     lattice parameter (alat)  =      20.0000  a.u.
     unit-cell volume          =    8000.0000 (a.u.)^3
     number of atoms/cell      =            3
     number of atomic types    =            2
     number of electrons       =         8.00
     number of Kohn-Sham states=            4
     kinetic-energy cutoff     =      30.0000  Ry
     charge density cutoff     =     300.0000  Ry
     convergence threshold     =      5.0E-09
     mixing beta               =       0.4000
     number of iterations used =            8  plain     mixing
     Exchange-correlation      =  SLA  PW   PBE  PBE ( 1  4  3  4 0 0)
     nstep                     =           50

 

     Environ Module
     ==============

     Please cite
         "O. Andreussi, I. Dabo and N. Marzari, J. Chem. Phys. 136, 064102 (2012);"
     in publications or presentations arising from this work.

     compensation onset threshold      =               0.1000E+00 
     switching function adopted        =                     SCCS 
     density limit for vacuum region   =               0.5000E-02 
     density limit for bulk solvent    =               0.1000E-03 
     static permittivity               =                    78.30 
     epsilon calculation mode          =               electronic 
     type of numerical differentiator  =            central diff. 
     number of points in num. diff.    =                        2 
     required accuracy                 =               0.1000E-10 
     linear mixing parameter           =                     0.60 
     surface tension in input (dyn/cm) =                    50.00 
     surface tension in internal units =               0.6423E-04 
     delta parameter for surface depth =               0.1000E-04 
     external pressure in input (GPa)  =                    -0.35 
     external pressure in inter. units =              -0.2379E-04 
 

     celldm(1)=  20.000000  celldm(2)=   0.000000  celldm(3)=   0.000000
     celldm(4)=   0.000000  celldm(5)=   0.000000  celldm(6)=   0.000000

     crystal axes: (cart. coord. in units of alat)
               a(1) = (   1.000000   0.000000   0.000000 )  
               a(2) = (   0.000000   1.000000   0.000000 )  
               a(3) = (   0.000000   0.000000   1.000000 )  

     reciprocal axes: (cart. coord. in units 2 pi/alat)
               b(1) = (  1.000000  0.000000  0.000000 )  
               b(2) = (  0.000000  1.000000  0.000000 )  
               b(3) = (  0.000000  0.000000  1.000000 )  


     PseudoPot. # 1 for H  read from file:
     /mnt/storage/andreo/PWSCF/espresso-svn/pseudo/H.pbe-rrkjus.UPF
     MD5 check sum: 7cc9d459525c9a0585f487a71c3c9563
     Pseudo is Ultrasoft, Zval =  1.0
     Generated by new atomic code, or converted to UPF format
     Using radial grid of 1061 points,  2 beta functions with: 
                l(1) =   0
                l(2) =   0
     Q(r) pseudized with 0 coefficients 


     PseudoPot. # 2 for O  read from file:
     /mnt/storage/andreo/PWSCF/espresso-svn/pseudo/O.pbe-rrkjus.UPF
     MD5 check sum: 390ba29e75625707450f3bd3f0eb6be9
     Pseudo is Ultrasoft, Zval =  6.0
     Generated by new atomic code, or converted to UPF format
     Using radial grid of 1269 points,  4 beta functions with: 
                l(1) =   0
                l(2) =   0
                l(3) =   1
                l(4) =   1
     Q(r) pseudized with 0 coefficients 


     atomic species   valence    mass     pseudopotential
        H              1.00     1.00000     H ( 1.00)
        O              6.00    16.00000     O ( 1.00)

      2 Sym. Ops. (no inversion) found ( 1 have fractional translation)


                                    s                        frac. trans.

      isym =  1     identity                                     

 cryst.   s( 1) = (     1          0          0      )
                  (     0          1          0      )
                  (     0          0          1      )

 cart.    s( 1) = (  1.0000000  0.0000000  0.0000000 )
                  (  0.0000000  1.0000000  0.0000000 )
                  (  0.0000000  0.0000000  1.0000000 )


      isym =  2     inv. 180 deg rotation - cart. axis [0,0,1]   

 cryst.   s( 2) = (     1          0          0      )    f =(  0.0000000 )
                  (     0          1          0      )       (  0.0000000 )
                  (     0          0         -1      )       ( -0.1500000 )

 cart.    s( 2) = (  1.0000000  0.0000000  0.0000000 )    f =(  0.0000000 )
                  (  0.0000000  1.0000000  0.0000000 )       (  0.0000000 )
                  (  0.0000000  0.0000000 -1.0000000 )       ( -0.1500000 )


     point group C_s (m)    
     there are  2 classes
     the character table:

       E     s    
A'     1.00  1.00
A''    1.00 -1.00

     the symmetry operations in each class and the name of the first element:

     E        1
          identity                                               
     s        2
          inv. 180 deg rotation - cart. axis [0,0,1]             

   Cartesian axes

     site n.     atom                  positions (alat units)
         1           O   tau(   1) = (   0.5895000   0.6025000   0.5750000  )
         2           H   tau(   2) = (   0.6725000   0.5610000   0.5750000  )
         3           H   tau(   3) = (   0.5280000   0.5330000   0.5750000  )

   Crystallographic axes

     site n.     atom                  positions (cryst. coord.)
         1           O   tau(   1) = (  0.5895000  0.6025000  0.5750000  )
         2           H   tau(   2) = (  0.6725000  0.5610000  0.5750000  )
         3           H   tau(   3) = (  0.5280000  0.5330000  0.5750000  )

     number of k points=     1
                       cart. coord. in units 2pi/alat
        k(    1) = (   0.0000000   0.0000000   0.0000000), wk =   2.0000000

                       cryst. coord.
        k(    1) = (   0.0000000   0.0000000   0.0000000), wk =   2.0000000

     Dense  grid:   701475 G-vectors     FFT dimensions: ( 120, 120, 120)

     Smooth grid:   177509 G-vectors     FFT dimensions: (  72,  72,  72)

     Largest allocated arrays     est. size (Mb)     dimensions
        Kohn-Sham Wavefunctions         0.67 Mb     (   11058,    4)
        NL pseudopotentials             2.02 Mb     (   11058,   12)
        Each V/rho on FFT grid         13.18 Mb     (  864000)
        Each G-vector array             2.68 Mb     (  350739)
        G-vector shells                 0.02 Mb     (    2535)
     Largest temporary arrays     est. size (Mb)     dimensions
        Each subspace H/S matrix        0.00 Mb     (       4,    4)
        Each <psi_i|beta_j> matrix      0.00 Mb     (      12,    4)
        Arrays for rho mixing         105.47 Mb     (  864000,    8)

     Initial potential from superposition of free atoms
     Check: negative starting charge=   -0.000775

     starting charge    7.80759, renormalised to    8.00000

     negative rho (up, down):  7.936E-04 0.000E+00
     Starting wfc are    6 randomized atomic wfcs

     total cpu time spent up to now is        2.3 secs

     per-process dynamical memory:   278.4 Mb

     Self-consistent Calculation

     iteration #  1     ecut=    30.00 Ry     beta=0.40
     CG style diagonalization
     ethr =  1.00E-02,  avg # of iterations =  3.0

     negative rho (up, down):  4.646E-04 0.000E+00

     total cpu time spent up to now is        4.7 secs

     total energy              =     -34.21286234 Ry
     Harris-Foulkes estimate   =     -34.58548725 Ry
     estimated scf accuracy    <       0.67747205 Ry
     solvation energy          =       0.00000000 Ry
     cavitation energy         =       0.01921359 Ry
     PV energy                 =      -0.01199460 Ry

     iteration #  2     ecut=    30.00 Ry     beta=0.40
     CG style diagonalization
     ethr =  8.47E-03,  avg # of iterations =  3.8

     negative rho (up, down):  2.937E-04 0.000E+00

     add environment contribution to local potential
     polarization accuracy = 6.2E-12, # of iterations =  30

     total cpu time spent up to now is       14.4 secs

     total energy              =     -34.27073048 Ry
     Harris-Foulkes estimate   =     -34.31759677 Ry
     estimated scf accuracy    <       0.09821302 Ry
     solvation energy          =       0.00000000 Ry
     cavitation energy         =       0.01556501 Ry
     PV energy                 =      -0.00852509 Ry

     iteration #  3     ecut=    30.00 Ry     beta=0.40
     CG style diagonalization
     ethr =  1.23E-03,  avg # of iterations =  3.5

     negative rho (up, down):  7.487E-04 0.000E+00

     add environment contribution to local potential
     polarization accuracy = 9.8E-12, # of iterations =  29

     total cpu time spent up to now is       23.9 secs

     total energy              =     -34.27908611 Ry
     Harris-Foulkes estimate   =     -33.79908185 Ry
     estimated scf accuracy    <       0.02803733 Ry
     solvation energy          =      -0.02426022 Ry
     cavitation energy         =       0.01365493 Ry
     PV energy                 =      -0.00694365 Ry

     iteration #  4     ecut=    30.00 Ry     beta=0.40
     CG style diagonalization
     ethr =  3.50E-04,  avg # of iterations =  3.5

     negative rho (up, down):  5.461E-04 0.000E+00

     add environment contribution to local potential
     polarization accuracy = 9.4E-12, # of iterations =  25

     total cpu time spent up to now is       32.5 secs

     total energy              =     -34.28547553 Ry
     Harris-Foulkes estimate   =     -34.11889321 Ry
     estimated scf accuracy    <       0.00221048 Ry
     solvation energy          =      -0.02911946 Ry
     cavitation energy         =       0.01376205 Ry
     PV energy                 =      -0.00702850 Ry

     iteration #  5     ecut=    30.00 Ry     beta=0.40
     CG style diagonalization
     ethr =  2.76E-05,  avg # of iterations =  4.0

     negative rho (up, down):  1.124E-03 0.000E+00

     add environment contribution to local potential
     polarization accuracy = 1.0E-11, # of iterations =  24

     total cpu time spent up to now is       41.0 secs

     total energy              =     -34.28701196 Ry
     Harris-Foulkes estimate   =     -34.16387095 Ry
     estimated scf accuracy    <       0.00036872 Ry
     solvation energy          =      -0.03182535 Ry
     cavitation energy         =       0.01368332 Ry
     PV energy                 =      -0.00696875 Ry

     iteration #  6     ecut=    30.00 Ry     beta=0.40
     CG style diagonalization
     ethr =  4.61E-06,  avg # of iterations =  4.0

     negative rho (up, down):  5.627E-04 0.000E+00

     add environment contribution to local potential
     polarization accuracy = 7.7E-12, # of iterations =  22

     total cpu time spent up to now is       49.0 secs

     total energy              =     -34.28777068 Ry
     Harris-Foulkes estimate   =     -34.19484471 Ry
     estimated scf accuracy    <       0.00002684 Ry
     solvation energy          =      -0.03359277 Ry
     cavitation energy         =       0.01373791 Ry
     PV energy                 =      -0.00701292 Ry

     iteration #  7     ecut=    30.00 Ry     beta=0.40
     CG style diagonalization
     ethr =  3.36E-07,  avg # of iterations =  4.0

     negative rho (up, down):  2.855E-04 0.000E+00

     add environment contribution to local potential
     polarization accuracy = 7.3E-12, # of iterations =  20

     total cpu time spent up to now is       56.7 secs

     total energy              =     -34.28848387 Ry
     Harris-Foulkes estimate   =     -34.18848745 Ry
     estimated scf accuracy    <       0.00000543 Ry
     solvation energy          =      -0.03411759 Ry
     cavitation energy         =       0.01371516 Ry
     PV energy                 =      -0.00699575 Ry

     iteration #  8     ecut=    30.00 Ry     beta=0.40
     CG style diagonalization
     ethr =  6.79E-08,  avg # of iterations =  4.0

     negative rho (up, down):  2.411E-04 0.000E+00

     add environment contribution to local potential
     polarization accuracy = 8.8E-12, # of iterations =  18

     total cpu time spent up to now is       63.9 secs

     total energy              =     -34.28830042 Ry
     Harris-Foulkes estimate   =     -34.18725730 Ry
     estimated scf accuracy    <       0.00000155 Ry
     solvation energy          =      -0.03415784 Ry
     cavitation energy         =       0.01372191 Ry
     PV energy                 =      -0.00700136 Ry

     iteration #  9     ecut=    30.00 Ry     beta=0.40
     CG style diagonalization
     ethr =  1.94E-08,  avg # of iterations =  4.0

     negative rho (up, down):  2.244E-04 0.000E+00

     add environment contribution to local potential
     polarization accuracy = 7.2E-12, # of iterations =  18

     total cpu time spent up to now is       71.3 secs

     total energy              =     -34.28835323 Ry
     Harris-Foulkes estimate   =     -34.18631223 Ry
     estimated scf accuracy    <       0.00000025 Ry
     solvation energy          =      -0.03432786 Ry
     cavitation energy         =       0.01371932 Ry
     PV energy                 =      -0.00699967 Ry

     iteration # 10     ecut=    30.00 Ry     beta=0.40
     CG style diagonalization
     ethr =  3.18E-09,  avg # of iterations =  4.0

     negative rho (up, down):  2.156E-04 0.000E+00

     add environment contribution to local potential
     polarization accuracy = 8.8E-12, # of iterations =  13

     total cpu time spent up to now is       77.5 secs

     total energy              =     -34.28842081 Ry
     Harris-Foulkes estimate   =     -34.18579526 Ry
     estimated scf accuracy    <       0.00000001 Ry
     solvation energy          =      -0.03442177 Ry
     cavitation energy         =       0.01371912 Ry
     PV energy                 =      -0.00699957 Ry

     iteration # 11     ecut=    30.00 Ry     beta=0.40
     CG style diagonalization
     ethr =  1.84E-10,  avg # of iterations =  4.2

     negative rho (up, down):  2.124E-04 0.000E+00

     total cpu time spent up to now is       79.8 secs

     End of self-consistent calculation

          k = 0.0000 0.0000 0.0000 ( 22119 PWs)   bands (ev):

   -24.6033 -12.3712  -8.8070  -6.8404

     occupation numbers 
     1.0000   1.0000   1.0000   1.0000

     highest occupied level (ev):    -6.8404

!    total energy              =     -34.28843856 Ry
     Harris-Foulkes estimate   =     -34.18563379 Ry
     estimated scf accuracy    <          4.7E-10 Ry

     The total energy is the sum of the following terms:

     one-electron contribution =     -63.83948512 Ry
     hartree contribution      =      33.50161200 Ry
     xc contribution           =      -8.40511837 Ry
     ewald contribution        =       4.55735774 Ry
     solvation energy          =      -0.03443956 Ry
     cavitation energy         =       0.01371912 Ry
     PV energy                 =      -0.00699957 Ry

     charge density inside the Wigner-Seitz cell:    8.00000000

     reference position (x0):        11.84375000   11.77250000   11.50000000 bohr

     Dipole moments (with respect to x0):
     Elect   0.1832  -0.9462   0.0000 au (Ha),   0.4658  -2.4050   0.0000 Debye
     Ionic   0.0000   0.0000   0.0000 au (Ha),   0.0000   0.0000   0.0000 Debye
     Total   0.1832  -0.9462   0.0000 au (Ha),   0.4658  -2.4050   0.0000 Debye

     Electrons quadrupole moment        -20.20074383 a.u. (Ha)
          Ions quadrupole moment          6.25033750 a.u. (Ha)
         Total quadrupole moment        -13.95040633 a.u. (Ha)

     *********    MAKOV-PAYNE CORRECTION    *********

     Makov-Payne correction with Madelung constant =   2.8373

     Makov-Payne correction     0.00000000 Ry =  0.000 eV (1st order, 1/a0)
                                0.00048636 Ry =  0.007 eV (2nd order, 1/a0^3)
                                0.00048636 Ry =  0.007 eV (total)

!    Total+Makov-Payne energy  =     -34.28795220 Ry
     polarization accuracy = 6.8E-13, # of iterations =  18

     *******  ENVIRON-MAKOV-PAYNE CORRECTION  *******

     Dipole moments (with respect to x0):
     Envir  -0.1793   0.9260   0.0000 au (Ha),  -0.4558   2.3536   0.0000 Debye
     Full    0.0039  -0.0202   0.0000 au (Ha),   0.0099  -0.0514   0.0000 Debye

     Environ quadrupole moment          0.68694536 a.u. (Ha)
       FullB quadrupole moment        -13.26346096 a.u. (Ha)

     Environ correction         0.00000000 Ry =  0.000 eV (1st order diel, 1/a0)
                               -0.00047596 Ry = -0.006 eV (2nd order diel, 1/a0^3)
                                0.00000000 Ry =  0.000 eV (jellium, 1/a0^3)
                                0.00000668 Ry =  0.000 eV (periodic solutes, 1/a0^3)
                               -0.00046928 Ry = -0.006 eV (total diel)

!    Envir+Makov-Payne energy  =     -34.28842148 Ry

     convergence has been achieved in  11 iterations

     Forces acting on atoms (Ry/au):

     The dielectric solvent contribution to forces
     atom    1 type  2   force =     0.04907220   -0.25393934    0.00000000
     atom    2 type  1   force =     0.03949052   -0.03948527    0.00000000
     atom    3 type  1   force =    -0.02193975   -0.05129163    0.00000000
     The global environment contribution to forces
     atom    1 type  2   force =     0.04907220   -0.25393934    0.00000000
     atom    2 type  1   force =     0.03949052   -0.03948527    0.00000000
     atom    3 type  1   force =    -0.02193975   -0.05129163    0.00000000
 
     atom    1 type  2   force =     0.00228554   -0.01214677    0.00000000
     atom    2 type  1   force =    -0.01034059    0.00425296    0.00000000
     atom    3 type  1   force =     0.00805505    0.00789381    0.00000000
     The non-local contrib.  to forces
     atom    1 type  2   force =     0.43428100   -2.24088343    0.00000000
     atom    2 type  1   force =    -0.18030240    0.08317124    0.00000000
     atom    3 type  1   force =     0.13616823    0.14445906    0.00000000
     The ionic contribution  to forces
     atom    1 type  2   force =    -0.80474894    4.15284562    0.00000000
     atom    2 type  1   force =     3.32883149   -1.50955609    0.00000000
     atom    3 type  1   force =    -2.52408255   -2.64328953    0.00000000
     The local contribution  to forces
     atom    1 type  2   force =     0.32371181   -1.67019971    0.00000000
     atom    2 type  1   force =    -3.19834367    1.47015639    0.00000000
     atom    3 type  1   force =     2.41792784    2.55804920    0.00000000
     The core correction contribution to forces
     atom    1 type  2   force =     0.00000000    0.00000000    0.00000000
     atom    2 type  1   force =     0.00000000    0.00000000    0.00000000
     atom    3 type  1   force =     0.00000000    0.00000000    0.00000000
     The Hubbard contrib.    to forces
     atom    1 type  2   force =     0.00000000    0.00000000    0.00000000
     atom    2 type  1   force =     0.00000000    0.00000000    0.00000000
     atom    3 type  1   force =     0.00000000    0.00000000    0.00000000
     The SCF correction term to forces
     atom    1 type  2   force =    -0.00001289    0.00006346    0.00000000
     atom    2 type  1   force =     0.00000112    0.00000006    0.00000000
     atom    3 type  1   force =    -0.00000108    0.00000010    0.00000000

     Total force =     0.020124     Total SCF correction =     0.000065

     BFGS Geometry Optimization

     number of scf cycles    =   1
     number of bfgs steps    =   0

     energy   new            =     -34.2884385552 Ry

     new trust radius        =       0.0123599255 bohr
     new conv_thr            =       0.0000000050 Ry


ATOMIC_POSITIONS (bohr)
O       11.792285539  12.037853228  11.500000000
H       13.439659411  11.224252957  11.500000000
H       10.568055050  10.667893815  11.500000000



     Writing output data file h2o_water.save
     Check: negative starting charge=   -0.000775
     NEW-OLD atomic charge density approx. for the potential
     Check: negative starting charge=   -0.000776

     negative rho (up, down):  6.990E-04 0.000E+00

     add environment contribution to local potential
     polarization accuracy = 6.5E-12, # of iterations =  23

     total cpu time spent up to now is       97.9 secs

     per-process dynamical memory:   259.0 Mb

     Self-consistent Calculation

     iteration #  1     ecut=    30.00 Ry     beta=0.40
     CG style diagonalization
     ethr =  1.00E-06,  avg # of iterations =  5.2

     negative rho (up, down):  4.710E-04 0.000E+00

     add environment contribution to local potential
     polarization accuracy = 9.8E-12, # of iterations =  20

     total cpu time spent up to now is      105.6 secs

     total energy              =     -34.28830346 Ry
     Harris-Foulkes estimate   =     -34.18284859 Ry
     estimated scf accuracy    <       0.00034049 Ry
     solvation energy          =      -0.03413243 Ry
     cavitation energy         =       0.01365748 Ry
     PV energy                 =      -0.00695381 Ry

     iteration #  2     ecut=    30.00 Ry     beta=0.40
     CG style diagonalization
     ethr =  4.26E-06,  avg # of iterations =  4.0

     negative rho (up, down):  3.566E-04 0.000E+00

     add environment contribution to local potential
     polarization accuracy = 7.7E-12, # of iterations =  17

     total cpu time spent up to now is      112.5 secs

     total energy              =     -34.28854707 Ry
     Harris-Foulkes estimate   =     -34.18309729 Ry
     estimated scf accuracy    <       0.00001814 Ry
     solvation energy          =      -0.03422995 Ry
     cavitation energy         =       0.01366416 Ry
     PV energy                 =      -0.00695871 Ry

     iteration #  3     ecut=    30.00 Ry     beta=0.40
     CG style diagonalization
     ethr =  2.27E-07,  avg # of iterations =  4.0

     negative rho (up, down):  2.499E-04 0.000E+00

     add environment contribution to local potential
     polarization accuracy = 9.5E-12, # of iterations =  16

     total cpu time spent up to now is      119.4 secs

     total energy              =     -34.28852559 Ry
     Harris-Foulkes estimate   =     -34.18266068 Ry
     estimated scf accuracy    <       0.00000440 Ry
     solvation energy          =      -0.03415740 Ry
     cavitation energy         =       0.01366670 Ry
     PV energy                 =      -0.00696033 Ry

     iteration #  4     ecut=    30.00 Ry     beta=0.40
     CG style diagonalization
     ethr =  5.50E-08,  avg # of iterations =  4.0

     negative rho (up, down):  2.302E-04 0.000E+00

     add environment contribution to local potential
     polarization accuracy = 8.9E-12, # of iterations =  12

     total cpu time spent up to now is      125.4 secs

     total energy              =     -34.28849885 Ry
     Harris-Foulkes estimate   =     -34.18220978 Ry
     estimated scf accuracy    <       0.00000029 Ry
     solvation energy          =      -0.03414018 Ry
     cavitation energy         =       0.01366868 Ry
     PV energy                 =      -0.00696181 Ry

     iteration #  5     ecut=    30.00 Ry     beta=0.40
     CG style diagonalization
     ethr =  3.58E-09,  avg # of iterations =  4.0

     negative rho (up, down):  2.180E-04 0.000E+00

     add environment contribution to local potential
     polarization accuracy = 8.7E-12, # of iterations =  11

     total cpu time spent up to now is      131.2 secs

     total energy              =     -34.28849983 Ry
     Harris-Foulkes estimate   =     -34.18213472 Ry
     estimated scf accuracy    <       0.00000003 Ry
     solvation energy          =      -0.03414616 Ry
     cavitation energy         =       0.01366959 Ry
     PV energy                 =      -0.00696244 Ry

     iteration #  6     ecut=    30.00 Ry     beta=0.40
     CG style diagonalization
     ethr =  3.87E-10,  avg # of iterations =  3.2

     negative rho (up, down):  2.136E-04 0.000E+00

     total cpu time spent up to now is      133.3 secs

     End of self-consistent calculation

          k = 0.0000 0.0000 0.0000 ( 22119 PWs)   bands (ev):

   -24.7024 -12.4913  -8.8010  -6.8610

     occupation numbers 
     1.0000   1.0000   1.0000   1.0000

     highest occupied level (ev):    -6.8610

!    total energy              =     -34.28850056 Ry
     Harris-Foulkes estimate   =     -34.18206451 Ry
     estimated scf accuracy    <          2.9E-09 Ry

     The total energy is the sum of the following terms:

     one-electron contribution =     -64.05704676 Ry
     hartree contribution      =      33.60489709 Ry
     xc contribution           =      -8.42279956 Ry
     ewald contribution        =       4.69288463 Ry
     solvation energy          =      -0.03414681 Ry
     cavitation energy         =       0.01366959 Ry
     PV energy                 =      -0.00696244 Ry

     charge density inside the Wigner-Seitz cell:    8.00000000

     reference position (x0):        11.84517846   11.76490827   11.50000000 bohr

     Dipole moments (with respect to x0):
     Elect   0.1816  -0.9376   0.0000 au (Ha),   0.4617  -2.3831   0.0000 Debye
     Ionic   0.0000   0.0000   0.0000 au (Ha),   0.0000   0.0000   0.0000 Debye
     Total   0.1816  -0.9376   0.0000 au (Ha),   0.4617  -2.3831   0.0000 Debye

     Electrons quadrupole moment        -20.07789603 a.u. (Ha)
          Ions quadrupole moment          6.13294225 a.u. (Ha)
         Total quadrupole moment        -13.94495377 a.u. (Ha)

     *********    MAKOV-PAYNE CORRECTION    *********

     Makov-Payne correction with Madelung constant =   2.8373

     Makov-Payne correction     0.00000000 Ry =  0.000 eV (1st order, 1/a0)
                                0.00047756 Ry =  0.006 eV (2nd order, 1/a0^3)
                                0.00047756 Ry =  0.006 eV (total)

!    Total+Makov-Payne energy  =     -34.28802300 Ry
     polarization accuracy = 6.8E-13, # of iterations =  18

     *******  ENVIRON-MAKOV-PAYNE CORRECTION  *******

     Dipole moments (with respect to x0):
     Envir  -0.1778   0.9175   0.0000 au (Ha),  -0.4518   2.3321   0.0000 Debye
     Full    0.0039  -0.0201   0.0000 au (Ha),   0.0099  -0.0510   0.0000 Debye

     Environ quadrupole moment          0.70460341 a.u. (Ha)
       FullB quadrupole moment        -13.24035037 a.u. (Ha)

     Environ correction         0.00000000 Ry =  0.000 eV (1st order diel, 1/a0)
                               -0.00046734 Ry = -0.006 eV (2nd order diel, 1/a0^3)
                                0.00000000 Ry =  0.000 eV (jellium, 1/a0^3)
                                0.00000657 Ry =  0.000 eV (periodic solutes, 1/a0^3)
                               -0.00046077 Ry = -0.006 eV (total diel)

!    Envir+Makov-Payne energy  =     -34.28848377 Ry

     convergence has been achieved in   6 iterations

     Forces acting on atoms (Ry/au):

     The dielectric solvent contribution to forces
     atom    1 type  2   force =     0.04899552   -0.25350436    0.00000000
     atom    2 type  1   force =     0.03946357   -0.03922574    0.00000000
     atom    3 type  1   force =    -0.02200420   -0.05103951    0.00000000
     The global environment contribution to forces
     atom    1 type  2   force =     0.04899552   -0.25350436    0.00000000
     atom    2 type  1   force =     0.03946357   -0.03922574    0.00000000
     atom    3 type  1   force =    -0.02200420   -0.05103951    0.00000000
 
     atom    1 type  2   force =    -0.00184869    0.01035065    0.00000000
     atom    2 type  1   force =     0.00591815   -0.00418000    0.00000000
     atom    3 type  1   force =    -0.00406946   -0.00617065    0.00000000
     The non-local contrib.  to forces
     atom    1 type  2   force =     0.43342113   -2.23578790    0.00000000
     atom    2 type  1   force =    -0.18634734    0.08478504    0.00000000
     atom    3 type  1   force =     0.14121246    0.14826686    0.00000000
     The ionic contribution  to forces
     atom    1 type  2   force =    -0.81552824    4.21132129    0.00000000
     atom    2 type  1   force =     3.40304426   -1.52517555    0.00000000
     atom    3 type  1   force =    -2.58751602   -2.68614574    0.00000000
     The local contribution  to forces
     atom    1 type  2   force =     0.33130079   -1.71160458    0.00000000
     atom    2 type  1   force =    -3.25020089    1.47546031    0.00000000
     atom    3 type  1   force =     2.46429155    2.58277417    0.00000000
     The core correction contribution to forces
     atom    1 type  2   force =     0.00000000    0.00000000    0.00000000
     atom    2 type  1   force =     0.00000000    0.00000000    0.00000000
     atom    3 type  1   force =     0.00000000    0.00000000    0.00000000
     The Hubbard contrib.    to forces
     atom    1 type  2   force =     0.00000000    0.00000000    0.00000000
     atom    2 type  1   force =     0.00000000    0.00000000    0.00000000
     atom    3 type  1   force =     0.00000000    0.00000000    0.00000000
     The SCF correction term to forces
     atom    1 type  2   force =     0.00001096   -0.00005609    0.00000000
     atom    2 type  1   force =     0.00000741   -0.00000634    0.00000000
     atom    3 type  1   force =    -0.00000439   -0.00000872    0.00000000

     Total force =     0.014754     Total SCF correction =     0.000059

     number of scf cycles    =   2
     number of bfgs steps    =   1

     energy   old            =     -34.2884385552 Ry
     energy   new            =     -34.2885005598 Ry

     CASE: energy  _new < energy  _old

     new trust radius        =       0.0060257581 bohr
     new conv_thr            =            5.0E-11 Ry


ATOMIC_POSITIONS (bohr)
O       11.791226954  12.043785273  11.500000000
H       13.443024347  11.221852216  11.500000000
H       10.565748698  10.664362511  11.500000000



     Writing output data file h2o_water.save
     Check: negative starting charge=   -0.000776
     NEW-OLD atomic charge density approx. for the potential
     Check: negative starting charge=   -0.000775

     negative rho (up, down):  2.429E-04 0.000E+00

     add environment contribution to local potential
     polarization accuracy = 7.0E-12, # of iterations =  20

     total cpu time spent up to now is      150.8 secs

     per-process dynamical memory:   248.8 Mb

     Self-consistent Calculation

     iteration #  1     ecut=    30.00 Ry     beta=0.40
     CG style diagonalization
     ethr =  1.00E-06,  avg # of iterations =  4.5

     negative rho (up, down):  2.165E-04 0.000E+00

     add environment contribution to local potential
     polarization accuracy = 7.5E-12, # of iterations =  18

     total cpu time spent up to now is      158.1 secs

     total energy              =     -34.28860758 Ry
     Harris-Foulkes estimate   =     -34.18337110 Ry
     estimated scf accuracy    <       0.00005896 Ry
     solvation energy          =      -0.03427562 Ry
     cavitation energy         =       0.01369370 Ry
     PV energy                 =      -0.00698034 Ry

     iteration #  2     ecut=    30.00 Ry     beta=0.40
     CG style diagonalization
     ethr =  7.37E-07,  avg # of iterations =  4.0

     negative rho (up, down):  2.075E-04 0.000E+00

     add environment contribution to local potential
     polarization accuracy = 8.5E-12, # of iterations =  15

     total cpu time spent up to now is      164.8 secs

     total energy              =     -34.28854023 Ry
     Harris-Foulkes estimate   =     -34.18326113 Ry
     estimated scf accuracy    <       0.00000317 Ry
     solvation energy          =      -0.03423455 Ry
     cavitation energy         =       0.01369126 Ry
     PV energy                 =      -0.00697855 Ry

     iteration #  3     ecut=    30.00 Ry     beta=0.40
     CG style diagonalization
     ethr =  3.96E-08,  avg # of iterations =  4.0

     negative rho (up, down):  2.133E-04 0.000E+00

     add environment contribution to local potential
     polarization accuracy = 8.4E-12, # of iterations =  15

     total cpu time spent up to now is      171.4 secs

     total energy              =     -34.28855029 Ry
     Harris-Foulkes estimate   =     -34.18342567 Ry
     estimated scf accuracy    <       0.00000078 Ry
     solvation energy          =      -0.03426988 Ry
     cavitation energy         =       0.01369061 Ry
     PV energy                 =      -0.00697816 Ry

     iteration #  4     ecut=    30.00 Ry     beta=0.40
     CG style diagonalization
     ethr =  9.71E-09,  avg # of iterations =  4.0

     negative rho (up, down):  2.119E-04 0.000E+00

     add environment contribution to local potential
     polarization accuracy = 6.2E-12, # of iterations =  10

     total cpu time spent up to now is      177.2 secs

     total energy              =     -34.28856355 Ry
     Harris-Foulkes estimate   =     -34.18360320 Ry
     estimated scf accuracy    <       0.00000005 Ry
     solvation energy          =      -0.03427839 Ry
     cavitation energy         =       0.01368988 Ry
     PV energy                 =      -0.00697761 Ry

     iteration #  5     ecut=    30.00 Ry     beta=0.40
     CG style diagonalization
     ethr =  6.14E-10,  avg # of iterations =  4.0

     negative rho (up, down):  2.140E-04 0.000E+00

     add environment contribution to local potential
     polarization accuracy = 8.1E-12, # of iterations =  10

     total cpu time spent up to now is      182.8 secs

     total energy              =     -34.28856340 Ry
     Harris-Foulkes estimate   =     -34.18363442 Ry
     estimated scf accuracy    <          5.1E-09 Ry
     solvation energy          =      -0.03427558 Ry
     cavitation energy         =       0.01368947 Ry
     PV energy                 =      -0.00697732 Ry

     iteration #  6     ecut=    30.00 Ry     beta=0.40
     CG style diagonalization
     ethr =  6.43E-11,  avg # of iterations =  3.2

     negative rho (up, down):  2.135E-04 0.000E+00

     add environment contribution to local potential
     polarization accuracy = 1.0E-11, # of iterations =   6

     total cpu time spent up to now is      187.7 secs

     total energy              =     -34.28856313 Ry
     Harris-Foulkes estimate   =     -34.18367045 Ry
     estimated scf accuracy    <          4.9E-10 Ry
     solvation energy          =      -0.03427408 Ry
     cavitation energy         =       0.01368952 Ry
     PV energy                 =      -0.00697736 Ry

     iteration #  7     ecut=    30.00 Ry     beta=0.40
     CG style diagonalization
     ethr =  6.12E-12,  avg # of iterations =  3.8

     negative rho (up, down):  2.133E-04 0.000E+00

     add environment contribution to local potential
     polarization accuracy = 8.7E-12, # of iterations =   6

     total cpu time spent up to now is      192.5 secs

     total energy              =     -34.28856235 Ry
     Harris-Foulkes estimate   =     -34.18367156 Ry
     estimated scf accuracy    <          9.0E-11 Ry
     solvation energy          =      -0.03427323 Ry
     cavitation energy         =       0.01368951 Ry
     PV energy                 =      -0.00697735 Ry

     iteration #  8     ecut=    30.00 Ry     beta=0.40
     CG style diagonalization
     ethr =  1.13E-12,  avg # of iterations =  3.8

     negative rho (up, down):  2.132E-04 0.000E+00

     add environment contribution to local potential
     polarization accuracy = 8.5E-12, # of iterations =   2

     total cpu time spent up to now is      196.6 secs

     total energy              =     -34.28856229 Ry
     Harris-Foulkes estimate   =     -34.18367361 Ry
     estimated scf accuracy    <          5.2E-11 Ry
     solvation energy          =      -0.03427324 Ry
     cavitation energy         =       0.01368949 Ry
     PV energy                 =      -0.00697734 Ry

     iteration #  9     ecut=    30.00 Ry     beta=0.40
     CG style diagonalization
     ethr =  6.55E-13,  avg # of iterations =  4.0

     negative rho (up, down):  2.132E-04 0.000E+00

     total cpu time spent up to now is      198.8 secs

     End of self-consistent calculation

          k = 0.0000 0.0000 0.0000 ( 22119 PWs)   bands (ev):

   -24.6627 -12.4362  -8.8083  -6.8527

     occupation numbers 
     1.0000   1.0000   1.0000   1.0000

     highest occupied level (ev):    -6.8527

!    total energy              =     -34.28856231 Ry
     Harris-Foulkes estimate   =     -34.18367451 Ry
     estimated scf accuracy    <          6.8E-13 Ry

     The total energy is the sum of the following terms:

     one-electron contribution =     -63.96664450 Ry
     hartree contribution      =      33.56171622 Ry
     xc contribution           =      -8.41539933 Ry
     ewald contribution        =       4.63665311 Ry
     solvation energy          =      -0.03427326 Ry
     cavitation energy         =       0.01368949 Ry
     PV energy                 =      -0.00697734 Ry

     charge density inside the Wigner-Seitz cell:    8.00000000

     reference position (x0):        11.84451685   11.76861580   11.50000000 bohr

     Dipole moments (with respect to x0):
     Elect   0.1824  -0.9420   0.0000 au (Ha),   0.4636  -2.3944   0.0000 Debye
     Ionic   0.0000   0.0000   0.0000 au (Ha),   0.0000   0.0000   0.0000 Debye
     Total   0.1824  -0.9420   0.0000 au (Ha),   0.4636  -2.3944   0.0000 Debye

     Electrons quadrupole moment        -20.12867659 a.u. (Ha)
          Ions quadrupole moment          6.18014826 a.u. (Ha)
         Total quadrupole moment        -13.94852833 a.u. (Ha)

     *********    MAKOV-PAYNE CORRECTION    *********

     Makov-Payne correction with Madelung constant =   2.8373

     Makov-Payne correction     0.00000000 Ry =  0.000 eV (1st order, 1/a0)
                                0.00048207 Ry =  0.007 eV (2nd order, 1/a0^3)
                                0.00048207 Ry =  0.007 eV (total)

!    Total+Makov-Payne energy  =     -34.28808024 Ry
     polarization accuracy = 6.8E-13, # of iterations =  18

     *******  ENVIRON-MAKOV-PAYNE CORRECTION  *******

     Dipole moments (with respect to x0):
     Envir  -0.1785   0.9219   0.0000 au (Ha),  -0.4537   2.3432   0.0000 Debye
     Full    0.0039  -0.0201   0.0000 au (Ha),   0.0099  -0.0512   0.0000 Debye

     Environ quadrupole moment          0.69766722 a.u. (Ha)
       FullB quadrupole moment        -13.25086111 a.u. (Ha)

     Environ correction         0.00000000 Ry =  0.000 eV (1st order diel, 1/a0)
                               -0.00047177 Ry = -0.006 eV (2nd order diel, 1/a0^3)
                                0.00000000 Ry =  0.000 eV (jellium, 1/a0^3)
                                0.00000662 Ry =  0.000 eV (periodic solutes, 1/a0^3)
                               -0.00046515 Ry = -0.006 eV (total diel)

!    Envir+Makov-Payne energy  =     -34.28854539 Ry

     convergence has been achieved in   9 iterations

     Forces acting on atoms (Ry/au):

     The dielectric solvent contribution to forces
     atom    1 type  2   force =     0.04906247   -0.25392110    0.00000000
     atom    2 type  1   force =     0.03940937   -0.03941591    0.00000000
     atom    3 type  1   force =    -0.02189380   -0.05119782    0.00000000
     The global environment contribution to forces
     atom    1 type  2   force =     0.04906247   -0.25392110    0.00000000
     atom    2 type  1   force =     0.03940937   -0.03941591    0.00000000
     atom    3 type  1   force =    -0.02189380   -0.05119782    0.00000000
 
     atom    1 type  2   force =    -0.00016446    0.00049930    0.00000000
     atom    2 type  1   force =    -0.00070969   -0.00045125    0.00000000
     atom    3 type  1   force =     0.00087415   -0.00004804    0.00000000
     The non-local contrib.  to forces
     atom    1 type  2   force =     0.43405903   -2.23959150    0.00000000
     atom    2 type  1   force =    -0.18373433    0.08433317    0.00000000
     atom    3 type  1   force =     0.13891766    0.14680572    0.00000000
     The ionic contribution  to forces
     atom    1 type  2   force =    -0.81229888    4.19178927    0.00000000
     atom    2 type  1   force =     3.37100113   -1.52168467    0.00000000
     atom    3 type  1   force =    -2.55870225   -2.67010460    0.00000000
     The local contribution  to forces
     atom    1 type  2   force =     0.32904811   -1.69776131    0.00000000
     atom    2 type  1   force =    -3.22735059    1.47633278    0.00000000
     atom    3 type  1   force =     2.44258744    2.57446526    0.00000000
     The core correction contribution to forces
     atom    1 type  2   force =     0.00000000    0.00000000    0.00000000
     atom    2 type  1   force =     0.00000000    0.00000000    0.00000000
     atom    3 type  1   force =     0.00000000    0.00000000    0.00000000
     The Hubbard contrib.    to forces
     atom    1 type  2   force =     0.00000000    0.00000000    0.00000000
     atom    2 type  1   force =     0.00000000    0.00000000    0.00000000
     atom    3 type  1   force =     0.00000000    0.00000000    0.00000000
     The SCF correction term to forces
     atom    1 type  2   force =    -0.00000012    0.00000088    0.00000000
     atom    2 type  1   force =    -0.00000018    0.00000032    0.00000000
     atom    3 type  1   force =     0.00000017    0.00000034    0.00000000

     Total force =     0.001323     Total SCF correction =     0.000001

     bfgs converged in   3 scf cycles and   2 bfgs steps
     (criteria: energy <  1.0E-04, force <  1.0E-03)

     End of BFGS Geometry Optimization

     Final energy   =     -34.2885623079 Ry
Begin final coordinates

ATOMIC_POSITIONS (bohr)
O       11.791226954  12.043785273  11.500000000
H       13.443024347  11.221852216  11.500000000
H       10.565748698  10.664362511  11.500000000
End final coordinates



     Writing output data file h2o_water.save
 
     init_run     :      1.73s CPU      2.24s WALL (       1 calls)
     electrons    :    160.91s CPU    182.19s WALL (       3 calls)
     update_pot   :      1.52s CPU      4.12s WALL (       2 calls)
     forces       :      1.86s CPU      2.59s WALL (       3 calls)

     Called by init_run:
     wfcinit      :      0.06s CPU      0.10s WALL (       1 calls)
     potinit      :      0.71s CPU      0.84s WALL (       1 calls)

     Called by electrons:
     c_bands      :      4.20s CPU      4.22s WALL (      26 calls)
     sum_band     :     15.17s CPU     20.26s WALL (      26 calls)
     v_of_rho     :     12.58s CPU     14.54s WALL (      29 calls)
     v_h          :      4.70s CPU      5.59s WALL (     109 calls)
     v_xc         :     11.34s CPU     12.67s WALL (      29 calls)
     newd         :      6.71s CPU     11.53s WALL (      29 calls)
     mix_rho      :      2.40s CPU      2.43s WALL (      26 calls)

     Called by c_bands:
     init_us_2    :      0.11s CPU      0.12s WALL (      53 calls)
     ccgdiagg     :      3.19s CPU      3.21s WALL (      26 calls)
     wfcrot       :      1.00s CPU      1.01s WALL (      26 calls)

     Called by sum_band:
     sum_band:bec :      0.00s CPU      0.00s WALL (      26 calls)
     addusdens    :     10.38s CPU     15.26s WALL (      26 calls)

     Called by *cgdiagg:
     h_psi        :      3.93s CPU      3.95s WALL (     333 calls)
     s_psi        :      0.07s CPU      0.07s WALL (     640 calls)
     cdiaghg      :      0.00s CPU      0.00s WALL (      26 calls)

     Called by h_psi:
     h_psi:vloc   :      3.69s CPU      3.71s WALL (     333 calls)
     h_psi:vnl    :      0.23s CPU      0.23s WALL (     333 calls)
     add_vuspsi   :      0.06s CPU      0.06s WALL (     333 calls)

     General routines
     calbec       :      0.22s CPU      0.23s WALL (     678 calls)
     fft          :     87.01s CPU     90.81s WALL (    2879 calls)
     ffts         :      0.31s CPU      0.35s WALL (      55 calls)
     fftw         :      3.11s CPU      3.12s WALL (     930 calls)
     interpolate  :      2.37s CPU      2.86s WALL (      55 calls)
     davcio       :      0.00s CPU      0.00s WALL (       3 calls)
 
     Parallel routines
     fft_scatter  :     45.16s CPU     47.90s WALL (    3864 calls)
 
     Environ routines
     calc_esolv   :      2.26s CPU      2.27s WALL (      26 calls)
     calc_vsolv   :     88.53s CPU     91.87s WALL (      24 calls)
     dielectric   :      5.03s CPU      5.97s WALL (      24 calls)
     get_rhopol   :     97.18s CPU     99.40s WALL (      27 calls)
     calc_veps    :      4.34s CPU      5.02s WALL (      24 calls)
     calc_ecav    :      4.79s CPU      5.36s WALL (      26 calls)
     calc_vcav    :     12.49s CPU     14.10s WALL (      24 calls)
     calc_epre    :      0.16s CPU      0.17s WALL (      26 calls)
     calc_vpre    :      0.18s CPU      0.18s WALL (      24 calls)
 
     PWSCF        :  2m58.13s CPU     3m28.44s WALL

 
   This run was terminated on:  14:27:42  26May2015            

=------------------------------------------------------------------------------=
   JOB DONE.
=------------------------------------------------------------------------------=
