
     Program PWSCF v.6.1 (svn rev. 13369) starts on 25Jan2018 at 23:31: 1 

     This program is part of the open-source Quantum ESPRESSO suite
     for quantum simulation of materials; please cite
         "P. Giannozzi et al., J. Phys.:Condens. Matter 21 395502 (2009);
          URL http://www.quantum-espresso.org", 
     in publications or presentations arising from this work. More details at
     http://www.quantum-espresso.org/quote

     Parallel version (MPI), running on     1 processors
     Waiting for input...
     Reading input from standard input

     Current dimensions of program PWSCF are:
     Max number of different atomic species (ntypx) = 10
     Max number of k-points (npk) =  40000
     Max angular momentum in pseudopotentials (lmaxx) =  3
               file H.pbe-rrkjus.UPF: wavefunction(s)  1S renormalized
               file O.pbe-rrkjus.UPF: wavefunction(s)  2S renormalized

     Subspace diagonalization in iterative solution of the eigenvalue problem:
     a serial algorithm will be used

 
     G-vector sticks info
     --------------------
     sticks:   dense  smooth     PW     G-vecs:    dense   smooth      PW
     Sum        9549    3809    949               701475   177509   22119
 


     bravais-lattice index     =            1
     lattice parameter (alat)  =      20.0000  a.u.
     unit-cell volume          =    8000.0000 (a.u.)^3
     number of atoms/cell      =            3
     number of atomic types    =            2
     number of electrons       =         8.00
     number of Kohn-Sham states=            4
     kinetic-energy cutoff     =      30.0000  Ry
     charge density cutoff     =     300.0000  Ry
     convergence threshold     =      5.0E-09
     mixing beta               =       0.4000
     number of iterations used =            8  plain     mixing
     Exchange-correlation      =  SLA  PW   PBE  PBE ( 1  4  3  4 0 0)
     nstep                     =           50

 

     Environ Module
     ==============

     Plese cite
         O. Andreussi, I. Dabo and N. Marzari, J. Chem. Phys. 136, 064102 (2012)         
     in publications or presentations arising from this work.

     compensation onset threshold      =               0.1000E+00 
     static permittivity               =                    78.30 
     epsilon calculation mode          =               electronic 
     surface tension in input (dyn/cm) =                    50.00 
     surface tension in internal units =               0.6423E-04 
     external pressure in input (GPa)  =                    -0.35 
     external pressure in inter. units =              -0.2379E-04 

     Electrostatic Setup
     -------------------
     electrostatic problem to solve    = generalized              
     numerical solver adopted          = cg                       
     type of auxiliary density adopted = none                     
     type of core tool for poisson     = fft                      
     type of core tool for s(r) deriv  = analytic                 



     celldm(1)=  20.000000  celldm(2)=   0.000000  celldm(3)=   0.000000
     celldm(4)=   0.000000  celldm(5)=   0.000000  celldm(6)=   0.000000

     crystal axes: (cart. coord. in units of alat)
               a(1) = (   1.000000   0.000000   0.000000 )  
               a(2) = (   0.000000   1.000000   0.000000 )  
               a(3) = (   0.000000   0.000000   1.000000 )  

     reciprocal axes: (cart. coord. in units 2 pi/alat)
               b(1) = (  1.000000  0.000000  0.000000 )  
               b(2) = (  0.000000  1.000000  0.000000 )  
               b(3) = (  0.000000  0.000000  1.000000 )  


     PseudoPot. # 1 for H  read from file:
     /home/fnattino/Programs/qe-6.1/pseudo/H.pbe-rrkjus.UPF
     MD5 check sum: 7cc9d459525c9a0585f487a71c3c9563
     Pseudo is Ultrasoft, Zval =  1.0
     Generated by new atomic code, or converted to UPF format
     Using radial grid of 1061 points,  2 beta functions with: 
                l(1) =   0
                l(2) =   0
     Q(r) pseudized with 0 coefficients 


     PseudoPot. # 2 for O  read from file:
     /home/fnattino/Programs/qe-6.1/pseudo/O.pbe-rrkjus.UPF
     MD5 check sum: 390ba29e75625707450f3bd3f0eb6be9
     Pseudo is Ultrasoft, Zval =  6.0
     Generated by new atomic code, or converted to UPF format
     Using radial grid of 1269 points,  4 beta functions with: 
                l(1) =   0
                l(2) =   0
                l(3) =   1
                l(4) =   1
     Q(r) pseudized with 0 coefficients 


     atomic species   valence    mass     pseudopotential
        H              1.00     1.00000     H ( 1.00)
        O              6.00    16.00000     O ( 1.00)

     No symmetry found


                                    s                        frac. trans.

      isym =  1     identity                                     

 cryst.   s( 1) = (     1          0          0      )
                  (     0          1          0      )
                  (     0          0          1      )

 cart.    s( 1) = (  1.0000000  0.0000000  0.0000000 )
                  (  0.0000000  1.0000000  0.0000000 )
                  (  0.0000000  0.0000000  1.0000000 )


     point group C_1 (1)    
     there are  1 classes
     the character table:

       E    
A      1.00

     the symmetry operations in each class and the name of the first element:

     E        1
          identity                                               

   Cartesian axes

     site n.     atom                  positions (alat units)
         1           O   tau(   1) = (   0.5895000   0.6025000   0.5750000  )
         2           H   tau(   2) = (   0.6725000   0.5610000   0.5750000  )
         3           H   tau(   3) = (   0.5280000   0.5330000   0.5750000  )

   Crystallographic axes

     site n.     atom                  positions (cryst. coord.)
         1           O   tau(   1) = (  0.5895000  0.6025000  0.5750000  )
         2           H   tau(   2) = (  0.6725000  0.5610000  0.5750000  )
         3           H   tau(   3) = (  0.5280000  0.5330000  0.5750000  )

     number of k points=     1
                       cart. coord. in units 2pi/alat
        k(    1) = (   0.0000000   0.0000000   0.0000000), wk =   2.0000000

                       cryst. coord.
        k(    1) = (   0.0000000   0.0000000   0.0000000), wk =   2.0000000

     Dense  grid:   701475 G-vectors     FFT dimensions: ( 120, 120, 120)

     Smooth grid:   177509 G-vectors     FFT dimensions: (  72,  72,  72)

     Estimated max dynamical RAM per process >     411.75MB

     Initial potential from superposition of free atoms
     Check: negative starting charge=   -0.000775

     starting charge    7.80759, renormalised to    8.00000

     negative rho (up, down):  7.936E-04 0.000E+00
     Starting wfc are    6 randomized atomic wfcs

     total cpu time spent up to now is        3.3 secs

     per-process dynamical memory:   696.5 Mb

     Self-consistent Calculation

     iteration #  1     ecut=    30.00 Ry     beta=0.40
     CG style diagonalization
     ethr =  1.00E-02,  avg # of iterations =  3.0

     negative rho (up, down):  4.642E-04 0.000E+00

     total cpu time spent up to now is        5.6 secs

     total energy              =     -34.21342767 Ry
     Harris-Foulkes estimate   =     -34.58548901 Ry
     estimated scf accuracy    <       0.67771187 Ry
     electrostatic embedding   =       0.00000000 Ry
     cavitation energy         =       0.02808377 Ry
     PV energy                 =      -0.02154747 Ry
     correction to one-el term =       0.00000000 Ry

     iteration #  2     ecut=    30.00 Ry     beta=0.40
     CG style diagonalization
     ethr =  8.47E-03,  avg # of iterations =  3.8

     negative rho (up, down):  2.934E-04 0.000E+00

     add environment contribution to local potential

     total cpu time spent up to now is       12.0 secs

     total energy              =     -34.27054087 Ry
     Harris-Foulkes estimate   =     -34.31757621 Ry
     estimated scf accuracy    <       0.09820248 Ry
     electrostatic embedding   =       0.00000000 Ry
     cavitation energy         =       0.01921142 Ry
     PV energy                 =      -0.01199462 Ry
     correction to one-el term =       0.00000000 Ry

     iteration #  3     ecut=    30.00 Ry     beta=0.40
     CG style diagonalization
     ethr =  1.23E-03,  avg # of iterations =  3.5

     negative rho (up, down):  7.484E-04 0.000E+00

     add environment contribution to local potential

     total cpu time spent up to now is       19.2 secs

     total energy              =     -34.27916899 Ry
     Harris-Foulkes estimate   =     -33.85193622 Ry
     estimated scf accuracy    <       0.02803245 Ry
     electrostatic embedding   =      -0.02800280 Ry
     cavitation energy         =       0.01556425 Ry
     PV energy                 =      -0.00852554 Ry
     correction to one-el term =      -0.42224565 Ry

     iteration #  4     ecut=    30.00 Ry     beta=0.40
     CG style diagonalization
     ethr =  3.50E-04,  avg # of iterations =  3.5

     negative rho (up, down):  5.466E-04 0.000E+00

     add environment contribution to local potential

     total cpu time spent up to now is       26.5 secs

     total energy              =     -34.28726671 Ry
     Harris-Foulkes estimate   =     -34.16313691 Ry
     estimated scf accuracy    <       0.00221044 Ry
     electrostatic embedding   =      -0.02766183 Ry
     cavitation energy         =       0.01365512 Ry
     PV energy                 =      -0.00694405 Ry
     correction to one-el term =      -0.10395472 Ry

     iteration #  5     ecut=    30.00 Ry     beta=0.40
     CG style diagonalization
     ethr =  2.76E-05,  avg # of iterations =  4.0

     negative rho (up, down):  1.119E-03 0.000E+00

     add environment contribution to local potential

     total cpu time spent up to now is       33.8 secs

     total energy              =     -34.28821282 Ry
     Harris-Foulkes estimate   =     -34.20769307 Ry
     estimated scf accuracy    <       0.00036822 Ry
     electrostatic embedding   =      -0.03114223 Ry
     cavitation energy         =       0.01376152 Ry
     PV energy                 =      -0.00702827 Ry
     correction to one-el term =      -0.05621023 Ry

     iteration #  6     ecut=    30.00 Ry     beta=0.40
     CG style diagonalization
     ethr =  4.60E-06,  avg # of iterations =  4.0

     negative rho (up, down):  5.611E-04 0.000E+00

     add environment contribution to local potential

     total cpu time spent up to now is       41.1 secs

     total energy              =     -34.28841810 Ry
     Harris-Foulkes estimate   =     -34.23748469 Ry
     estimated scf accuracy    <       0.00002672 Ry
     electrostatic embedding   =      -0.03311551 Ry
     cavitation energy         =       0.01368302 Ry
     PV energy                 =      -0.00696869 Ry
     correction to one-el term =      -0.02454658 Ry

     iteration #  7     ecut=    30.00 Ry     beta=0.40
     CG style diagonalization
     ethr =  3.34E-07,  avg # of iterations =  4.0

     negative rho (up, down):  2.849E-04 0.000E+00

     add environment contribution to local potential

     total cpu time spent up to now is       48.4 secs

     total energy              =     -34.28844394 Ry
     Harris-Foulkes estimate   =     -34.23113546 Ry
     estimated scf accuracy    <       0.00000551 Ry
     electrostatic embedding   =      -0.03427305 Ry
     cavitation energy         =       0.01373758 Ry
     PV energy                 =      -0.00701285 Ry
     correction to one-el term =      -0.02976484 Ry

     iteration #  8     ecut=    30.00 Ry     beta=0.40
     CG style diagonalization
     ethr =  6.89E-08,  avg # of iterations =  4.0

     negative rho (up, down):  2.411E-04 0.000E+00

     add environment contribution to local potential

     total cpu time spent up to now is       55.7 secs

     total energy              =     -34.28844596 Ry
     Harris-Foulkes estimate   =     -34.22987191 Ry
     estimated scf accuracy    <       0.00000158 Ry
     electrostatic embedding   =      -0.03408587 Ry
     cavitation energy         =       0.01371464 Ry
     PV energy                 =      -0.00699552 Ry
     correction to one-el term =      -0.03120819 Ry

     iteration #  9     ecut=    30.00 Ry     beta=0.40
     CG style diagonalization
     ethr =  1.97E-08,  avg # of iterations =  4.0

     negative rho (up, down):  2.243E-04 0.000E+00

     add environment contribution to local potential

     total cpu time spent up to now is       63.0 secs

     total energy              =     -34.28844776 Ry
     Harris-Foulkes estimate   =     -34.22892521 Ry
     estimated scf accuracy    <       0.00000026 Ry
     electrostatic embedding   =      -0.03431351 Ry
     cavitation energy         =       0.01372145 Ry
     PV energy                 =      -0.00700118 Ry
     correction to one-el term =      -0.03192950 Ry

     iteration # 10     ecut=    30.00 Ry     beta=0.40
     CG style diagonalization
     ethr =  3.21E-09,  avg # of iterations =  4.0

     negative rho (up, down):  2.156E-04 0.000E+00

     add environment contribution to local potential

     total cpu time spent up to now is       70.3 secs

     total energy              =     -34.28844824 Ry
     Harris-Foulkes estimate   =     -34.22837575 Ry
     estimated scf accuracy    <       0.00000002 Ry
     electrostatic embedding   =      -0.03443316 Ry
     cavitation energy         =       0.01371888 Ry
     PV energy                 =      -0.00699950 Ry
     correction to one-el term =      -0.03235873 Ry

     iteration # 11     ecut=    30.00 Ry     beta=0.40
     CG style diagonalization
     ethr =  1.95E-10,  avg # of iterations =  4.2

     negative rho (up, down):  2.124E-04 0.000E+00

     total cpu time spent up to now is       72.3 secs

     End of self-consistent calculation

          k = 0.0000 0.0000 0.0000 ( 22119 PWs)   bands (ev):

   -24.6754 -12.4431  -8.8790  -6.9126

     occupation numbers 
     1.0000   1.0000   1.0000   1.0000

     highest occupied level (ev):    -6.9126

!    total energy              =     -34.28844821 Ry
     Harris-Foulkes estimate   =     -34.22821256 Ry
     estimated scf accuracy    <          4.9E-10 Ry

     The total energy is the sum of the following terms:

     one-electron contribution =     -63.88225626 Ry
     hartree contribution      =      33.50183725 Ry
     xc contribution           =      -8.40515125 Ry
     ewald contribution        =       4.55735774 Ry
     electrostatic embedding   =      -0.03445939 Ry
     cavitation energy         =       0.01371865 Ry
     PV energy                 =      -0.00699938 Ry
     correction to one-el term =      -0.03249557 Ry

     convergence has been achieved in  11 iterations
     The global environment contribution to forces
     atom    1 type  2   force =     0.04900457   -0.25376492    0.00000000
     atom    2 type  1   force =     0.03951849   -0.03945135    0.00000001
     atom    3 type  1   force =    -0.02199494   -0.05128508   -0.00000000
 

     Forces acting on atoms (cartesian axes, Ry/au):

     atom    1 type  2   force =     0.00226533   -0.01218353    0.00000001
     atom    2 type  1   force =    -0.01035758    0.00427445   -0.00000000
     atom    3 type  1   force =     0.00809225    0.00790908   -0.00000001
     The non-local contrib.  to forces
     atom    1 type  2   force =     0.43426589   -2.24095089    0.00000000
     atom    2 type  1   force =    -0.18031324    0.08317091   -0.00000000
     atom    3 type  1   force =     0.13617556    0.14446113    0.00000000
     The ionic contribution  to forces
     atom    1 type  2   force =    -0.80474894    4.15284562   -0.00000000
     atom    2 type  1   force =     3.32883149   -1.50955609    0.00000000
     atom    3 type  1   force =    -2.52408255   -2.64328953    0.00000000
     The local contribution  to forces
     atom    1 type  2   force =     0.32373788   -1.67033361   -0.00000004
     atom    2 type  1   force =    -3.19841529    1.47015484   -0.00000001
     atom    3 type  1   force =     2.41797538    2.55806636   -0.00000000
     The core correction contribution to forces
     atom    1 type  2   force =     0.00000000    0.00000000    0.00000000
     atom    2 type  1   force =     0.00000000    0.00000000    0.00000000
     atom    3 type  1   force =     0.00000000    0.00000000    0.00000000
     The Hubbard contrib.    to forces
     atom    1 type  2   force =     0.00000000    0.00000000    0.00000000
     atom    2 type  1   force =     0.00000000    0.00000000    0.00000000
     atom    3 type  1   force =     0.00000000    0.00000000    0.00000000
     The SCF correction term to forces
     atom    1 type  2   force =    -0.00001399    0.00006418    0.00000004
     atom    2 type  1   force =     0.00000107    0.00000005    0.00000000
     atom    3 type  1   force =    -0.00000111    0.00000010   -0.00000000

     Total force =     0.020178     Total SCF correction =     0.000066

     BFGS Geometry Optimization

     number of scf cycles    =   1
     number of bfgs steps    =   0

     energy   new            =     -34.2884482091 Ry

     new trust radius        =       0.0123923380 bohr
     new conv_thr            =       0.0000000050 Ry


ATOMIC_POSITIONS (bohr)
O       11.792265326  12.037816473  11.500000006
H       13.439642419  11.224274449  11.500000000
H       10.568092254  10.667909079  11.499999994



     Writing output data file h2o_water_cg.save
     Check: negative starting charge=   -0.000775
     NEW-OLD atomic charge density approx. for the potential
     Check: negative starting charge=   -0.000776

     negative rho (up, down):  7.006E-04 0.000E+00

     add environment contribution to local potential

     total cpu time spent up to now is       80.4 secs

     per-process dynamical memory:   696.5 Mb

     Self-consistent Calculation

     iteration #  1     ecut=    30.00 Ry     beta=0.40
     CG style diagonalization
     ethr =  1.00E-06,  avg # of iterations =  4.8

     negative rho (up, down):  4.719E-04 0.000E+00

     add environment contribution to local potential

     total cpu time spent up to now is       87.7 secs

     total energy              =     -34.28843592 Ry
     Harris-Foulkes estimate   =     -34.22557653 Ry
     estimated scf accuracy    <       0.00034432 Ry
     electrostatic embedding   =      -0.03412847 Ry
     cavitation energy         =       0.01368999 Ry
     PV energy                 =      -0.00697918 Ry
     correction to one-el term =      -0.03561568 Ry

     iteration #  2     ecut=    30.00 Ry     beta=0.40
     CG style diagonalization
     ethr =  4.30E-06,  avg # of iterations =  4.0

     negative rho (up, down):  3.574E-04 0.000E+00

     add environment contribution to local potential

     total cpu time spent up to now is       95.0 secs

     total energy              =     -34.28850323 Ry
     Harris-Foulkes estimate   =     -34.22559300 Ry
     estimated scf accuracy    <       0.00001859 Ry
     electrostatic embedding   =      -0.03428620 Ry
     cavitation energy         =       0.01365682 Ry
     PV energy                 =      -0.00695347 Ry
     correction to one-el term =      -0.03533373 Ry

     iteration #  3     ecut=    30.00 Ry     beta=0.40
     CG style diagonalization
     ethr =  2.32E-07,  avg # of iterations =  4.0

     negative rho (up, down):  2.501E-04 0.000E+00

     add environment contribution to local potential

     total cpu time spent up to now is      102.3 secs

     total energy              =     -34.28850487 Ry
     Harris-Foulkes estimate   =     -34.22517536 Ry
     estimated scf accuracy    <       0.00000444 Ry
     electrostatic embedding   =      -0.03420229 Ry
     cavitation energy         =       0.01366354 Ry
     PV energy                 =      -0.00695841 Ry
     correction to one-el term =      -0.03583413 Ry

     iteration #  4     ecut=    30.00 Ry     beta=0.40
     CG style diagonalization
     ethr =  5.54E-08,  avg # of iterations =  4.0

     negative rho (up, down):  2.303E-04 0.000E+00

     add environment contribution to local potential

     total cpu time spent up to now is      109.6 secs

     total energy              =     -34.28850563 Ry
     Harris-Foulkes estimate   =     -34.22471126 Ry
     estimated scf accuracy    <       0.00000027 Ry
     electrostatic embedding   =      -0.03415005 Ry
     cavitation energy         =       0.01366597 Ry
     PV energy                 =      -0.00695995 Ry
     correction to one-el term =      -0.03635038 Ry

     iteration #  5     ecut=    30.00 Ry     beta=0.40
     CG style diagonalization
     ethr =  3.38E-09,  avg # of iterations =  4.0

     negative rho (up, down):  2.180E-04 0.000E+00

     add environment contribution to local potential

     total cpu time spent up to now is      116.9 secs

     total energy              =     -34.28850569 Ry
     Harris-Foulkes estimate   =     -34.22464253 Ry
     estimated scf accuracy    <       0.00000003 Ry
     electrostatic embedding   =      -0.03415944 Ry
     cavitation energy         =       0.01366792 Ry
     PV energy                 =      -0.00696140 Ry
     correction to one-el term =      -0.03641022 Ry

     iteration #  6     ecut=    30.00 Ry     beta=0.40
     CG style diagonalization
     ethr =  3.36E-10,  avg # of iterations =  3.2

     negative rho (up, down):  2.136E-04 0.000E+00

     total cpu time spent up to now is      118.9 secs

     End of self-consistent calculation

          k = 0.0000 0.0000 0.0000 ( 22119 PWs)   bands (ev):

   -24.7747 -12.5633  -8.8729  -6.9332

     occupation numbers 
     1.0000   1.0000   1.0000   1.0000

     highest occupied level (ev):    -6.9332

!    total energy              =     -34.28850575 Ry
     Harris-Foulkes estimate   =     -34.22457190 Ry
     estimated scf accuracy    <          2.9E-09 Ry

     The total energy is the sum of the following terms:

     one-electron contribution =     -64.10034627 Ry
     hartree contribution      =      33.60540459 Ry
     xc contribution           =      -8.42288112 Ry
     ewald contribution        =       4.69325081 Ry
     electrostatic embedding   =      -0.03416423 Ry
     cavitation energy         =       0.01366895 Ry
     PV energy                 =      -0.00696213 Ry
     correction to one-el term =      -0.03647636 Ry

     convergence has been achieved in   6 iterations
     The global environment contribution to forces
     atom    1 type  2   force =     0.04883409   -0.25339301   -0.00000000
     atom    2 type  1   force =     0.03946847   -0.03920821   -0.00000000
     atom    3 type  1   force =    -0.02208973   -0.05105372   -0.00000000
 

     Forces acting on atoms (cartesian axes, Ry/au):

     atom    1 type  2   force =    -0.00190589    0.01034982    0.00000000
     atom    2 type  1   force =     0.00595849   -0.00415433   -0.00000000
     atom    3 type  1   force =    -0.00405260   -0.00619550   -0.00000000
     The non-local contrib.  to forces
     atom    1 type  2   force =     0.43341941   -2.23583923   -0.00000002
     atom    2 type  1   force =    -0.18636772    0.08478144    0.00000000
     atom    3 type  1   force =     0.14123756    0.14828967    0.00000000
     The ionic contribution  to forces
     atom    1 type  2   force =    -0.81546636    4.21150100    0.00000004
     atom    2 type  1   force =     3.40317764   -1.52511922   -0.00000001
     atom    3 type  1   force =    -2.58771128   -2.68638178   -0.00000002
     The local contribution  to forces
     atom    1 type  2   force =     0.33125116   -1.71187358   -0.00000002
     atom    2 type  1   force =    -3.25037422    1.47539300    0.00000001
     atom    3 type  1   force =     2.46446830    2.58295404    0.00000002
     The core correction contribution to forces
     atom    1 type  2   force =     0.00000000    0.00000000    0.00000000
     atom    2 type  1   force =     0.00000000    0.00000000    0.00000000
     atom    3 type  1   force =     0.00000000    0.00000000    0.00000000
     The Hubbard contrib.    to forces
     atom    1 type  2   force =     0.00000000    0.00000000    0.00000000
     atom    2 type  1   force =     0.00000000    0.00000000    0.00000000
     atom    3 type  1   force =     0.00000000    0.00000000    0.00000000
     The SCF correction term to forces
     atom    1 type  2   force =     0.00000877   -0.00005016   -0.00000000
     atom    2 type  1   force =     0.00000728   -0.00000614    0.00000000
     atom    3 type  1   force =    -0.00000448   -0.00000851   -0.00000000

     Total force =     0.014776     Total SCF correction =     0.000053

     number of scf cycles    =   2
     number of bfgs steps    =   1

     energy   old            =     -34.2884482091 Ry
     energy   new            =     -34.2885057531 Ry

     CASE: energy  _new < energy  _old

     new trust radius        =       0.0060346592 bohr
     new conv_thr            =            5.0E-11 Ry


ATOMIC_POSITIONS (bohr)
O       11.791172600  12.043751375  11.500000006
H       13.443033100  11.221887424  11.500000000
H       10.565794300  10.664361201  11.499999994



     Writing output data file h2o_water_cg.save
     Check: negative starting charge=   -0.000776
     NEW-OLD atomic charge density approx. for the potential
     Check: negative starting charge=   -0.000775

     negative rho (up, down):  2.430E-04 0.000E+00

     add environment contribution to local potential

     total cpu time spent up to now is      127.0 secs

     per-process dynamical memory:   696.5 Mb

     Self-consistent Calculation

     iteration #  1     ecut=    30.00 Ry     beta=0.40
     CG style diagonalization
     ethr =  1.00E-06,  avg # of iterations =  3.8

     negative rho (up, down):  2.166E-04 0.000E+00

     add environment contribution to local potential

     total cpu time spent up to now is      134.3 secs

     total energy              =     -34.28855631 Ry
     Harris-Foulkes estimate   =     -34.22581516 Ry
     estimated scf accuracy    <       0.00005996 Ry
     electrostatic embedding   =      -0.03430325 Ry
     cavitation energy         =       0.01367962 Ry
     PV energy                 =      -0.00696959 Ry
     correction to one-el term =      -0.03517785 Ry

     iteration #  2     ecut=    30.00 Ry     beta=0.40
     CG style diagonalization
     ethr =  7.49E-07,  avg # of iterations =  4.0

     negative rho (up, down):  2.075E-04 0.000E+00

     add environment contribution to local potential

     total cpu time spent up to now is      141.6 secs

     total energy              =     -34.28856913 Ry
     Harris-Foulkes estimate   =     -34.22579914 Ry
     estimated scf accuracy    <       0.00000339 Ry
     electrostatic embedding   =      -0.03423351 Ry
     cavitation energy         =       0.01369320 Ry
     PV energy                 =      -0.00698014 Ry
     correction to one-el term =      -0.03525061 Ry

     iteration #  3     ecut=    30.00 Ry     beta=0.40
     CG style diagonalization
     ethr =  4.24E-08,  avg # of iterations =  4.0

     negative rho (up, down):  2.135E-04 0.000E+00

     add environment contribution to local potential

     total cpu time spent up to now is      148.9 secs

     total energy              =     -34.28856965 Ry
     Harris-Foulkes estimate   =     -34.22595541 Ry
     estimated scf accuracy    <       0.00000081 Ry
     electrostatic embedding   =      -0.03427332 Ry
     cavitation energy         =       0.01369066 Ry
     PV energy                 =      -0.00697826 Ry
     correction to one-el term =      -0.03505348 Ry

     iteration #  4     ecut=    30.00 Ry     beta=0.40
     CG style diagonalization
     ethr =  1.01E-08,  avg # of iterations =  4.0

     negative rho (up, down):  2.118E-04 0.000E+00

     add environment contribution to local potential

     total cpu time spent up to now is      156.2 secs

     total energy              =     -34.28856984 Ry
     Harris-Foulkes estimate   =     -34.22614207 Ry
     estimated scf accuracy    <       0.00000005 Ry
     electrostatic embedding   =      -0.03430023 Ry
     cavitation energy         =       0.01369007 Ry
     PV energy                 =      -0.00697792 Ry
     correction to one-el term =      -0.03483973 Ry

     iteration #  5     ecut=    30.00 Ry     beta=0.40
     CG style diagonalization
     ethr =  6.19E-10,  avg # of iterations =  4.0

     negative rho (up, down):  2.140E-04 0.000E+00

     add environment contribution to local potential

     total cpu time spent up to now is      163.5 secs

     total energy              =     -34.28856983 Ry
     Harris-Foulkes estimate   =     -34.22616851 Ry
     estimated scf accuracy    <          5.1E-09 Ry
     electrostatic embedding   =      -0.03429537 Ry
     cavitation energy         =       0.01368936 Ry
     PV energy                 =      -0.00697739 Ry
     correction to one-el term =      -0.03481792 Ry

     iteration #  6     ecut=    30.00 Ry     beta=0.40
     CG style diagonalization
     ethr =  6.40E-11,  avg # of iterations =  3.2

     negative rho (up, down):  2.135E-04 0.000E+00

     add environment contribution to local potential

     total cpu time spent up to now is      170.8 secs

     total energy              =     -34.28856980 Ry
     Harris-Foulkes estimate   =     -34.22620734 Ry
     estimated scf accuracy    <          5.1E-10 Ry
     electrostatic embedding   =      -0.03429245 Ry
     cavitation energy         =       0.01368887 Ry
     PV energy                 =      -0.00697704 Ry
     correction to one-el term =      -0.03478185 Ry

     iteration #  7     ecut=    30.00 Ry     beta=0.40
     CG style diagonalization
     ethr =  6.42E-12,  avg # of iterations =  3.8

     negative rho (up, down):  2.132E-04 0.000E+00

     total cpu time spent up to now is      172.8 secs

     End of self-consistent calculation

          k = 0.0000 0.0000 0.0000 ( 22119 PWs)   bands (ev):

   -24.7350 -12.5083  -8.8802  -6.9249

     occupation numbers 
     1.0000   1.0000   1.0000   1.0000

     highest occupied level (ev):    -6.9249

!    total energy              =     -34.28856978 Ry
     Harris-Foulkes estimate   =     -34.22620903 Ry
     estimated scf accuracy    <          3.7E-11 Ry

     The total energy is the sum of the following terms:

     one-electron contribution =     -64.00978613 Ry
     hartree contribution      =      33.56215917 Ry
     xc contribution           =      -8.41547036 Ry
     ewald contribution        =       4.63688831 Ry
     electrostatic embedding   =      -0.03429125 Ry
     cavitation energy         =       0.01368892 Ry
     PV energy                 =      -0.00697707 Ry
     correction to one-el term =      -0.03478137 Ry

     convergence has been achieved in   7 iterations
     The global environment contribution to forces
     atom    1 type  2   force =     0.04893201   -0.25378289   -0.00000000
     atom    2 type  1   force =     0.03942137   -0.03938932   -0.00000000
     atom    3 type  1   force =    -0.02196921   -0.05120471   -0.00000000
 

     Forces acting on atoms (cartesian axes, Ry/au):

     atom    1 type  2   force =    -0.00014591    0.00049087    0.00000000
     atom    2 type  1   force =    -0.00072892   -0.00040461   -0.00000000
     atom    3 type  1   force =     0.00087482   -0.00008626   -0.00000000
     The non-local contrib.  to forces
     atom    1 type  2   force =     0.43409657   -2.23964431   -0.00000002
     atom    2 type  1   force =    -0.18374174    0.08431907    0.00000000
     atom    3 type  1   force =     0.13894176    0.14683438    0.00000000
     The ionic contribution  to forces
     atom    1 type  2   force =    -0.81213198    4.19191875    0.00000004
     atom    2 type  1   force =     3.37099328   -1.52148322   -0.00000001
     atom    3 type  1   force =    -2.55886130   -2.67043554   -0.00000002
     The local contribution  to forces
     atom    1 type  2   force =     0.32891129   -1.69798401   -0.00000002
     atom    2 type  1   force =    -3.22744524    1.47615222    0.00000001
     atom    3 type  1   force =     2.44271982    2.57472291    0.00000002
     The core correction contribution to forces
     atom    1 type  2   force =     0.00000000    0.00000000    0.00000000
     atom    2 type  1   force =     0.00000000    0.00000000    0.00000000
     atom    3 type  1   force =     0.00000000    0.00000000    0.00000000
     The Hubbard contrib.    to forces
     atom    1 type  2   force =     0.00000000    0.00000000    0.00000000
     atom    2 type  1   force =     0.00000000    0.00000000    0.00000000
     atom    3 type  1   force =     0.00000000    0.00000000    0.00000000
     The SCF correction term to forces
     atom    1 type  2   force =     0.00000271   -0.00001345    0.00000000
     atom    2 type  1   force =    -0.00000008   -0.00000014   -0.00000000
     atom    3 type  1   force =     0.00000026   -0.00000009   -0.00000000

     Total force =     0.001315     Total SCF correction =     0.000014

     bfgs converged in   3 scf cycles and   2 bfgs steps
     (criteria: energy <  1.0E-04 Ry, force <  1.0E-03 Ry/Bohr)

     End of BFGS Geometry Optimization

     Final energy   =     -34.2885697760 Ry
Begin final coordinates

ATOMIC_POSITIONS (bohr)
O       11.791172600  12.043751375  11.500000006
H       13.443033100  11.221887424  11.500000000
H       10.565794300  10.664361201  11.499999994
End final coordinates



     Writing output data file h2o_water_cg.save
 
     init_run     :      3.06s CPU      3.24s WALL (       1 calls)
     electrons    :    145.13s CPU    153.53s WALL (       3 calls)
     update_pot   :      1.39s CPU      1.43s WALL (       2 calls)
     forces       :      1.92s CPU      2.11s WALL (       3 calls)

     Called by init_run:
     wfcinit      :      0.05s CPU      0.05s WALL (       1 calls)
     wfcinit:atom :      0.00s CPU      0.00s WALL (       1 calls)
     wfcinit:wfcr :      0.04s CPU      0.04s WALL (       1 calls)
     potinit      :      1.66s CPU      1.72s WALL (       1 calls)

     Called by electrons:
     c_bands      :      3.14s CPU      3.15s WALL (      24 calls)
     sum_band     :      9.53s CPU     10.50s WALL (      24 calls)
     v_of_rho     :     11.89s CPU     12.35s WALL (      27 calls)
     v_h          :     18.25s CPU     21.42s WALL (     593 calls)
     v_xc         :     11.04s CPU     11.45s WALL (      27 calls)
     newd         :      5.20s CPU      6.27s WALL (      27 calls)
     mix_rho      :      1.63s CPU      1.63s WALL (      24 calls)

     Called by c_bands:
     init_us_2    :      0.18s CPU      0.18s WALL (      49 calls)
     ccgdiagg     :      2.43s CPU      2.44s WALL (      24 calls)
     wfcrot       :      0.66s CPU      0.66s WALL (      22 calls)

     Called by sum_band:
     sum_band:bec :      0.00s CPU      0.00s WALL (      24 calls)
     addusdens    :      6.86s CPU      7.82s WALL (      24 calls)

     Called by *cgdiagg:
     h_psi        :      2.73s CPU      2.74s WALL (     309 calls)
     s_psi        :      0.11s CPU      0.12s WALL (     596 calls)
     cdiaghg      :      0.00s CPU      0.00s WALL (      22 calls)

     Called by h_psi:
     h_psi:pot    :      2.71s CPU      2.72s WALL (     309 calls)
     h_psi:calbec :      0.10s CPU      0.11s WALL (     309 calls)
     vloc_psi     :      2.54s CPU      2.54s WALL (     309 calls)
     add_vuspsi   :      0.07s CPU      0.07s WALL (     309 calls)
     h_1psi       :      2.17s CPU      2.17s WALL (     287 calls)

     General routines
     calbec       :      0.18s CPU      0.18s WALL (     632 calls)
     fft          :     42.36s CPU     44.36s WALL (    2009 calls)
     ffts         :      0.17s CPU      0.17s WALL (      51 calls)
     fftw         :      1.94s CPU      1.93s WALL (     850 calls)
     interpolate  :      1.57s CPU      1.58s WALL (      51 calls)
     davcio       :      0.00s CPU      0.00s WALL (       3 calls)
 
     Parallel routines
     fft_scatter  :     11.21s CPU     12.17s WALL (    2910 calls)
 
     Environ routines
     calc_eelect  :      0.03s CPU      0.07s WALL (      48 calls)
     calc_velect  :    100.98s CPU    106.68s WALL (      44 calls)
     dielectric   :      1.50s CPU      1.51s WALL (      30 calls)
     calc_felect  :      0.46s CPU      0.47s WALL (       3 calls)
 
     PWSCF        :  2m44.13s CPU     2m53.63s WALL

 
   This run was terminated on:  23:33:54  25Jan2018            

=------------------------------------------------------------------------------=
   JOB DONE.
=------------------------------------------------------------------------------=
