
     Program PWSCF v.6.7MaX starts on  5Mar2021 at  9:56:27 

     This program is part of the open-source Quantum ESPRESSO suite
     for quantum simulation of materials; please cite
         "P. Giannozzi et al., J. Phys.:Condens. Matter 21 395502 (2009);
         "P. Giannozzi et al., J. Phys.:Condens. Matter 29 465901 (2017);
          URL http://www.quantum-espresso.org", 
     in publications or presentations arising from this work. More details at
     http://www.quantum-espresso.org/quote

     Parallel version (MPI), running on     1 processors

     MPI processes distributed on     1 nodes
     Waiting for input...
     Reading input from standard input

     Current dimensions of program PWSCF are:
     Max number of different atomic species (ntypx) = 10
     Max number of k-points (npk) =  40000
     Max angular momentum in pseudopotentials (lmaxx) =  3
     file C.pbe-rrkjus.UPF: wavefunction(s)  2S 2P renormalized
     file H.pbe-rrkjus.UPF: wavefunction(s)  1S renormalized
     file N.pbe-rrkjus.UPF: wavefunction(s)  2S renormalized
     file O.pbe-rrkjus.UPF: wavefunction(s)  2S renormalized

     gamma-point specific algorithms are used

     Subspace diagonalization in iterative solution of the eigenvalue problem:
     a serial algorithm will be used


     G-vector sticks info
     --------------------
     sticks:   dense  smooth     PW     G-vecs:    dense   smooth      PW
     Sum        2385     949    241                87655    22119    2777



     bravais-lattice index     =            1
     lattice parameter (alat)  =      10.0000  a.u.
     unit-cell volume          =    1000.0000 (a.u.)^3
     number of atoms/cell      =           10
     number of atomic types    =            4
     number of electrons       =        24.00
     number of Kohn-Sham states=           12
     kinetic-energy cutoff     =      30.0000  Ry
     charge density cutoff     =     300.0000  Ry
     scf convergence threshold =      5.0E-03
     mixing beta               =       0.7000
     number of iterations used =            8  plain     mixing
     Exchange-correlation= SLA  PW   PBE  PBE
                           (   1   4   3   4   0   0   0)


     Environ Module
     ==============

     Plese cite
         O. Andreussi, I. Dabo and N. Marzari, J. Chem. Phys. 136, 064102 (2012)         
     in publications or presentations arising from this work.

     compensation onset threshold      =               0.1000E+03 
     static permittivity               =                   100.00 
     epsilon calculation mode          =               electronic 

     Electrostatic Setup
     -------------------
     electrostatic problem to solve    = generalized              
     numerical solver adopted          = cg                       
     type of auxiliary density adopted = none                     
     type of core tool for poisson     = fft                      



     celldm(1)=  10.000000  celldm(2)=   0.000000  celldm(3)=   0.000000
     celldm(4)=   0.000000  celldm(5)=   0.000000  celldm(6)=   0.000000

     crystal axes: (cart. coord. in units of alat)
               a(1) = (   1.000000   0.000000   0.000000 )  
               a(2) = (   0.000000   1.000000   0.000000 )  
               a(3) = (   0.000000   0.000000   1.000000 )  

     reciprocal axes: (cart. coord. in units 2 pi/alat)
               b(1) = (  1.000000  0.000000  0.000000 )  
               b(2) = (  0.000000  1.000000  0.000000 )  
               b(3) = (  0.000000  0.000000  1.000000 )  


     PseudoPot. # 1 for C  read from file:
     ../../../pseudo/C.pbe-rrkjus.UPF
     MD5 check sum: c9ac5a99bc85b198593446162950cd17
     Pseudo is Ultrasoft, Zval =  4.0
     Generated by new atomic code, or converted to UPF format
     Using radial grid of  627 points,  4 beta functions with: 
                l(1) =   0
                l(2) =   0
                l(3) =   1
                l(4) =   1
     Q(r) pseudized with 0 coefficients 


     PseudoPot. # 2 for H  read from file:
     ../../../pseudo/H.pbe-rrkjus.UPF
     MD5 check sum: 2d52a7f45632fd764c17cc6affed14c8
     Pseudo is Ultrasoft, Zval =  1.0
     Generated by new atomic code, or converted to UPF format
     Using radial grid of 1061 points,  2 beta functions with: 
                l(1) =   0
                l(2) =   0
     Q(r) pseudized with 0 coefficients 


     PseudoPot. # 3 for N  read from file:
     ../../../pseudo/N.pbe-rrkjus.UPF
     MD5 check sum: 28c76d763763edb36c62a6ca2be9aebd
     Pseudo is Ultrasoft, Zval =  5.0
     Generated by new atomic code, or converted to UPF format
     Using radial grid of 1257 points,  4 beta functions with: 
                l(1) =   0
                l(2) =   0
                l(3) =   1
                l(4) =   1
     Q(r) pseudized with 0 coefficients 


     PseudoPot. # 4 for O  read from file:
     ../../../pseudo/O.pbe-rrkjus.UPF
     MD5 check sum: fadcf19ee70a498d3030e2e79cf929a4
     Pseudo is Ultrasoft, Zval =  6.0
     Generated by new atomic code, or converted to UPF format
     Using radial grid of 1269 points,  4 beta functions with: 
                l(1) =   0
                l(2) =   0
                l(3) =   1
                l(4) =   1
     Q(r) pseudized with 0 coefficients 


     atomic species   valence    mass     pseudopotential
        C              4.00    12.00000     C ( 1.00)
        H              1.00     1.00000     H ( 1.00)
        N              5.00    14.00000     N ( 1.00)
        O              6.00    16.00000     O ( 1.00)

     No symmetry found



   Cartesian axes

     site n.     atom                  positions (alat units)
         1           C   tau(   1) = (   0.0000000   0.0000000   0.0000000  )
         2           C   tau(   2) = (   0.0000000   0.0000000   0.2910178  )
         3           N   tau(   3) = (   0.2341938   0.0000000  -0.1090048  )
         4           H   tau(   4) = (   0.0953235  -0.1650932   0.3584180  )
         5           H   tau(   5) = (  -0.1906366  -0.0000060   0.3584181  )
         6           H   tau(   6) = (   0.0953131   0.1650992   0.3584180  )
         7           O   tau(   7) = (  -0.1968004  -0.0000037  -0.1282619  )
         8           H   tau(   8) = (   0.2526261  -0.0000030  -0.2951095  )
         9           H   tau(   9) = (   0.3889291   0.0000268  -0.0051433  )
        10           H   tau(  10) = (  -0.1540732  -0.0000089  -0.3045722  )

     number of k points=     1
                       cart. coord. in units 2pi/alat
        k(    1) = (   0.0000000   0.0000000   0.0000000), wk =   2.0000000

     Dense  grid:    43828 G-vectors     FFT dimensions: (  60,  60,  60)

     Smooth grid:    11060 G-vectors     FFT dimensions: (  36,  36,  36)

     Estimated max dynamical RAM per process >      79.39 MB

     Initial potential from superposition of free atoms

     starting charge   24.42266, renormalised to   24.00000
     Starting wfcs are   22 randomized atomic wfcs

     total cpu time spent up to now is        8.0 secs

     Self-consistent Calculation

     iteration #  1     ecut=    30.00 Ry     beta= 0.70
     Davidson diagonalization with overlap
     ethr =  1.00E-02,  avg # of iterations =  2.0

     add environment contribution to local potential
     polarization accuracy = 8.3E-06, # of iterations =  28

     total cpu time spent up to now is       37.3 secs

     total energy              =     -80.55593011 Ry
     estimated scf accuracy    <       3.21197354 Ry
     electrostatic embedding   =       0.03926991 Ry
     correction to one-el term =      -0.00000000 Ry

     iteration #  2     ecut=    30.00 Ry     beta= 0.70
     Davidson diagonalization with overlap
     ethr =  1.00E-02,  avg # of iterations =  3.0

     add environment contribution to local potential
     polarization accuracy = 6.6E-06, # of iterations =  27

     total cpu time spent up to now is       66.6 secs

     total energy              =     -81.17471507 Ry
     estimated scf accuracy    <       0.81592388 Ry
     electrostatic embedding   =       0.21752274 Ry
     correction to one-el term =       5.87713234 Ry

     iteration #  3     ecut=    30.00 Ry     beta= 0.70
     Davidson diagonalization with overlap
     ethr =  3.40E-03,  avg # of iterations =  2.0

     add environment contribution to local potential
     polarization accuracy = 5.6E-06, # of iterations =  29

     total cpu time spent up to now is       97.7 secs

     total energy              =     -81.25931950 Ry
     estimated scf accuracy    <       0.03356537 Ry
     electrostatic embedding   =       0.22041381 Ry
     correction to one-el term =       5.62963810 Ry

     iteration #  4     ecut=    30.00 Ry     beta= 0.70
     Davidson diagonalization with overlap
     ethr =  1.40E-04,  avg # of iterations =  5.0

     add environment contribution to local potential
     polarization accuracy = 5.8E-06, # of iterations =  29

     total cpu time spent up to now is      129.0 secs

     total energy              =     -81.27236585 Ry
     estimated scf accuracy    <       0.03962434 Ry
     electrostatic embedding   =       0.21690353 Ry
     correction to one-el term =       5.37895296 Ry

     iteration #  5     ecut=    30.00 Ry     beta= 0.70
     Davidson diagonalization with overlap
     ethr =  1.40E-04,  avg # of iterations =  4.0

     the potential shift due to the Gaussian-smeared nuclei is    -0.0198 ev

     total cpu time spent up to now is      131.6 secs

     End of self-consistent calculation

          k = 0.0000 0.0000 0.0000 (  1389 PWs)   bands (ev):

   -29.1292 -23.0126 -18.6803 -16.6094 -14.7522 -13.7349 -11.8013 -10.7196
   -10.0157  -9.7121  -9.0136  -7.2195

     highest occupied level (ev):    -7.2195

!    total energy              =     -81.27846967 Ry
     estimated scf accuracy    <       0.00237141 Ry

     The total energy is the sum of the following terms:
     one-electron contribution =    -122.46646243 Ry
     hartree contribution      =      63.52036740 Ry
     xc contribution           =     -23.07346052 Ry
     ewald contribution        =      -4.85220152 Ry
     electrostatic embedding   =       0.21670196 Ry
     correction to one-el term =       5.37658543 Ry

     WARNING: you are using the parabolic pbc correction;
              the potential shift above must be added to 
              band and Fermi energies.

     convergence has been achieved in   5 iterations
 forces lc
       1   -0.0135   -0.0016    0.0089
       2   -0.0046   -0.0010   -0.0035
       3   12.8666   -0.1757    1.2319
       4    0.0182   -0.0142    0.0701
       5   -0.0336    0.0018    0.0459
       6    0.0095    0.0452    0.0290
       7-3274.0115   28.4219 -789.8101
       8    0.0155    0.0005    0.0973
       9    0.0431    0.0003    0.1921
      10    0.0696    0.0000    0.0318

     Forces acting on atoms (cartesian axes, Ry/au):

     atom    1 type  1   force =   326.35820352   -2.82931887   78.95555006
     atom    2 type  1   force =   326.09399302   -2.82867900   78.59043142
     atom    3 type  3   force =   338.79043380   -3.00348847   80.17733678
     atom    4 type  2   force =   326.11384069   -2.85801112   78.84043393
     atom    5 type  2   force =   326.05904343   -2.82594239   78.80822376
     atom    6 type  2   force =   326.10516155   -2.76636881   78.79924248
     atom    7 type  4   force = -2947.92865831   25.59412056 -710.91078255
     atom    8 type  2   force =   326.12151451   -2.82722891   78.89623460
     atom    9 type  2   force =   326.13965547   -2.82741073   79.00554552
     atom   10 type  2   force =   326.14681232   -2.82767226   78.83778399

     Total force =  3196.606215     Total SCF correction =     0.061040

     Writing output data file ./tmp/pwscf.save/

     init_run     :      7.34s CPU      7.91s WALL (       1 calls)
     electrons    :    118.25s CPU    123.62s WALL (       1 calls)
     forces       :      1.60s CPU      1.71s WALL (       1 calls)

     Called by init_run:
     wfcinit      :      0.01s CPU      0.01s WALL (       1 calls)
     potinit      :      2.27s CPU      2.48s WALL (       1 calls)
     hinit0       :      4.22s CPU      4.37s WALL (       1 calls)

     Called by electrons:
     c_bands      :      0.11s CPU      0.15s WALL (       5 calls)
     sum_band     :      0.54s CPU      0.35s WALL (       5 calls)
     v_of_rho     :      0.41s CPU      0.47s WALL (       6 calls)
     newd         :      0.21s CPU      0.29s WALL (       6 calls)
     mix_rho      :      0.03s CPU      0.03s WALL (       5 calls)

     Called by c_bands:
     init_us_2    :      0.00s CPU      0.01s WALL (      11 calls)
     regterg      :      0.10s CPU      0.14s WALL (       5 calls)

     Called by *egterg:
     rdiaghg      :      0.00s CPU      0.00s WALL (      21 calls)
     h_psi        :      0.09s CPU      0.13s WALL (      22 calls)
     s_psi        :      0.01s CPU      0.00s WALL (      22 calls)
     g_psi        :      0.00s CPU      0.00s WALL (      16 calls)

     Called by h_psi:
     h_psi:calbec :      0.00s CPU      0.00s WALL (      22 calls)
     vloc_psi     :      0.08s CPU      0.08s WALL (      22 calls)
     add_vuspsi   :      0.01s CPU      0.04s WALL (      22 calls)

     General routines
     calbec       :      0.00s CPU      0.00s WALL (      31 calls)
     fft          :     48.39s CPU     50.08s WALL (     383 calls)
     ffts         :      0.01s CPU      0.01s WALL (      11 calls)
     fftw         :      0.07s CPU      0.07s WALL (     236 calls)
     interpolate  :      0.02s CPU      0.06s WALL (       6 calls)

     Parallel routines
     fft_scatt_xy :      5.17s CPU      5.18s WALL (     313 calls)
     fft_scatt_yz :      6.96s CPU      6.97s WALL (     313 calls)

     Environ routines
     calc_eelect  :      0.03s CPU      0.03s WALL (      10 calls)
     calc_velect  :     98.91s CPU    102.60s WALL (       8 calls)
     dielectric   :      0.97s CPU      1.14s WALL (       7 calls)
     calc_felect  :      1.49s CPU      1.59s WALL (       1 calls)

     PWSCF        :   2m 7.27s CPU   2m13.45s WALL


   This run was terminated on:   9:58:41   5Mar2021            

=------------------------------------------------------------------------------=
   JOB DONE.
=------------------------------------------------------------------------------=
