
     Program NEB v.7.0 starts on  5Mar2022 at 19:29:13 

     This program is part of the open-source Quantum ESPRESSO suite
     for quantum simulation of materials; please cite
         "P. Giannozzi et al., J. Phys.:Condens. Matter 21 395502 (2009);
         "P. Giannozzi et al., J. Phys.:Condens. Matter 29 465901 (2017);
         "P. Giannozzi et al., J. Chem. Phys. 152 154105 (2020);
          URL http://www.quantum-espresso.org", 
     in publications or presentations arising from this work. More details at
     http://www.quantum-espresso.org/quote

     Parallel version (MPI), running on     1 processors

     MPI processes distributed on     1 nodes
     21336 MiB available memory on the printing compute node when the environment starts
 

     Parsing file: H2+H.in
     Reading input from pw_1.in
     file HUSPBE.RRKJ3: wavefunction(s)  nX renormalized
     Reading input from pw_2.in
     file HUSPBE.RRKJ3: wavefunction(s)  nX renormalized

     initial path length           =  4.2553 bohr
     initial inter-image distance  =  0.7092 bohr
 
     string_method                 =    neb
     restart_mode                  =    from_scratch
     opt_scheme                    =    broyden
     num_of_images                 =    7
     nstep_path                    =    20
     CI_scheme                     =    auto
     first_last_opt                =    F
     use_freezing                  =    F
     ds                            =    2.0000 a.u.
     k_max                         =    0.3000 a.u.
     k_min                         =    0.2000 a.u.
     suggested k_max               =    0.1542 a.u.
     suggested k_min               =    0.1028 a.u.
     path_thr                      =    0.1000 eV / A

     ------------------------------ iteration   1 ------------------------------

     tcpu =      0.0    self-consistency for image   1
     Message from routine setup:
     using ibrav=0 with symmetry is DISCOURAGED, use correct ibrav instead
     tcpu =      0.2    self-consistency for image   2
     Message from routine setup:
     using ibrav=0 with symmetry is DISCOURAGED, use correct ibrav instead
     tcpu =      0.3    self-consistency for image   3
     Message from routine setup:
     using ibrav=0 with symmetry is DISCOURAGED, use correct ibrav instead
     tcpu =      0.4    self-consistency for image   4
     Message from routine setup:
     using ibrav=0 with symmetry is DISCOURAGED, use correct ibrav instead
     tcpu =      0.6    self-consistency for image   5
     Message from routine setup:
     using ibrav=0 with symmetry is DISCOURAGED, use correct ibrav instead
     tcpu =      0.7    self-consistency for image   6
     Message from routine setup:
     using ibrav=0 with symmetry is DISCOURAGED, use correct ibrav instead
     tcpu =      0.8    self-consistency for image   7
     Message from routine setup:
     using ibrav=0 with symmetry is DISCOURAGED, use correct ibrav instead

     activation energy (->) =   1.705741 eV
     activation energy (<-) =   1.705741 eV

     image        energy (eV)        error (eV/A)        frozen

         1        -49.5016205            0.011780            T
         2        -49.0011037            2.084317            F
         3        -48.1937159            2.303521            F
         4        -47.7958795            1.708861            F
         5        -48.1937160            2.303308            F
         6        -49.0011037            2.084209            F
         7        -49.5016205            0.011742            T

     climbing image =  4

     path length          =  4.255 bohr
     inter-image distance =  0.709 bohr

     ------------------------------ iteration   2 ------------------------------

     tcpu =      1.0    self-consistency for image   2
     Message from routine setup:
     using ibrav=0 with symmetry is DISCOURAGED, use correct ibrav instead
     tcpu =      1.1    self-consistency for image   3
     Message from routine setup:
     using ibrav=0 with symmetry is DISCOURAGED, use correct ibrav instead
     tcpu =      1.2    self-consistency for image   4
     Message from routine setup:
     using ibrav=0 with symmetry is DISCOURAGED, use correct ibrav instead
     tcpu =      1.4    self-consistency for image   5
     Message from routine setup:
     using ibrav=0 with symmetry is DISCOURAGED, use correct ibrav instead
     tcpu =      1.5    self-consistency for image   6
     Message from routine setup:
     using ibrav=0 with symmetry is DISCOURAGED, use correct ibrav instead

     activation energy (->) =   1.463702 eV
     activation energy (<-) =   1.463702 eV

     image        energy (eV)        error (eV/A)        frozen

         1        -49.5016205            0.011780            T
         2        -49.1182947            1.626412            F
         3        -48.3974130            2.006078            F
         4        -48.0379186            1.728125            F
         5        -48.3973823            2.006075            F
         6        -49.1182824            1.626450            F
         7        -49.5016205            0.011742            T

     climbing image =  4

     path length          =  4.293 bohr
     inter-image distance =  0.715 bohr

     ------------------------------ iteration   3 ------------------------------

     tcpu =      1.6    self-consistency for image   2
     Message from routine setup:
     using ibrav=0 with symmetry is DISCOURAGED, use correct ibrav instead
     tcpu =      1.8    self-consistency for image   3
     Message from routine setup:
     using ibrav=0 with symmetry is DISCOURAGED, use correct ibrav instead
     tcpu =      1.9    self-consistency for image   4
     Message from routine setup:
     using ibrav=0 with symmetry is DISCOURAGED, use correct ibrav instead
     tcpu =      2.0    self-consistency for image   5
     Message from routine setup:
     using ibrav=0 with symmetry is DISCOURAGED, use correct ibrav instead
     tcpu =      2.2    self-consistency for image   6
     Message from routine setup:
     using ibrav=0 with symmetry is DISCOURAGED, use correct ibrav instead

     activation energy (->) =   1.098916 eV
     activation energy (<-) =   1.098916 eV

     image        energy (eV)        error (eV/A)        frozen

         1        -49.5016205            0.011780            T
         2        -49.3118044            1.332276            F
         3        -48.7121211            1.599222            F
         4        -48.4027047            1.696412            F
         5        -48.7121155            1.599246            F
         6        -49.3117884            1.332403            F
         7        -49.5016205            0.011742            T

     climbing image =  4

     path length          =  4.457 bohr
     inter-image distance =  0.743 bohr

     ------------------------------ iteration   4 ------------------------------

     tcpu =      2.3    self-consistency for image   2
     Message from routine setup:
     using ibrav=0 with symmetry is DISCOURAGED, use correct ibrav instead
     tcpu =      2.4    self-consistency for image   3
     Message from routine setup:
     using ibrav=0 with symmetry is DISCOURAGED, use correct ibrav instead
     tcpu =      2.6    self-consistency for image   4
     Message from routine setup:
     using ibrav=0 with symmetry is DISCOURAGED, use correct ibrav instead
     tcpu =      2.7    self-consistency for image   5
     Message from routine setup:
     using ibrav=0 with symmetry is DISCOURAGED, use correct ibrav instead
     tcpu =      2.8    self-consistency for image   6
     Message from routine setup:
     using ibrav=0 with symmetry is DISCOURAGED, use correct ibrav instead

     activation energy (->) =   0.735942 eV
     activation energy (<-) =   0.735942 eV

     image        energy (eV)        error (eV/A)        frozen

         1        -49.5016205            0.011780            T
         2        -49.4420120            0.967020            F
         3        -49.0138928            1.610964            F
         4        -48.7656788            1.534988            F
         5        -49.0139017            1.610978            F
         6        -49.4420066            0.967164            F
         7        -49.5016205            0.011742            T

     climbing image =  4

     path length          =  4.720 bohr
     inter-image distance =  0.787 bohr

     ------------------------------ iteration   5 ------------------------------

     tcpu =      2.9    self-consistency for image   2
     Message from routine setup:
     using ibrav=0 with symmetry is DISCOURAGED, use correct ibrav instead
     tcpu =      3.1    self-consistency for image   3
     Message from routine setup:
     using ibrav=0 with symmetry is DISCOURAGED, use correct ibrav instead
     tcpu =      3.2    self-consistency for image   4
     Message from routine setup:
     using ibrav=0 with symmetry is DISCOURAGED, use correct ibrav instead
     tcpu =      3.3    self-consistency for image   5
     Message from routine setup:
     using ibrav=0 with symmetry is DISCOURAGED, use correct ibrav instead
     tcpu =      3.4    self-consistency for image   6
     Message from routine setup:
     using ibrav=0 with symmetry is DISCOURAGED, use correct ibrav instead

     activation energy (->) =   0.416431 eV
     activation energy (<-) =   0.416431 eV

     image        energy (eV)        error (eV/A)        frozen

         1        -49.5016205            0.011780            T
         2        -49.4475807            1.270163            F
         3        -49.2553008            1.404939            F
         4        -49.0851892            1.144669            F
         5        -49.2553155            1.404930            F
         6        -49.4475833            1.270255            F
         7        -49.5016205            0.011742            T

     climbing image =  4

     path length          =  5.051 bohr
     inter-image distance =  0.842 bohr

     ------------------------------ iteration   6 ------------------------------

     tcpu =      3.6    self-consistency for image   2
     Message from routine setup:
     using ibrav=0 with symmetry is DISCOURAGED, use correct ibrav instead
     tcpu =      3.7    self-consistency for image   3
     Message from routine setup:
     using ibrav=0 with symmetry is DISCOURAGED, use correct ibrav instead
     tcpu =      3.8    self-consistency for image   4
     Message from routine setup:
     using ibrav=0 with symmetry is DISCOURAGED, use correct ibrav instead
     tcpu =      3.9    self-consistency for image   5
     Message from routine setup:
     using ibrav=0 with symmetry is DISCOURAGED, use correct ibrav instead
     tcpu =      4.0    self-consistency for image   6
     Message from routine setup:
     using ibrav=0 with symmetry is DISCOURAGED, use correct ibrav instead

     activation energy (->) =   0.212467 eV
     activation energy (<-) =   0.212467 eV

     image        energy (eV)        error (eV/A)        frozen

         1        -49.5016205            0.011780            T
         2        -49.3552144            2.334325            F
         3        -49.3494962            1.813695            F
         4        -49.2891531            0.272958            F
         5        -49.3494961            1.813926            F
         6        -49.3552089            2.334445            F
         7        -49.5016205            0.011742            T

     climbing image =  4

     path length          =  5.415 bohr
     inter-image distance =  0.903 bohr

     ------------------------------ iteration   7 ------------------------------

     tcpu =      4.1    self-consistency for image   2
     Message from routine setup:
     using ibrav=0 with symmetry is DISCOURAGED, use correct ibrav instead
     tcpu =      4.3    self-consistency for image   3
     Message from routine setup:
     using ibrav=0 with symmetry is DISCOURAGED, use correct ibrav instead
     tcpu =      4.4    self-consistency for image   4
     Message from routine setup:
     using ibrav=0 with symmetry is DISCOURAGED, use correct ibrav instead
     tcpu =      4.5    self-consistency for image   5
     Message from routine setup:
     using ibrav=0 with symmetry is DISCOURAGED, use correct ibrav instead
     tcpu =      4.6    self-consistency for image   6
     Message from routine setup:
     using ibrav=0 with symmetry is DISCOURAGED, use correct ibrav instead

     activation energy (->) =   0.309341 eV
     activation energy (<-) =   0.309341 eV

     image        energy (eV)        error (eV/A)        frozen

         1        -49.5016205            0.011780            T
         2        -49.4633434            0.843186            F
         3        -49.3388479            0.644372            F
         4        -49.1922798            0.868361            F
         5        -49.3388592            0.644328            F
         6        -49.4633447            0.843291            F
         7        -49.5016205            0.011742            T

     climbing image =  4

     path length          =  5.104 bohr
     inter-image distance =  0.851 bohr

     ------------------------------ iteration   8 ------------------------------

     tcpu =      4.7    self-consistency for image   2
     Message from routine setup:
     using ibrav=0 with symmetry is DISCOURAGED, use correct ibrav instead
     tcpu =      4.9    self-consistency for image   3
     Message from routine setup:
     using ibrav=0 with symmetry is DISCOURAGED, use correct ibrav instead
     tcpu =      5.0    self-consistency for image   4
     Message from routine setup:
     using ibrav=0 with symmetry is DISCOURAGED, use correct ibrav instead
     tcpu =      5.1    self-consistency for image   5
     Message from routine setup:
     using ibrav=0 with symmetry is DISCOURAGED, use correct ibrav instead
     tcpu =      5.2    self-consistency for image   6
     Message from routine setup:
     using ibrav=0 with symmetry is DISCOURAGED, use correct ibrav instead

     activation energy (->) =   0.258056 eV
     activation energy (<-) =   0.258056 eV

     image        energy (eV)        error (eV/A)        frozen

         1        -49.5016205            0.011780            T
         2        -49.4700876            0.152299            F
         3        -49.3627118            0.444446            F
         4        -49.2435646            0.651376            F
         5        -49.3627198            0.444406            F
         6        -49.4700888            0.152319            F
         7        -49.5016205            0.011742            T

     climbing image =  4

     path length          =  5.153 bohr
     inter-image distance =  0.859 bohr

     ------------------------------ iteration   9 ------------------------------

     tcpu =      5.3    self-consistency for image   2
     Message from routine setup:
     using ibrav=0 with symmetry is DISCOURAGED, use correct ibrav instead
     tcpu =      5.4    self-consistency for image   3
     Message from routine setup:
     using ibrav=0 with symmetry is DISCOURAGED, use correct ibrav instead
     tcpu =      5.5    self-consistency for image   4
     Message from routine setup:
     using ibrav=0 with symmetry is DISCOURAGED, use correct ibrav instead
     tcpu =      5.6    self-consistency for image   5
     Message from routine setup:
     using ibrav=0 with symmetry is DISCOURAGED, use correct ibrav instead
     tcpu =      5.7    self-consistency for image   6
     Message from routine setup:
     using ibrav=0 with symmetry is DISCOURAGED, use correct ibrav instead

     activation energy (->) =   0.223958 eV
     activation energy (<-) =   0.223958 eV

     image        energy (eV)        error (eV/A)        frozen

         1        -49.5016205            0.011780            T
         2        -49.4688927            0.342513            F
         3        -49.3764377            0.367493            F
         4        -49.2776621            0.412522            F
         5        -49.3764440            0.367505            F
         6        -49.4688943            0.342520            F
         7        -49.5016205            0.011742            T

     climbing image =  4

     path length          =  5.215 bohr
     inter-image distance =  0.869 bohr

     ------------------------------ iteration  10 ------------------------------

     tcpu =      5.8    self-consistency for image   2
     Message from routine setup:
     using ibrav=0 with symmetry is DISCOURAGED, use correct ibrav instead
     tcpu =      5.9    self-consistency for image   3
     Message from routine setup:
     using ibrav=0 with symmetry is DISCOURAGED, use correct ibrav instead
     tcpu =      6.0    self-consistency for image   4
     Message from routine setup:
     using ibrav=0 with symmetry is DISCOURAGED, use correct ibrav instead
     tcpu =      6.1    self-consistency for image   5
     Message from routine setup:
     using ibrav=0 with symmetry is DISCOURAGED, use correct ibrav instead
     tcpu =      6.2    self-consistency for image   6
     Message from routine setup:
     using ibrav=0 with symmetry is DISCOURAGED, use correct ibrav instead

     activation energy (->) =   0.219798 eV
     activation energy (<-) =   0.219798 eV

     image        energy (eV)        error (eV/A)        frozen

         1        -49.5016205            0.011780            T
         2        -49.4707932            0.170922            F
         3        -49.3718853            0.271166            F
         4        -49.2818223            0.369405            F
         5        -49.3718912            0.271166            F
         6        -49.4707948            0.170917            F
         7        -49.5016205            0.011742            T

     climbing image =  4

     path length          =  5.215 bohr
     inter-image distance =  0.869 bohr

     ------------------------------ iteration  11 ------------------------------

     tcpu =      6.3    self-consistency for image   2
     Message from routine setup:
     using ibrav=0 with symmetry is DISCOURAGED, use correct ibrav instead
     tcpu =      6.4    self-consistency for image   3
     Message from routine setup:
     using ibrav=0 with symmetry is DISCOURAGED, use correct ibrav instead
     tcpu =      6.5    self-consistency for image   4
     Message from routine setup:
     using ibrav=0 with symmetry is DISCOURAGED, use correct ibrav instead
     tcpu =      6.6    self-consistency for image   5
     Message from routine setup:
     using ibrav=0 with symmetry is DISCOURAGED, use correct ibrav instead
     tcpu =      6.7    self-consistency for image   6
     Message from routine setup:
     using ibrav=0 with symmetry is DISCOURAGED, use correct ibrav instead

     activation energy (->) =   0.213897 eV
     activation energy (<-) =   0.213897 eV

     image        energy (eV)        error (eV/A)        frozen

         1        -49.5016205            0.011780            T
         2        -49.4701080            0.049849            F
         3        -49.3707128            0.177797            F
         4        -49.2877239            0.294903            F
         5        -49.3707187            0.177790            F
         6        -49.4701096            0.049841            F
         7        -49.5016205            0.011742            T

     climbing image =  4

     path length          =  5.240 bohr
     inter-image distance =  0.873 bohr

     ------------------------------ iteration  12 ------------------------------

     tcpu =      6.8    self-consistency for image   2
     Message from routine setup:
     using ibrav=0 with symmetry is DISCOURAGED, use correct ibrav instead
     tcpu =      6.9    self-consistency for image   3
     Message from routine setup:
     using ibrav=0 with symmetry is DISCOURAGED, use correct ibrav instead
     tcpu =      7.0    self-consistency for image   4
     Message from routine setup:
     using ibrav=0 with symmetry is DISCOURAGED, use correct ibrav instead
     tcpu =      7.1    self-consistency for image   5
     Message from routine setup:
     using ibrav=0 with symmetry is DISCOURAGED, use correct ibrav instead
     tcpu =      7.2    self-consistency for image   6
     Message from routine setup:
     using ibrav=0 with symmetry is DISCOURAGED, use correct ibrav instead

     activation energy (->) =   0.205171 eV
     activation energy (<-) =   0.205171 eV

     image        energy (eV)        error (eV/A)        frozen

         1        -49.5016205            0.011780            T
         2        -49.4688705            0.140926            F
         3        -49.3705874            0.080874            F
         4        -49.2964495            0.094398            F
         5        -49.3705929            0.080872            F
         6        -49.4688722            0.140928            F
         7        -49.5016205            0.011742            T

     climbing image =  4

     path length          =  5.294 bohr
     inter-image distance =  0.882 bohr

     ------------------------------ iteration  13 ------------------------------

     tcpu =      7.3    self-consistency for image   2
     Message from routine setup:
     using ibrav=0 with symmetry is DISCOURAGED, use correct ibrav instead
     tcpu =      7.4    self-consistency for image   3
     Message from routine setup:
     using ibrav=0 with symmetry is DISCOURAGED, use correct ibrav instead
     tcpu =      7.5    self-consistency for image   4
     Message from routine setup:
     using ibrav=0 with symmetry is DISCOURAGED, use correct ibrav instead
     tcpu =      7.6    self-consistency for image   5
     Message from routine setup:
     using ibrav=0 with symmetry is DISCOURAGED, use correct ibrav instead
     tcpu =      7.7    self-consistency for image   6
     Message from routine setup:
     using ibrav=0 with symmetry is DISCOURAGED, use correct ibrav instead

     activation energy (->) =   0.204270 eV
     activation energy (<-) =   0.204270 eV

     image        energy (eV)        error (eV/A)        frozen

         1        -49.5016205            0.011780            T
         2        -49.4686369            0.045290            F
         3        -49.3702618            0.042315            F
         4        -49.2973507            0.016834            F
         5        -49.3702672            0.042319            F
         6        -49.4686386            0.045290            F
         7        -49.5016205            0.011742            T

     climbing image =  4

     path length          =  5.312 bohr
     inter-image distance =  0.885 bohr

     ---------------------------------------------------------------------------


     neb: convergence achieved in  13 iterations
 
     NEB          :      7.19s CPU      7.78s WALL

 
   This run was terminated on:  19:29:21   5Mar2022            

=------------------------------------------------------------------------------=
   JOB DONE.
=------------------------------------------------------------------------------=
