
     Program PWSCF v.7.0 starts on  2Apr2022 at 11:46:52 

     This program is part of the open-source Quantum ESPRESSO suite
     for quantum simulation of materials; please cite
         "P. Giannozzi et al., J. Phys.:Condens. Matter 21 395502 (2009);
         "P. Giannozzi et al., J. Phys.:Condens. Matter 29 465901 (2017);
         "P. Giannozzi et al., J. Chem. Phys. 152 154105 (2020);
          URL http://www.quantum-espresso.org", 
     in publications or presentations arising from this work. More details at
     http://www.quantum-espresso.org/quote

     Parallel version (MPI), running on     1 processors

     MPI processes distributed on     1 nodes
     22218 MiB available memory on the printing compute node when the environment starts
 
     Waiting for input...
     Reading input from standard input

     Current dimensions of program PWSCF are:
     Max number of different atomic species (ntypx) = 10
     Max number of k-points (npk) =  40000
     Max angular momentum in pseudopotentials (lmaxx) =  4
 
     Reading input from environ.in:
     * using ionic solvent mode
     * setting boundary derivatives method to SSCS default
     
     WARNING: atomic wfc #  2 for atom typeSi has zero norm
     WARNING: atomic wfc #  2 for atom typeSi has zero norm
     file O_PBE_USPP.UPF: wavefunction(s)  2S renormalized
 
     Subspace diagonalization in iterative solution of the eigenvalue problem:
     a serial algorithm will be used

 
     G-vector sticks info
     --------------------
     sticks:   dense  smooth     PW     G-vecs:    dense   smooth      PW
     Sum         889     475    139                47263    18425    2965
 
     Using Slab Decomposition
 


     bravais-lattice index     =            4
     lattice parameter (alat)  =       9.2863  a.u.
     unit-cell volume          =    1525.8835 (a.u.)^3
     number of atoms/cell      =            9
     number of atomic types    =            3
     number of electrons       =        48.00
     number of Kohn-Sham states=           30
     kinetic-energy cutoff     =      20.0000  Ry
     charge density cutoff     =     150.0000  Ry
     scf convergence threshold =      1.0E-09
     mixing beta               =       0.3000
     number of iterations used =            8  plain     mixing
     Exchange-correlation=  SLA  PW   PBE  PBE
                           (   1   4   3   4   0   0   0)

     ================================================================================
 
                                  Environ Setup Summary

     ================================================================================
 
     Please cite
         "O. Andreussi, I. Dabo and N. Marzari, J. Chem. Phys. 136, 064102 (2012)"
     in publications or presentations arising from this work.

     Parameters
     ==========

     compensation onset threshold      =               0.1000E+03
     static permittivity               =                   100.00

     Solvent Boundary
     ================

     solvent mode                      =                    ionic
     derivatives method                =                   lowmem
     numerical core for derivatives    =                      fft
     switching function adopted        =                     SCCS
     density limit for vacuum region   =               0.5000E-02
     density limit for bulk solvent    =               0.1000E-03
     soft-sphere radius mode           =                      uff
     soft-sphere softness              =                     0.50
     alpha                             =                     1.00

     Electrostatic Setup
     ===================

     electrostatic problem to solve    =              generalized
     numerical solver adopted          =                       cg
     type of auxiliary density adopted =                     none
     numerical core for poisson        =                      fft

     ================================================================================
 

     celldm(1)=   9.286303  celldm(2)=   0.000000  celldm(3)=   2.200200
     celldm(4)=   0.000000  celldm(5)=   0.000000  celldm(6)=   0.000000

     crystal axes: (cart. coord. in units of alat)
               a(1) = (   1.000000   0.000000   0.000000 )  
               a(2) = (  -0.500000   0.866025   0.000000 )  
               a(3) = (   0.000000   0.000000   2.200200 )  

     reciprocal axes: (cart. coord. in units 2 pi/alat)
               b(1) = (  1.000000  0.577350  0.000000 )  
               b(2) = (  0.000000  1.154701  0.000000 )  
               b(3) = (  0.000000  0.000000  0.454504 )  


     PseudoPot. # 1 for Si read from file:
     MD5 check sum: 2fb286e7979bc4fe35b54746d77eb429
     Pseudo is Ultrasoft, Zval =  4.0
     Generated by new atomic code, or converted to UPF format
     Using radial grid of 1141 points,  4 beta functions with: 
                l(1) =   0
                l(2) =   0
                l(3) =   1
                l(4) =   1
     Q(r) pseudized with 0 coefficients 


     PseudoPot. # 2 for Si read from file:
     MD5 check sum: 2fb286e7979bc4fe35b54746d77eb429
     Pseudo is Ultrasoft, Zval =  4.0
     Generated by new atomic code, or converted to UPF format
     Using radial grid of 1141 points,  4 beta functions with: 
                l(1) =   0
                l(2) =   0
                l(3) =   1
                l(4) =   1
     Q(r) pseudized with 0 coefficients 


     PseudoPot. # 3 for O  read from file:
     MD5 check sum: 390ba29e75625707450f3bd3f0eb6be9
     Pseudo is Ultrasoft, Zval =  6.0
     Generated by new atomic code, or converted to UPF format
     Using radial grid of 1269 points,  4 beta functions with: 
                l(1) =   0
                l(2) =   0
                l(3) =   1
                l(4) =   1
     Q(r) pseudized with 0 coefficients 


     atomic species   valence    mass     pseudopotential
        Sih            4.00    28.08600     Si( 1.00)
        Si             4.00    28.08600     Si( 1.00)
        O              6.00    15.99940     O ( 1.00)

     No symmetry found



   Cartesian axes

     site n.     atom                  positions (alat units)
         1           Sih tau(   1) = (   0.4699998   0.0000000   0.0000000  )
         2           Si  tau(   2) = (  -0.2349999   0.4070318   0.7333997  )
         3           Si  tau(   3) = (  -0.2349999  -0.4070318   0.3666999  )
         4           O   tau(   4) = (   0.2792499   0.2318349   0.1308019  )
         5           O   tau(   5) = (   0.0611500   0.3577550   0.6025979  )
         6           O   tau(   6) = (  -0.3403999   0.1259201   0.8642016  )
         7           O   tau(   7) = (  -0.3403999  -0.1259201   0.2358980  )
         8           O   tau(   8) = (   0.0611500  -0.3577550   0.4975017  )
         9           O   tau(   9) = (   0.2792499  -0.2318349  -0.1308019  )

     number of k points=     4  Methfessel-Paxton smearing, width (Ry)=  0.0300
                       cart. coord. in units 2pi/alat
        k(    1) = (   0.0000000   0.0000000   0.0000000), wk =   0.5000000
        k(    2) = (   0.0000000  -0.5773503   0.0000000), wk =   0.5000000
        k(    3) = (   0.5000000  -0.2886751   0.0000000), wk =   0.5000000
        k(    4) = (  -0.5000000  -0.2886751   0.0000000), wk =   0.5000000

     Dense  grid:    47263 G-vectors     FFT dimensions: (  40,  40,  80)

     Smooth grid:    18425 G-vectors     FFT dimensions: (  27,  27,  60)

     Estimated max dynamical RAM per process >      75.09 MB

Environ Warning (1005): wrong integral of erfc function


Environ Warning (1005): wrong integral of erfc function


Environ Warning (1005): wrong integral of erfc function


     Initial potential from superposition of free atoms

     starting charge      45.3753, renormalised to      48.0000

     negative rho (up, down):  1.151E-04 0.000E+00
     Starting wfcs are   60 randomized atomic wfcs

     total cpu time spent up to now is        1.2 secs

     Self-consistent Calculation

     iteration #  1     ecut=    20.00 Ry     beta= 0.30
     Davidson diagonalization with overlap
     ethr =  1.00E-02,  avg # of iterations =  3.0

     negative rho (up, down):  1.784E-04 0.000E+00

     add environment contribution to local potential
     Polarization accuracy = 6.7E-06, # of iterations =  29

     total cpu time spent up to now is        2.0 secs

     total energy              =    -214.85188126 Ry
     estimated scf accuracy    <       0.49248340 Ry
     electrostatic embedding   =       0.00000000 Ry
     correction to one-el term =       0.00000000 Ry

     iteration #  2     ecut=    20.00 Ry     beta= 0.30
     Davidson diagonalization with overlap
     ethr =  1.03E-03,  avg # of iterations =  6.5

     negative rho (up, down):  9.178E-04 0.000E+00

     add environment contribution to local potential
     Polarization accuracy = 7.0E-06, # of iterations =  29

     total cpu time spent up to now is        2.7 secs

     total energy              =    -214.98515651 Ry
     estimated scf accuracy    <       0.21381953 Ry
     electrostatic embedding   =      -0.08873749 Ry
     correction to one-el term =      -1.13059394 Ry

     iteration #  3     ecut=    20.00 Ry     beta= 0.30
     Davidson diagonalization with overlap
     ethr =  4.45E-04,  avg # of iterations =  2.8

     negative rho (up, down):  8.214E-04 0.000E+00

     add environment contribution to local potential
     Polarization accuracy = 7.1E-06, # of iterations =  29

     total cpu time spent up to now is        3.3 secs

     total energy              =    -215.03329376 Ry
     estimated scf accuracy    <       0.02683001 Ry
     electrostatic embedding   =      -0.17045164 Ry
     correction to one-el term =      -1.06923428 Ry

     iteration #  4     ecut=    20.00 Ry     beta= 0.30
     Davidson diagonalization with overlap
     ethr =  5.59E-05,  avg # of iterations =  2.5

     negative rho (up, down):  1.365E-03 0.000E+00

     add environment contribution to local potential
     Polarization accuracy = 7.1E-06, # of iterations =  29

     total cpu time spent up to now is        3.8 secs

     total energy              =    -215.03745891 Ry
     estimated scf accuracy    <       0.00743323 Ry
     electrostatic embedding   =      -0.17659201 Ry
     correction to one-el term =      -1.23914459 Ry

     iteration #  5     ecut=    20.00 Ry     beta= 0.30
     Davidson diagonalization with overlap
     ethr =  1.55E-05,  avg # of iterations =  3.5

     negative rho (up, down):  1.409E-03 0.000E+00

     add environment contribution to local potential
     Polarization accuracy = 7.2E-06, # of iterations =  29

     total cpu time spent up to now is        4.4 secs

     total energy              =    -215.03917865 Ry
     estimated scf accuracy    <       0.00129588 Ry
     electrostatic embedding   =      -0.19658818 Ry
     correction to one-el term =      -1.38213532 Ry

     iteration #  6     ecut=    20.00 Ry     beta= 0.30
     Davidson diagonalization with overlap
     ethr =  2.70E-06,  avg # of iterations =  5.8

     negative rho (up, down):  1.356E-03 0.000E+00

     add environment contribution to local potential
     Polarization accuracy = 7.2E-06, # of iterations =  29

     total cpu time spent up to now is        5.1 secs

     total energy              =    -215.03963979 Ry
     estimated scf accuracy    <       0.00024484 Ry
     electrostatic embedding   =      -0.20389881 Ry
     correction to one-el term =      -1.42644120 Ry

     iteration #  7     ecut=    20.00 Ry     beta= 0.30
     Davidson diagonalization with overlap
     ethr =  5.10E-07,  avg # of iterations =  2.0

     negative rho (up, down):  1.260E-03 0.000E+00

     add environment contribution to local potential
     Polarization accuracy = 7.1E-06, # of iterations =  29

     total cpu time spent up to now is        5.6 secs

     total energy              =    -215.03975101 Ry
     estimated scf accuracy    <       0.00000911 Ry
     electrostatic embedding   =      -0.20457746 Ry
     correction to one-el term =      -1.50342375 Ry

     iteration #  8     ecut=    20.00 Ry     beta= 0.30
     Davidson diagonalization with overlap
     ethr =  1.90E-08,  avg # of iterations =  3.2

     negative rho (up, down):  1.251E-03 0.000E+00

     add environment contribution to local potential
     Polarization accuracy = 7.1E-06, # of iterations =  29

     total cpu time spent up to now is        6.3 secs

     total energy              =    -215.03977642 Ry
     estimated scf accuracy    <       0.00000482 Ry
     electrostatic embedding   =      -0.20409986 Ry
     correction to one-el term =      -1.49961457 Ry

     iteration #  9     ecut=    20.00 Ry     beta= 0.30
     Davidson diagonalization with overlap
     ethr =  1.00E-08,  avg # of iterations =  2.0

     negative rho (up, down):  1.233E-03 0.000E+00

     add environment contribution to local potential
     Polarization accuracy = 7.1E-06, # of iterations =  29

     total cpu time spent up to now is        6.8 secs

     total energy              =    -215.03978897 Ry
     estimated scf accuracy    <       0.00000096 Ry
     electrostatic embedding   =      -0.20467127 Ry
     correction to one-el term =      -1.50451586 Ry

     iteration # 10     ecut=    20.00 Ry     beta= 0.30
     Davidson diagonalization with overlap
     ethr =  2.01E-09,  avg # of iterations =  2.0

     negative rho (up, down):  1.230E-03 0.000E+00

     add environment contribution to local potential
     Polarization accuracy = 7.1E-06, # of iterations =  29

     total cpu time spent up to now is        7.4 secs

     total energy              =    -215.03979452 Ry
     estimated scf accuracy    <       0.00000014 Ry
     electrostatic embedding   =      -0.20462458 Ry
     correction to one-el term =      -1.50377170 Ry

     iteration # 11     ecut=    20.00 Ry     beta= 0.30
     Davidson diagonalization with overlap
     ethr =  2.87E-10,  avg # of iterations =  2.2

     negative rho (up, down):  1.226E-03 0.000E+00

     add environment contribution to local potential
     Polarization accuracy = 7.2E-06, # of iterations =  29

     total cpu time spent up to now is        8.0 secs

     total energy              =    -215.03979732 Ry
     estimated scf accuracy    <       0.00000002 Ry
     electrostatic embedding   =      -0.20471932 Ry
     correction to one-el term =      -1.50314623 Ry

     iteration # 12     ecut=    20.00 Ry     beta= 0.30
     Davidson diagonalization with overlap
     ethr =  3.24E-11,  avg # of iterations =  2.2

     negative rho (up, down):  1.224E-03 0.000E+00

     add environment contribution to local potential
     Polarization accuracy = 7.1E-06, # of iterations =  29

     total cpu time spent up to now is        8.6 secs

     total energy              =    -215.03979857 Ry
     estimated scf accuracy    <          2.0E-09 Ry
     electrostatic embedding   =      -0.20470515 Ry
     correction to one-el term =      -1.50223159 Ry

     iteration # 13     ecut=    20.00 Ry     beta= 0.30
     Davidson diagonalization with overlap
     ethr =  4.09E-12,  avg # of iterations =  4.0

     negative rho (up, down):  1.222E-03 0.000E+00

     the potential shift due to the Gaussian-smeared nuclei is    -0.6723 ev

     total cpu time spent up to now is        9.1 secs

     End of self-consistent calculation

          k = 0.0000 0.0000 0.0000 (  2333 PWs)   bands (ev):

   -22.0178 -21.0206 -20.3357 -20.3232 -17.8134 -17.7716 -11.3243  -9.4336
    -8.3222  -7.9840  -5.6827  -5.5777  -5.1446  -5.1424  -5.0195  -4.1189
    -3.9065  -3.7892  -3.4592  -3.2368  -2.1522  -2.0600  -1.7747  -1.7376
     0.4547   1.0864   4.3173   5.6412   5.9245   6.9411

          k = 0.0000-0.5774 0.0000 (  2290 PWs)   bands (ev):

   -21.7834 -21.0205 -20.6346 -20.3496 -17.7983 -17.7825 -10.9261  -9.4461
    -8.5006  -8.1123  -5.8427  -5.7378  -5.1082  -4.8556  -4.6875  -4.5432
    -4.0145  -3.7974  -3.6157  -3.2806  -2.0215  -1.9685  -1.7404  -1.6793
     1.5326   1.7052   5.5069   5.6782   6.2305   6.5801

          k = 0.5000-0.2887 0.0000 (  2290 PWs)   bands (ev):

   -21.4936 -21.0622 -20.9372 -20.3972 -17.7909 -17.7708 -10.1545  -9.6105
    -9.1186  -7.7976  -5.7996  -5.7403  -5.0852  -4.6496  -4.5841  -4.4377
    -4.3763  -4.0390  -3.6284  -3.4321  -2.1129  -1.9681  -1.7369  -1.6907
     1.1424   1.2347   5.3457   6.2217   6.4781   6.6670

          k =-0.5000-0.2887 0.0000 (  2290 PWs)   bands (ev):

   -21.7830 -21.0216 -20.6352 -20.3484 -17.7988 -17.7820 -10.9261  -9.4460
    -8.5005  -8.1128  -5.8426  -5.7380  -5.1085  -4.8557  -4.6873  -4.5429
    -4.0145  -3.7974  -3.6154  -3.2807  -2.0227  -1.9674  -1.7410  -1.6787
     1.5327   1.7051   5.5059   5.6786   6.2312   6.5801

     the Fermi energy is    -0.5422 ev

!    total energy              =    -215.03979986 Ry
     estimated scf accuracy    <          7.9E-10 Ry
     smearing contrib. (-TS)   =       0.00012742 Ry
     internal energy E=F+TS    =    -215.03992728 Ry

     The total energy is F=E-TS. E is the sum of the following terms:
     one-electron contribution =    -417.69710925 Ry
     hartree contribution      =     225.78899935 Ry
     xc contribution           =     -49.77400429 Ry
     ewald contribution        =      28.34908311 Ry
     electrostatic embedding   =      -0.20471342 Ry
     correction to one-el term =      -1.50218277 Ry

     convergence has been achieved in  13 iterations

 
     init_run     :      1.01s CPU      1.04s WALL (       1 calls)
     electrons    :      7.82s CPU      7.88s WALL (       1 calls)

     Called by init_run:
     wfcinit      :      0.21s CPU      0.21s WALL (       1 calls)
     potinit      :      0.07s CPU      0.07s WALL (       1 calls)
     hinit0       :      0.69s CPU      0.70s WALL (       1 calls)

     Called by electrons:
     c_bands      :      4.24s CPU      4.27s WALL (      13 calls)
     sum_band     :      1.23s CPU      1.23s WALL (      13 calls)
     v_of_rho     :      0.44s CPU      0.44s WALL (      14 calls)
     newd         :      0.40s CPU      0.40s WALL (      14 calls)
     mix_rho      :      0.05s CPU      0.05s WALL (      13 calls)

     Called by c_bands:
     init_us_2    :      0.07s CPU      0.07s WALL (     108 calls)
     init_us_2:cp :      0.07s CPU      0.07s WALL (     108 calls)
     cegterg      :      4.02s CPU      4.04s WALL (      52 calls)

     Called by *egterg:
     cdiaghg      :      0.17s CPU      0.17s WALL (     219 calls)
     h_psi        :      3.29s CPU      3.30s WALL (     223 calls)
     s_psi        :      0.17s CPU      0.17s WALL (     223 calls)
     g_psi        :      0.01s CPU      0.01s WALL (     167 calls)

     Called by h_psi:
     h_psi:calbec :      0.18s CPU      0.18s WALL (     223 calls)
     vloc_psi     :      2.92s CPU      2.94s WALL (     223 calls)
     add_vuspsi   :      0.17s CPU      0.17s WALL (     223 calls)

     General routines
     calbec       :      0.23s CPU      0.23s WALL (     275 calls)
     fft          :      0.14s CPU      0.14s WALL (     179 calls)
     ffts         :      0.01s CPU      0.01s WALL (      27 calls)
     fftw         :      3.12s CPU      3.14s WALL (   10104 calls)
     interpolate  :      0.02s CPU      0.02s WALL (      14 calls)
 
     Parallel routines
 
     Environ routines
 
     PWSCF        :      9.01s CPU      9.12s WALL

 
   This run was terminated on:  11:47: 1   2Apr2022            

=------------------------------------------------------------------------------=
   JOB DONE.
=------------------------------------------------------------------------------=
