
     Program PWSCF v.6.7MaX starts on  3Mar2021 at 11:37: 5 

     This program is part of the open-source Quantum ESPRESSO suite
     for quantum simulation of materials; please cite
         "P. Giannozzi et al., J. Phys.:Condens. Matter 21 395502 (2009);
         "P. Giannozzi et al., J. Phys.:Condens. Matter 29 465901 (2017);
          URL http://www.quantum-espresso.org", 
     in publications or presentations arising from this work. More details at
     http://www.quantum-espresso.org/quote

     Parallel version (MPI), running on     1 processors

     MPI processes distributed on     1 nodes
     Waiting for input...
     Reading input from standard input

     Current dimensions of program PWSCF are:
     Max number of different atomic species (ntypx) = 10
     Max number of k-points (npk) =  40000
     Max angular momentum in pseudopotentials (lmaxx) =  3
     file N.pbe-rrkjus.UPF: wavefunction(s)  2S renormalized
     file C.pbe-rrkjus.UPF: wavefunction(s)  2S 2P renormalized
     file H.pbe-rrkjus.UPF: wavefunction(s)  1S renormalized

     gamma-point specific algorithms are used

     Subspace diagonalization in iterative solution of the eigenvalue problem:
     a serial algorithm will be used


     G-vector sticks info
     --------------------
     sticks:   dense  smooth     PW     G-vecs:    dense   smooth      PW
     Sum        2385     949    241                87655    22119    2777



     bravais-lattice index     =            1
     lattice parameter (alat)  =      10.0000  a.u.
     unit-cell volume          =    1000.0000 (a.u.)^3
     number of atoms/cell      =           11
     number of atomic types    =            3
     number of electrons       =        30.00
     number of Kohn-Sham states=           15
     kinetic-energy cutoff     =      30.0000  Ry
     charge density cutoff     =     300.0000  Ry
     scf convergence threshold =      5.0E-04
     mixing beta               =       0.7000
     number of iterations used =            8  plain     mixing
     Exchange-correlation= SLA  PW   PBE  PBE
                           (   1   4   3   4   0   0   0)


     Environ Module
     ==============

     Plese cite
         O. Andreussi, I. Dabo and N. Marzari, J. Chem. Phys. 136, 064102 (2012)         
     in publications or presentations arising from this work.

     compensation onset threshold      =               0.1000E+03 
     static permittivity               =                    20.00 
     epsilon calculation mode          =               electronic 

     Electrostatic Setup
     -------------------
     electrostatic problem to solve    = linmodpb                 
     numerical solver adopted          = cg                       
     type of auxiliary density adopted = none                     
     type of core tool for poisson     = fft                      



     celldm(1)=  10.000000  celldm(2)=   0.000000  celldm(3)=   0.000000
     celldm(4)=   0.000000  celldm(5)=   0.000000  celldm(6)=   0.000000

     crystal axes: (cart. coord. in units of alat)
               a(1) = (   1.000000   0.000000   0.000000 )  
               a(2) = (   0.000000   1.000000   0.000000 )  
               a(3) = (   0.000000   0.000000   1.000000 )  

     reciprocal axes: (cart. coord. in units 2 pi/alat)
               b(1) = (  1.000000  0.000000  0.000000 )  
               b(2) = (  0.000000  1.000000  0.000000 )  
               b(3) = (  0.000000  0.000000  1.000000 )  


     PseudoPot. # 1 for N  read from file:
     ../../../pseudo/N.pbe-rrkjus.UPF
     MD5 check sum: 28c76d763763edb36c62a6ca2be9aebd
     Pseudo is Ultrasoft, Zval =  5.0
     Generated by new atomic code, or converted to UPF format
     Using radial grid of 1257 points,  4 beta functions with: 
                l(1) =   0
                l(2) =   0
                l(3) =   1
                l(4) =   1
     Q(r) pseudized with 0 coefficients 


     PseudoPot. # 2 for C  read from file:
     ../../../pseudo/C.pbe-rrkjus.UPF
     MD5 check sum: c9ac5a99bc85b198593446162950cd17
     Pseudo is Ultrasoft, Zval =  4.0
     Generated by new atomic code, or converted to UPF format
     Using radial grid of  627 points,  4 beta functions with: 
                l(1) =   0
                l(2) =   0
                l(3) =   1
                l(4) =   1
     Q(r) pseudized with 0 coefficients 


     PseudoPot. # 3 for H  read from file:
     ../../../pseudo/H.pbe-rrkjus.UPF
     MD5 check sum: 2d52a7f45632fd764c17cc6affed14c8
     Pseudo is Ultrasoft, Zval =  1.0
     Generated by new atomic code, or converted to UPF format
     Using radial grid of 1061 points,  2 beta functions with: 
                l(1) =   0
                l(2) =   0
     Q(r) pseudized with 0 coefficients 


     atomic species   valence    mass     pseudopotential
        N              5.00    14.00000     N ( 1.00)
        C              4.00    12.00000     C ( 1.00)
        H              1.00     1.00000     H ( 1.00)

     No symmetry found



   Cartesian axes

     site n.     atom                  positions (alat units)
         1           N   tau(   1) = (  -0.2445407   0.0000000   0.0003027  )
         2           C   tau(   2) = (  -0.1233144   0.2247358   0.0002075  )
         3           C   tau(   3) = (   0.1378123   0.2285192   0.0001463  )
         4           C   tau(   4) = (   0.2693935   0.0000000   0.0001319  )
         5           C   tau(   5) = (   0.1378123  -0.2285192   0.0002652  )
         6           C   tau(   6) = (  -0.1233144  -0.2247357   0.0003546  )
         7           H   tau(   7) = (  -0.2412731   0.3938141   0.0001709  )
         8           H   tau(   8) = (   0.2359096   0.4098722   0.0000804  )
         9           H   tau(   9) = (   0.4758586  -0.0000000   0.0000020  )
        10           H   tau(  10) = (   0.2359097  -0.4098722   0.0003207  )
        11           H   tau(  11) = (  -0.2412730  -0.3938140   0.0004881  )

     number of k points=     1
                       cart. coord. in units 2pi/alat
        k(    1) = (   0.0000000   0.0000000   0.0000000), wk =   2.0000000

     Dense  grid:    43828 G-vectors     FFT dimensions: (  60,  60,  60)

     Smooth grid:    11060 G-vectors     FFT dimensions: (  36,  36,  36)

     Estimated max dynamical RAM per process >      76.01 MB

     Initial potential from superposition of free atoms

     starting charge   29.51871, renormalised to   30.00000
     Starting wfcs are   29 randomized atomic wfcs

     total cpu time spent up to now is       46.0 secs

     Self-consistent Calculation

     iteration #  1     ecut=    30.00 Ry     beta= 0.70
     Davidson diagonalization with overlap
     ethr =  1.00E-02,  avg # of iterations =  2.0

     add environment contribution to local potential
     polarization accuracy = 8.8E-06, # of iterations =  26

     total cpu time spent up to now is       75.5 secs

     total energy              =     -81.97371490 Ry
     estimated scf accuracy    <       2.14951728 Ry
     electrostatic embedding   =       0.00000000 Ry
     electrolyte free energy   =       0.00482715 Ry
     correction to one-el term =      -0.00000000 Ry

     iteration #  2     ecut=    30.00 Ry     beta= 0.70
     Davidson diagonalization with overlap
     ethr =  7.17E-03,  avg # of iterations =  2.0

     add environment contribution to local potential
     polarization accuracy = 3.8E-06, # of iterations =  26

     total cpu time spent up to now is      104.1 secs

     total energy              =     -82.32569244 Ry
     estimated scf accuracy    <       0.10929377 Ry
     electrostatic embedding   =      -0.07386691 Ry
     electrolyte free energy   =       0.00377292 Ry
     correction to one-el term =       5.76138788 Ry

     iteration #  3     ecut=    30.00 Ry     beta= 0.70
     Davidson diagonalization with overlap
     ethr =  3.64E-04,  avg # of iterations =  2.0

     add environment contribution to local potential
     polarization accuracy = 4.8E-06, # of iterations =  35

     total cpu time spent up to now is      141.4 secs

     total energy              =     -82.35475625 Ry
     estimated scf accuracy    <       0.00644366 Ry
     electrostatic embedding   =      -0.12833267 Ry
     electrolyte free energy   =       0.00393087 Ry
     correction to one-el term =       5.20824308 Ry

     iteration #  4     ecut=    30.00 Ry     beta= 0.70
     Davidson diagonalization with overlap
     ethr =  2.15E-05,  avg # of iterations =  2.0

     add environment contribution to local potential
     polarization accuracy = 9.1E-06, # of iterations =  27

     total cpu time spent up to now is      172.1 secs

     total energy              =     -82.35536576 Ry
     estimated scf accuracy    <       0.00052123 Ry
     electrostatic embedding   =      -0.13580164 Ry
     electrolyte free energy   =       0.00361061 Ry
     correction to one-el term =       5.23329786 Ry

     iteration #  5     ecut=    30.00 Ry     beta= 0.70
     Davidson diagonalization with overlap
     ethr =  1.74E-06,  avg # of iterations =  4.0

     the potential shift due to the Gaussian-smeared nuclei is    -0.0237 ev

     total cpu time spent up to now is      175.0 secs

     End of self-consistent calculation

          k = 0.0000 0.0000 0.0000 (  1389 PWs)   bands (ev):

   -21.4043 -17.6187 -16.6048 -14.4302 -12.9552 -12.2905 -11.5603  -9.5314
    -8.1834  -6.8950  -6.8484  -5.0058  -4.6331  -4.6010  -3.0719

     highest occupied level (ev):    -3.0719

!    total energy              =     -82.35567470 Ry
     estimated scf accuracy    <       0.00019315 Ry

     The total energy is the sum of the following terms:
     one-electron contribution =    -121.70525117 Ry
     hartree contribution      =      66.55592297 Ry
     xc contribution           =     -26.34592680 Ry
     ewald contribution        =      -5.97292420 Ry
     electrostatic embedding   =      -0.14400900 Ry
     electrolyte free energy   =       0.00385361 Ry
     correction to one-el term =       5.25265991 Ry

     WARNING: you are using the parabolic pbc correction;
              the potential shift above must be added to 
              band and Fermi energies.

     convergence has been achieved in   5 iterations
 forces lc
       1    0.0296   -0.0175   -0.0008
       2   -0.1512    0.0328   -0.0004
       3    0.1730    0.0823   -0.0004
       4    1.2584    0.1770   -0.0007
       5    0.1808    0.0509   -0.0003
       6   -0.1471   -0.0377   -0.0000
       7   -2.3259   -6.8400   -0.0015
       8  -34.7127    7.3963    0.0344
       9  142.7926   -4.2580    0.0015
      10  -27.9436    7.9912    0.0311
      11   -3.3233    0.3295   -0.0069

     Forces acting on atoms (cartesian axes, Ry/au):

     atom    1 type  1   force =    -6.18036341   -0.46052124   -0.00511131
     atom    2 type  2   force =    -7.07105221   -0.58310763   -0.00575391
     atom    3 type  2   force =    -6.70209215   -0.50137872   -0.00591662
     atom    4 type  2   force =    -5.82178270   -0.26883505   -0.00603740
     atom    5 type  2   force =    -6.69269329   -0.23848368   -0.00540939
     atom    6 type  2   force =    -7.06970450   -0.30099766   -0.00496375
     atom    7 type  3   force =    -9.24701406   -7.43309417   -0.00689763
     atom    8 type  3   force =   -41.66362163    6.67420416    0.02896058
     atom    9 type  3   force =   135.58707781   -4.71005641   -0.00357600
     atom   10 type  3   force =   -34.89023489    7.80445121    0.02639060
     atom   11 type  3   force =   -10.24851896    0.01781919   -0.01168517

     Total force =   148.233859     Total SCF correction =     0.023136

     Writing output data file ./tmp/pwscf.save/

     init_run     :     43.42s CPU     45.92s WALL (       1 calls)
     electrons    :    123.39s CPU    129.01s WALL (       1 calls)
     forces       :     59.42s CPU     60.40s WALL (       1 calls)

     Called by init_run:
     wfcinit      :      0.02s CPU      0.02s WALL (       1 calls)
     potinit      :      2.50s CPU      2.79s WALL (       1 calls)
     hinit0       :     39.87s CPU     41.68s WALL (       1 calls)

     Called by electrons:
     c_bands      :      0.14s CPU      0.18s WALL (       5 calls)
     sum_band     :      0.40s CPU      0.25s WALL (       5 calls)
     v_of_rho     :      0.42s CPU      0.50s WALL (       6 calls)
     newd         :      0.17s CPU      0.21s WALL (       6 calls)
     mix_rho      :      0.03s CPU      0.03s WALL (       5 calls)

     Called by c_bands:
     init_us_2    :      0.00s CPU      0.01s WALL (      11 calls)
     regterg      :      0.13s CPU      0.17s WALL (       5 calls)

     Called by *egterg:
     rdiaghg      :      0.00s CPU      0.00s WALL (      17 calls)
     h_psi        :      0.11s CPU      0.17s WALL (      18 calls)
     s_psi        :      0.01s CPU      0.00s WALL (      18 calls)
     g_psi        :      0.00s CPU      0.00s WALL (      12 calls)

     Called by h_psi:
     h_psi:calbec :      0.00s CPU      0.00s WALL (      18 calls)
     vloc_psi     :      0.10s CPU      0.10s WALL (      18 calls)
     add_vuspsi   :      0.01s CPU      0.06s WALL (      18 calls)

     General routines
     calbec       :      0.01s CPU      0.01s WALL (      27 calls)
     fft          :     49.35s CPU     51.13s WALL (     383 calls)
     ffts         :      0.01s CPU      0.01s WALL (      11 calls)
     fftw         :      0.09s CPU      0.09s WALL (     298 calls)
     interpolate  :      0.02s CPU      0.05s WALL (       6 calls)

     Parallel routines
     fft_scatt_xy :      5.33s CPU      5.34s WALL (     314 calls)
     fft_scatt_yz :      7.27s CPU      7.29s WALL (     314 calls)

     Environ routines
     calc_eelect  :      0.07s CPU      0.08s WALL (      10 calls)
     calc_velect  :    102.52s CPU    106.34s WALL (       8 calls)
     dielectric   :      1.03s CPU      1.22s WALL (       8 calls)
     electrolyte  :      0.02s CPU      0.03s WALL (       2 calls)
     calc_felect  :      1.48s CPU      1.62s WALL (       1 calls)

     PWSCF        :   3m46.29s CPU   3m55.59s WALL


   This run was terminated on:  11:41: 1   3Mar2021            

=------------------------------------------------------------------------------=
   JOB DONE.
=------------------------------------------------------------------------------=
