
     Program PWSCF v.6.7MaX starts on  3Mar2021 at 11:43:31 

     This program is part of the open-source Quantum ESPRESSO suite
     for quantum simulation of materials; please cite
         "P. Giannozzi et al., J. Phys.:Condens. Matter 21 395502 (2009);
         "P. Giannozzi et al., J. Phys.:Condens. Matter 29 465901 (2017);
          URL http://www.quantum-espresso.org", 
     in publications or presentations arising from this work. More details at
     http://www.quantum-espresso.org/quote

     Parallel version (MPI), running on     1 processors

     MPI processes distributed on     1 nodes
     Waiting for input...
     Reading input from standard input

     Current dimensions of program PWSCF are:
     Max number of different atomic species (ntypx) = 10
     Max number of k-points (npk) =  40000
     Max angular momentum in pseudopotentials (lmaxx) =  3
     file N.pbe-rrkjus.UPF: wavefunction(s)  2S renormalized
     file C.pbe-rrkjus.UPF: wavefunction(s)  2S 2P renormalized
     file H.pbe-rrkjus.UPF: wavefunction(s)  1S renormalized

     gamma-point specific algorithms are used

     Subspace diagonalization in iterative solution of the eigenvalue problem:
     a serial algorithm will be used


     G-vector sticks info
     --------------------
     sticks:   dense  smooth     PW     G-vecs:    dense   smooth      PW
     Sum        2385     949    241                87655    22119    2777



     bravais-lattice index     =            1
     lattice parameter (alat)  =      10.0000  a.u.
     unit-cell volume          =    1000.0000 (a.u.)^3
     number of atoms/cell      =           11
     number of atomic types    =            3
     number of electrons       =        30.00
     number of Kohn-Sham states=           15
     kinetic-energy cutoff     =      30.0000  Ry
     charge density cutoff     =     300.0000  Ry
     scf convergence threshold =      5.0E-04
     mixing beta               =       0.7000
     number of iterations used =            8  plain     mixing
     Exchange-correlation= SLA  PW   PBE  PBE
                           (   1   4   3   4   0   0   0)


     Environ Module
     ==============

     Plese cite
         O. Andreussi, I. Dabo and N. Marzari, J. Chem. Phys. 136, 064102 (2012)         
     in publications or presentations arising from this work.

     compensation onset threshold      =               0.1000E+03 
     static permittivity               =                    20.00 
     epsilon calculation mode          =               electronic 

     Electrostatic Setup
     -------------------
     electrostatic problem to solve    = linpb                    
     numerical solver adopted          = cg                       
     type of auxiliary density adopted = none                     
     type of core tool for poisson     = fft                      



     celldm(1)=  10.000000  celldm(2)=   0.000000  celldm(3)=   0.000000
     celldm(4)=   0.000000  celldm(5)=   0.000000  celldm(6)=   0.000000

     crystal axes: (cart. coord. in units of alat)
               a(1) = (   1.000000   0.000000   0.000000 )  
               a(2) = (   0.000000   1.000000   0.000000 )  
               a(3) = (   0.000000   0.000000   1.000000 )  

     reciprocal axes: (cart. coord. in units 2 pi/alat)
               b(1) = (  1.000000  0.000000  0.000000 )  
               b(2) = (  0.000000  1.000000  0.000000 )  
               b(3) = (  0.000000  0.000000  1.000000 )  


     PseudoPot. # 1 for N  read from file:
     ../../../pseudo/N.pbe-rrkjus.UPF
     MD5 check sum: 28c76d763763edb36c62a6ca2be9aebd
     Pseudo is Ultrasoft, Zval =  5.0
     Generated by new atomic code, or converted to UPF format
     Using radial grid of 1257 points,  4 beta functions with: 
                l(1) =   0
                l(2) =   0
                l(3) =   1
                l(4) =   1
     Q(r) pseudized with 0 coefficients 


     PseudoPot. # 2 for C  read from file:
     ../../../pseudo/C.pbe-rrkjus.UPF
     MD5 check sum: c9ac5a99bc85b198593446162950cd17
     Pseudo is Ultrasoft, Zval =  4.0
     Generated by new atomic code, or converted to UPF format
     Using radial grid of  627 points,  4 beta functions with: 
                l(1) =   0
                l(2) =   0
                l(3) =   1
                l(4) =   1
     Q(r) pseudized with 0 coefficients 


     PseudoPot. # 3 for H  read from file:
     ../../../pseudo/H.pbe-rrkjus.UPF
     MD5 check sum: 2d52a7f45632fd764c17cc6affed14c8
     Pseudo is Ultrasoft, Zval =  1.0
     Generated by new atomic code, or converted to UPF format
     Using radial grid of 1061 points,  2 beta functions with: 
                l(1) =   0
                l(2) =   0
     Q(r) pseudized with 0 coefficients 


     atomic species   valence    mass     pseudopotential
        N              5.00    14.00000     N ( 1.00)
        C              4.00    12.00000     C ( 1.00)
        H              1.00     1.00000     H ( 1.00)

     No symmetry found



   Cartesian axes

     site n.     atom                  positions (alat units)
         1           N   tau(   1) = (  -0.2445407   0.0000000   0.0003027  )
         2           C   tau(   2) = (  -0.1233144   0.2247358   0.0002075  )
         3           C   tau(   3) = (   0.1378123   0.2285192   0.0001463  )
         4           C   tau(   4) = (   0.2693935   0.0000000   0.0001319  )
         5           C   tau(   5) = (   0.1378123  -0.2285192   0.0002652  )
         6           C   tau(   6) = (  -0.1233144  -0.2247357   0.0003546  )
         7           H   tau(   7) = (  -0.2412731   0.3938141   0.0001709  )
         8           H   tau(   8) = (   0.2359096   0.4098722   0.0000804  )
         9           H   tau(   9) = (   0.4758586  -0.0000000   0.0000020  )
        10           H   tau(  10) = (   0.2359097  -0.4098722   0.0003207  )
        11           H   tau(  11) = (  -0.2412730  -0.3938140   0.0004881  )

     number of k points=     1
                       cart. coord. in units 2pi/alat
        k(    1) = (   0.0000000   0.0000000   0.0000000), wk =   2.0000000

     Dense  grid:    43828 G-vectors     FFT dimensions: (  60,  60,  60)

     Smooth grid:    11060 G-vectors     FFT dimensions: (  36,  36,  36)

     Estimated max dynamical RAM per process >      76.01 MB

     Initial potential from superposition of free atoms

     starting charge   29.51871, renormalised to   30.00000
     Starting wfcs are   29 randomized atomic wfcs

     total cpu time spent up to now is       44.3 secs

     Self-consistent Calculation

     iteration #  1     ecut=    30.00 Ry     beta= 0.70
     Davidson diagonalization with overlap
     ethr =  1.00E-02,  avg # of iterations =  2.0

     add environment contribution to local potential
     polarization accuracy = 5.6E-06, # of iterations =  27

     total cpu time spent up to now is       74.0 secs

     total energy              =     -81.97388449 Ry
     estimated scf accuracy    <       2.14951728 Ry
     electrostatic embedding   =       0.00000000 Ry
     electrolyte free energy   =       0.00465756 Ry
     correction to one-el term =      -0.00000000 Ry

     iteration #  2     ecut=    30.00 Ry     beta= 0.70
     Davidson diagonalization with overlap
     ethr =  7.17E-03,  avg # of iterations =  2.0

     add environment contribution to local potential
     polarization accuracy = 3.8E-06, # of iterations =  26

     total cpu time spent up to now is      102.6 secs

     total energy              =     -82.32584311 Ry
     estimated scf accuracy    <       0.10928934 Ry
     electrostatic embedding   =      -0.07385089 Ry
     electrolyte free energy   =       0.00361411 Ry
     correction to one-el term =       5.76159968 Ry

     iteration #  3     ecut=    30.00 Ry     beta= 0.70
     Davidson diagonalization with overlap
     ethr =  3.64E-04,  avg # of iterations =  2.0

     add environment contribution to local potential
     polarization accuracy = 5.1E-06, # of iterations =  35

     total cpu time spent up to now is      139.9 secs

     total energy              =     -82.35490334 Ry
     estimated scf accuracy    <       0.00644487 Ry
     electrostatic embedding   =      -0.12832316 Ry
     electrolyte free energy   =       0.00377010 Ry
     correction to one-el term =       5.20853272 Ry

     iteration #  4     ecut=    30.00 Ry     beta= 0.70
     Davidson diagonalization with overlap
     ethr =  2.15E-05,  avg # of iterations =  2.0

     add environment contribution to local potential
     polarization accuracy = 6.6E-06, # of iterations =  28

     total cpu time spent up to now is      171.8 secs

     total energy              =     -82.35550601 Ry
     estimated scf accuracy    <       0.00052113 Ry
     electrostatic embedding   =      -0.13577787 Ry
     electrolyte free energy   =       0.00344672 Ry
     correction to one-el term =       5.23279458 Ry

     iteration #  5     ecut=    30.00 Ry     beta= 0.70
     Davidson diagonalization with overlap
     ethr =  1.74E-06,  avg # of iterations =  4.0

     the potential shift due to the Gaussian-smeared nuclei is    -0.0237 ev

     total cpu time spent up to now is      174.7 secs

     End of self-consistent calculation

          k = 0.0000 0.0000 0.0000 (  1389 PWs)   bands (ev):

   -21.4043 -17.6188 -16.6049 -14.4303 -12.9553 -12.2906 -11.5604  -9.5315
    -8.1835  -6.8951  -6.8485  -5.0059  -4.6331  -4.6011  -3.0719

     highest occupied level (ev):    -3.0719

!    total energy              =     -82.35581988 Ry
     estimated scf accuracy    <       0.00019341 Ry

     The total energy is the sum of the following terms:
     one-electron contribution =    -121.70542130 Ry
     hartree contribution      =      66.55597395 Ry
     xc contribution           =     -26.34593958 Ry
     ewald contribution        =      -5.97292420 Ry
     electrostatic embedding   =      -0.14398994 Ry
     electrolyte free energy   =       0.00369316 Ry
     correction to one-el term =       5.25278803 Ry

     WARNING: you are using the parabolic pbc correction;
              the potential shift above must be added to 
              band and Fermi energies.

     convergence has been achieved in   5 iterations
 forces lc
       1    0.0296   -0.0175   -0.0008
       2   -0.1512    0.0328   -0.0004
       3    0.1730    0.0823   -0.0004
       4    1.2584    0.1770   -0.0007
       5    0.1808    0.0509   -0.0003
       6   -0.1471   -0.0377   -0.0000
       7   -2.3263   -6.8402   -0.0013
       8  -34.7134    7.3963    0.0346
       9  142.7948   -4.2599    0.0012
      10  -27.9447    7.9914    0.0312
      11   -3.3238    0.3291   -0.0070

     Forces acting on atoms (cartesian axes, Ry/au):

     atom    1 type  1   force =    -6.18030712   -0.46027929   -0.00512467
     atom    2 type  2   force =    -7.07100338   -0.58282034   -0.00576772
     atom    3 type  2   force =    -6.70204589   -0.50111011   -0.00593103
     atom    4 type  2   force =    -5.82167948   -0.26863412   -0.00604566
     atom    5 type  2   force =    -6.69263104   -0.23831099   -0.00542174
     atom    6 type  2   force =    -7.06965228   -0.30081941   -0.00497546
     atom    7 type  3   force =    -9.24738801   -7.43306453   -0.00665736
     atom    8 type  3   force =   -41.66426914    6.67440326    0.02914460
     atom    9 type  3   force =   135.58928079   -4.71178906   -0.00383158
     atom   10 type  3   force =   -34.89134682    7.80482180    0.02639217
     atom   11 type  3   force =   -10.24895764    0.01760280   -0.01178157

     Total force =   148.236434     Total SCF correction =     0.023165

     Writing output data file ./tmp/pwscf.save/

     init_run     :     42.22s CPU     44.28s WALL (       1 calls)
     electrons    :    124.59s CPU    130.35s WALL (       1 calls)
     forces       :     59.21s CPU     60.21s WALL (       1 calls)

     Called by init_run:
     wfcinit      :      0.02s CPU      0.02s WALL (       1 calls)
     potinit      :      2.34s CPU      2.57s WALL (       1 calls)
     hinit0       :     38.88s CPU     40.37s WALL (       1 calls)

     Called by electrons:
     c_bands      :      0.14s CPU      0.17s WALL (       5 calls)
     sum_band     :      0.39s CPU      0.25s WALL (       5 calls)
     v_of_rho     :      0.42s CPU      0.51s WALL (       6 calls)
     newd         :      0.17s CPU      0.21s WALL (       6 calls)
     mix_rho      :      0.03s CPU      0.03s WALL (       5 calls)

     Called by c_bands:
     init_us_2    :      0.00s CPU      0.00s WALL (      11 calls)
     regterg      :      0.13s CPU      0.17s WALL (       5 calls)

     Called by *egterg:
     rdiaghg      :      0.00s CPU      0.00s WALL (      17 calls)
     h_psi        :      0.11s CPU      0.16s WALL (      18 calls)
     s_psi        :      0.01s CPU      0.00s WALL (      18 calls)
     g_psi        :      0.00s CPU      0.00s WALL (      12 calls)

     Called by h_psi:
     h_psi:calbec :      0.00s CPU      0.00s WALL (      18 calls)
     vloc_psi     :      0.10s CPU      0.10s WALL (      18 calls)
     add_vuspsi   :      0.01s CPU      0.06s WALL (      18 calls)

     General routines
     calbec       :      0.01s CPU      0.01s WALL (      27 calls)
     fft          :     49.82s CPU     51.64s WALL (     387 calls)
     ffts         :      0.01s CPU      0.01s WALL (      11 calls)
     fftw         :      0.09s CPU      0.09s WALL (     298 calls)
     interpolate  :      0.02s CPU      0.05s WALL (       6 calls)

     Parallel routines
     fft_scatt_xy :      5.36s CPU      5.37s WALL (     318 calls)
     fft_scatt_yz :      7.32s CPU      7.34s WALL (     318 calls)

     Environ routines
     calc_eelect  :      0.07s CPU      0.07s WALL (      10 calls)
     calc_velect  :    104.28s CPU    108.23s WALL (       8 calls)
     dielectric   :      0.98s CPU      1.14s WALL (       8 calls)
     electrolyte  :      0.02s CPU      0.02s WALL (       2 calls)
     calc_felect  :      1.54s CPU      1.67s WALL (       1 calls)

     PWSCF        :   3m46.08s CPU   3m55.07s WALL


   This run was terminated on:  11:47:26   3Mar2021            

=------------------------------------------------------------------------------=
   JOB DONE.
=------------------------------------------------------------------------------=
