
     Program PWSCF v.5.1 (svn rev. 11016M) starts on 30May2014 at 15:32:59 

     This program is part of the open-source Quantum ESPRESSO suite
     for quantum simulation of materials; please cite
         "P. Giannozzi et al., J. Phys.:Condens. Matter 21 395502 (2009);
          URL http://www.quantum-espresso.org", 
     in publications or presentations arising from this work. More details at
     http://www.quantum-espresso.org/quote

     Parallel version (MPI), running on     2 processors
     R & G space division:  proc/nbgrp/npool/nimage =       2
     Waiting for input...
     Reading input from standard input
Warning: card  &IONS ignored
Warning: card    ION_DYNAMICS    = 'BFGS' ignored
Warning: card  / ignored

     Current dimensions of program PWSCF are:
     Max number of different atomic species (ntypx) = 10
     Max number of k-points (npk) =  40000
     Max angular momentum in pseudopotentials (lmaxx) =  3
               file N.pbe-rrkjus.UPF: wavefunction(s)  2S renormalized
               file C.pbe-rrkjus.UPF: wavefunction(s)  2S 2P renormalized
               file H.pbe-rrkjus.UPF: wavefunction(s)  1S renormalized

     gamma-point specific algorithms are used

     Subspace diagonalization in iterative solution of the eigenvalue problem:
     a serial algorithm will be used

 
     Parallelization info
     --------------------
     sticks:   dense  smooth     PW     G-vecs:    dense   smooth      PW
     Min       10732    4292   1072              1184460   299536   37384
     Max       10733    4293   1073              1184465   299625   37389
     Sum       21465    8585   2145              2368925   599161   74773
     Tot       10733    4293   1073
 


     bravais-lattice index     =            1
     lattice parameter (alat)  =      30.0000  a.u.
     unit-cell volume          =   27000.0000 (a.u.)^3
     number of atoms/cell      =           12
     number of atomic types    =            3
     number of electrons       =        30.00
     number of Kohn-Sham states=           15
     kinetic-energy cutoff     =      30.0000  Ry
     charge density cutoff     =     300.0000  Ry
     convergence threshold     =      5.0E-09
     mixing beta               =       0.4000
     number of iterations used =            8  plain     mixing
     Exchange-correlation      =  SLA  PW   PBE  PBE ( 1  4  3  4 0)
 

     Environ Module
     ==============

     Please cite
         "O. Andreussi, I. Dabo and N. Marzari, J. Chem. Phys. 136, 064102 (2012);"
     in publications or presentations arising from this work.

     compensation onset threshold      =               0.1000E+00 
     switching function adopted        =                     SCCS 
     density limit for vacuum region   =               0.5000E-02 
     density limit for bulk solvent    =               0.1000E-03 
 

     celldm(1)=  30.000000  celldm(2)=   0.000000  celldm(3)=   0.000000
     celldm(4)=   0.000000  celldm(5)=   0.000000  celldm(6)=   0.000000

     crystal axes: (cart. coord. in units of alat)
               a(1) = (   1.000000   0.000000   0.000000 )  
               a(2) = (   0.000000   1.000000   0.000000 )  
               a(3) = (   0.000000   0.000000   1.000000 )  

     reciprocal axes: (cart. coord. in units 2 pi/alat)
               b(1) = (  1.000000  0.000000  0.000000 )  
               b(2) = (  0.000000  1.000000  0.000000 )  
               b(3) = (  0.000000  0.000000  1.000000 )  


     PseudoPot. # 1 for N  read from file:
     /home/oliviero/PWSCF/espresso/pseudo/N.pbe-rrkjus.UPF
     MD5 check sum: 0c3fbe5807a93f9ba59d5a7019aa238b
     Pseudo is Ultrasoft, Zval =  5.0
     Generated by new atomic code, or converted to UPF format
     Using radial grid of 1257 points,  4 beta functions with: 
                l(1) =   0
                l(2) =   0
                l(3) =   1
                l(4) =   1
     Q(r) pseudized with 0 coefficients 


     PseudoPot. # 2 for C  read from file:
     /home/oliviero/PWSCF/espresso/pseudo/C.pbe-rrkjus.UPF
     MD5 check sum: 00fb224312de0c5b6853bd333518df6f
     Pseudo is Ultrasoft, Zval =  4.0
     Generated by new atomic code, or converted to UPF format
     Using radial grid of  627 points,  4 beta functions with: 
                l(1) =   0
                l(2) =   0
                l(3) =   1
                l(4) =   1
     Q(r) pseudized with 0 coefficients 


     PseudoPot. # 3 for H  read from file:
     /home/oliviero/PWSCF/espresso/pseudo/H.pbe-rrkjus.UPF
     MD5 check sum: 7cc9d459525c9a0585f487a71c3c9563
     Pseudo is Ultrasoft, Zval =  1.0
     Generated by new atomic code, or converted to UPF format
     Using radial grid of 1061 points,  2 beta functions with: 
                l(1) =   0
                l(2) =   0
     Q(r) pseudized with 0 coefficients 


     atomic species   valence    mass     pseudopotential
        N              5.00    14.00000     N ( 1.00)
        C              4.00    12.00000     C ( 1.00)
        H              1.00     1.00000     H ( 1.00)

     No symmetry found


                                    s                        frac. trans.

      isym =  1     identity                                     

 cryst.   s( 1) = (     1          0          0      )
                  (     0          1          0      )
                  (     0          0          1      )

 cart.    s( 1) = (  1.0000000  0.0000000  0.0000000 )
                  (  0.0000000  1.0000000  0.0000000 )
                  (  0.0000000  0.0000000  1.0000000 )


     point group C_1 (1)    
     there are  1 classes
     the character table:

       E    
A      1.00

     the symmetry operations in each class:
     E        1

   Cartesian axes

     site n.     atom                  positions (alat units)
         1           H   tau(   1) = (   0.1523532   0.0000000   0.0001258  )
         2           N   tau(   2) = (  -0.0815136   0.0000000   0.0001009  )
         3           C   tau(   3) = (  -0.0411048   0.0749119   0.0000692  )
         4           C   tau(   4) = (   0.0459374   0.0761731   0.0000488  )
         5           C   tau(   5) = (   0.0897978   0.0000000   0.0000440  )
         6           C   tau(   6) = (   0.0459374  -0.0761731   0.0000884  )
         7           C   tau(   7) = (  -0.0411048  -0.0749119   0.0001182  )
         8           H   tau(   8) = (  -0.0804244   0.1312714   0.0000570  )
         9           H   tau(   9) = (   0.0786365   0.1366241   0.0000268  )
        10           H   tau(  10) = (   0.1586195   0.0000000   0.0000007  )
        11           H   tau(  11) = (   0.0786366  -0.1366241   0.0001069  )
        12           H   tau(  12) = (  -0.0804243  -0.1312713   0.0001627  )

   Crystallographic axes

     site n.     atom                  positions (cryst. coord.)
         1           H   tau(   1) = (  0.1523532  0.0000000  0.0001258  )
         2           N   tau(   2) = ( -0.0815136  0.0000000  0.0001009  )
         3           C   tau(   3) = ( -0.0411048  0.0749119  0.0000692  )
         4           C   tau(   4) = (  0.0459374  0.0761731  0.0000488  )
         5           C   tau(   5) = (  0.0897978  0.0000000  0.0000440  )
         6           C   tau(   6) = (  0.0459374 -0.0761731  0.0000884  )
         7           C   tau(   7) = ( -0.0411048 -0.0749119  0.0001182  )
         8           H   tau(   8) = ( -0.0804244  0.1312714  0.0000570  )
         9           H   tau(   9) = (  0.0786365  0.1366241  0.0000268  )
        10           H   tau(  10) = (  0.1586195  0.0000000  0.0000007  )
        11           H   tau(  11) = (  0.0786366 -0.1366241  0.0001069  )
        12           H   tau(  12) = ( -0.0804243 -0.1312713  0.0001627  )

     number of k points=     1
                       cart. coord. in units 2pi/alat
        k(    1) = (   0.0000000   0.0000000   0.0000000), wk =   2.0000000

                       cryst. coord.
        k(    1) = (   0.0000000   0.0000000   0.0000000), wk =   2.0000000

     Dense  grid:  1184463 G-vectors     FFT dimensions: ( 180, 180, 180)

     Smooth grid:   299581 G-vectors     FFT dimensions: ( 108, 108, 108)

     Largest allocated arrays     est. size (Mb)     dimensions
        Kohn-Sham Wavefunctions         4.28 Mb     (   18695,   15)
        NL pseudopotentials            17.12 Mb     (   18695,   60)
        Each V/rho on FFT grid         44.49 Mb     ( 2916000)
        Each G-vector array             4.52 Mb     (  592233)
        G-vector shells                 0.04 Mb     (    5700)
     Largest temporary arrays     est. size (Mb)     dimensions
        Auxiliary wavefunctions         8.56 Mb     (   18695,   60)
        Each subspace H/S matrix        0.03 Mb     (      60,   60)
        Each <psi_i|beta_j> matrix      0.01 Mb     (      60,   15)
        Arrays for rho mixing         355.96 Mb     ( 2916000,    8)

     Initial potential from superposition of free atoms
     Check: negative starting charge=   -0.002341

     starting charge   30.42250, renormalised to   30.00000

     negative rho (up, down):  2.308E-03 0.000E+00
     Starting wfc are   30 randomized atomic wfcs

     total cpu time spent up to now is        9.9 secs

     per-process dynamical memory:   494.4 Mb

     Self-consistent Calculation

     iteration #  1     ecut=    30.00 Ry     beta=0.40
     Davidson diagonalization with overlap
     ethr =  1.00E-02,  avg # of iterations =  3.0

     negative rho (up, down):  1.370E-03 0.000E+00

     total cpu time spent up to now is       18.4 secs

     total energy              =     -74.04859948 Ry
     Harris-Foulkes estimate   =     -77.00000956 Ry
     estimated scf accuracy    <       5.71001980 Ry
     periodic energy correct.  =       0.00000000 Ry

     iteration #  2     ecut=    30.00 Ry     beta=0.40
     Davidson diagonalization with overlap
     ethr =  1.00E-02,  avg # of iterations =  4.0

     negative rho (up, down):  4.036E-03 0.000E+00

     total cpu time spent up to now is       27.0 secs

     total energy              =     -74.99478643 Ry
     Harris-Foulkes estimate   =     -76.27569812 Ry
     estimated scf accuracy    <       3.51017746 Ry
     periodic energy correct.  =       0.00000000 Ry

     iteration #  3     ecut=    30.00 Ry     beta=0.40
     Davidson diagonalization with overlap
     ethr =  1.00E-02,  avg # of iterations =  3.0

     negative rho (up, down):  2.738E-03 0.000E+00

     total cpu time spent up to now is       35.3 secs

     total energy              =     -75.18322833 Ry
     Harris-Foulkes estimate   =     -75.39645050 Ry
     estimated scf accuracy    <       0.38871362 Ry
     periodic energy correct.  =       0.00000000 Ry

     iteration #  4     ecut=    30.00 Ry     beta=0.40
     Davidson diagonalization with overlap
     ethr =  1.30E-03,  avg # of iterations =  3.0

     negative rho (up, down):  1.346E-03 0.000E+00

     add environment contribution to local potential

     total cpu time spent up to now is       43.8 secs

     total energy              =     -75.22946606 Ry
     Harris-Foulkes estimate   =     -75.26252688 Ry
     estimated scf accuracy    <       0.08995560 Ry
     periodic energy correct.  =       0.00000000 Ry

     iteration #  5     ecut=    30.00 Ry     beta=0.40
     Davidson diagonalization with overlap
     ethr =  3.00E-04,  avg # of iterations =  3.0

     negative rho (up, down):  1.166E-03 0.000E+00

     add environment contribution to local potential

     total cpu time spent up to now is       52.3 secs

     total energy              =     -75.12965597 Ry
     Harris-Foulkes estimate   =     -81.15415176 Ry
     estimated scf accuracy    <       0.01285409 Ry
     periodic energy correct.  =       0.10467291 Ry

     iteration #  6     ecut=    30.00 Ry     beta=0.40
     Davidson diagonalization with overlap
     ethr =  4.28E-05,  avg # of iterations =  4.0

     negative rho (up, down):  8.420E-04 0.000E+00

     add environment contribution to local potential

     total cpu time spent up to now is       61.2 secs

     total energy              =     -75.13274053 Ry
     Harris-Foulkes estimate   =     -81.12235724 Ry
     estimated scf accuracy    <       0.00401881 Ry
     periodic energy correct.  =       0.10414524 Ry

     iteration #  7     ecut=    30.00 Ry     beta=0.40
     Davidson diagonalization with overlap
     ethr =  1.34E-05,  avg # of iterations =  3.0

     negative rho (up, down):  7.335E-04 0.000E+00

     add environment contribution to local potential

     total cpu time spent up to now is       69.6 secs

     total energy              =     -75.13274338 Ry
     Harris-Foulkes estimate   =     -81.11747431 Ry
     estimated scf accuracy    <       0.00102016 Ry
     periodic energy correct.  =       0.10397205 Ry

     iteration #  8     ecut=    30.00 Ry     beta=0.40
     Davidson diagonalization with overlap
     ethr =  3.40E-06,  avg # of iterations =  4.0

     negative rho (up, down):  5.735E-04 0.000E+00

     add environment contribution to local potential

     total cpu time spent up to now is       78.4 secs

     total energy              =     -75.13312687 Ry
     Harris-Foulkes estimate   =     -81.10998663 Ry
     estimated scf accuracy    <       0.00034469 Ry
     periodic energy correct.  =       0.10384547 Ry

     iteration #  9     ecut=    30.00 Ry     beta=0.40
     Davidson diagonalization with overlap
     ethr =  1.15E-06,  avg # of iterations =  3.0

     negative rho (up, down):  6.408E-04 0.000E+00

     add environment contribution to local potential

     total cpu time spent up to now is       87.2 secs

     total energy              =     -75.13321781 Ry
     Harris-Foulkes estimate   =     -81.10859330 Ry
     estimated scf accuracy    <       0.00002639 Ry
     periodic energy correct.  =       0.10380465 Ry

     iteration # 10     ecut=    30.00 Ry     beta=0.40
     Davidson diagonalization with overlap
     ethr =  8.80E-08,  avg # of iterations =  4.0

     negative rho (up, down):  6.090E-04 0.000E+00

     add environment contribution to local potential

     total cpu time spent up to now is       96.0 secs

     total energy              =     -75.13323997 Ry
     Harris-Foulkes estimate   =     -81.10720371 Ry
     estimated scf accuracy    <       0.00000538 Ry
     periodic energy correct.  =       0.10378516 Ry

     iteration # 11     ecut=    30.00 Ry     beta=0.40
     Davidson diagonalization with overlap
     ethr =  1.79E-08,  avg # of iterations =  3.0

     negative rho (up, down):  6.120E-04 0.000E+00

     add environment contribution to local potential

     total cpu time spent up to now is      104.7 secs

     total energy              =     -75.13323980 Ry
     Harris-Foulkes estimate   =     -81.10717909 Ry
     estimated scf accuracy    <       0.00000097 Ry
     periodic energy correct.  =       0.10378385 Ry

     iteration # 12     ecut=    30.00 Ry     beta=0.40
     Davidson diagonalization with overlap
     ethr =  3.23E-09,  avg # of iterations =  4.0

     negative rho (up, down):  6.157E-04 0.000E+00

     add environment contribution to local potential

     total cpu time spent up to now is      113.5 secs

     total energy              =     -75.13324085 Ry
     Harris-Foulkes estimate   =     -81.10714065 Ry
     estimated scf accuracy    <       0.00000110 Ry
     periodic energy correct.  =       0.10378280 Ry

     iteration # 13     ecut=    30.00 Ry     beta=0.40
     Davidson diagonalization with overlap
     ethr =  3.23E-09,  avg # of iterations =  3.0

     negative rho (up, down):  6.128E-04 0.000E+00

     add environment contribution to local potential

     total cpu time spent up to now is      122.0 secs

     total energy              =     -75.13324119 Ry
     Harris-Foulkes estimate   =     -81.10713159 Ry
     estimated scf accuracy    <       0.00000007 Ry
     periodic energy correct.  =       0.10378286 Ry

     iteration # 14     ecut=    30.00 Ry     beta=0.40
     Davidson diagonalization with overlap
     ethr =  2.33E-10,  avg # of iterations =  3.0

     negative rho (up, down):  6.122E-04 0.000E+00

     total cpu time spent up to now is      130.1 secs

     End of self-consistent calculation

          k = 0.0000 0.0000 0.0000 ( 37387 PWs)   bands (ev):

   -33.5696 -29.0461 -25.2840 -25.0114 -21.6531 -20.6426 -18.1658 -17.7945
   -16.8535 -16.4016 -15.9675 -14.8041 -13.5888 -12.5650 -10.9329

     occupation numbers 
     1.0000   1.0000   1.0000   1.0000   1.0000   1.0000   1.0000   1.0000
     1.0000   1.0000   1.0000   1.0000   1.0000   1.0000   1.0000

     highest occupied level (ev):   -10.9329

!    total energy              =     -75.13324103 Ry
     Harris-Foulkes estimate   =     -81.10713776 Ry
     estimated scf accuracy    <          1.9E-09 Ry

     The total energy is the sum of the following terms:

     one-electron contribution =    -387.40145861 Ry
     hartree contribution      =     189.45252572 Ry
     xc contribution           =     -26.55719641 Ry
     ewald contribution        =     143.39899156 Ry
     periodic energy correct.  =       0.10378303 Ry

     convergence has been achieved in  14 iterations

     Forces acting on atoms (Ry/au):

     The global environment contribution to forces
     atom    1 type  3   force =     0.00061545    0.00000000    0.00000050
     atom    2 type  1   force =    -0.00780740   -0.00000001    0.00000136
     atom    3 type  2   force =    -0.00474135    0.00278924   -0.00000009
     atom    4 type  2   force =    -0.00150045    0.00283620   -0.00000085
     atom    5 type  2   force =     0.00013264   -0.00000001   -0.00000103
     atom    6 type  2   force =    -0.00150045   -0.00283621    0.00000062
     atom    7 type  2   force =    -0.00474135   -0.00278925    0.00000173
     atom    8 type  3   force =    -0.00155134    0.00122193   -0.00000014
     atom    9 type  3   force =    -0.00007073    0.00127175   -0.00000042
     atom   10 type  3   force =     0.00067378    0.00000000   -0.00000066
     atom   11 type  3   force =    -0.00007073   -0.00127176    0.00000033
     atom   12 type  3   force =    -0.00155134   -0.00122193    0.00000085
 
     atom    1 type  3   force =   -55.67297627    0.00017665    1.11717302
     atom    2 type  1   force =    -0.02505799    0.00000349    0.00002788
     atom    3 type  2   force =    -0.01780729   -0.08274647   -0.00000673
     atom    4 type  2   force =     0.08156703    0.03950577   -0.00006462
     atom    5 type  2   force =    -0.41124001    0.00000037   -0.00016774
     atom    6 type  2   force =     0.08156681   -0.03950474   -0.00000573
     atom    7 type  2   force =    -0.01780514    0.08274244   -0.00003415
     atom    8 type  3   force =     0.00783602    0.00247233    0.00000730
     atom    9 type  3   force =     0.00407426   -0.00054554    0.00000897
     atom   10 type  3   force =    55.95793203   -0.00017641   -1.11691956
     atom   11 type  3   force =     0.00407451    0.00054487   -0.00000300
     atom   12 type  3   force =     0.00783605   -0.00247275   -0.00001564
     The non-local contrib.  to forces
     atom    1 type  3   force =    -0.04865158   -0.00000060   -0.00444998
     atom    2 type  1   force =     2.20785733    0.00000207   -0.00062772
     atom    3 type  2   force =     0.07632569   -0.26203580    0.00003944
     atom    4 type  2   force =     0.12179142   -0.18228464   -0.00007223
     atom    5 type  2   force =     0.59570525    0.00000171    0.00037130
     atom    6 type  2   force =     0.12179215    0.18228564   -0.00016761
     atom    7 type  2   force =     0.07632491    0.26203546   -0.00016921
     atom    8 type  3   force =     0.09257271   -0.12596763    0.00002753
     atom    9 type  3   force =    -0.06895809   -0.13656863    0.00005014
     atom   10 type  3   force =    -0.37995261    0.00000070    0.00393242
     atom   11 type  3   force =    -0.06895808    0.13656859   -0.00004260
     atom   12 type  3   force =     0.09257264    0.12596759   -0.00010312
     The ionic contribution  to forces
     atom    1 type  3   force =   -52.75815263    0.00017906    1.13330367
     atom    2 type  1   force =   -11.44975081    0.00000198    0.00244705
     atom    3 type  2   force =    -3.43025301    7.32033480   -0.00118373
     atom    4 type  2   force =     3.43049542    6.59197365   -0.00207532
     atom    5 type  2   force =     4.95781432   -0.00000146   -0.00614305
     atom    6 type  2   force =     3.43049659   -6.59197391    0.00054579
     atom    7 type  2   force =    -3.43025067   -7.32033566    0.00360758
     atom    8 type  3   force =    -1.89627879    2.85909077   -0.00058495
     atom    9 type  3   force =     1.57817041    3.00266910   -0.00108222
     atom   10 type  3   force =    59.88581631   -0.00017899   -1.13172016
     atom   11 type  3   force =     1.57817071   -3.00266890    0.00078874
     atom   12 type  3   force =    -1.89627786   -2.85909043    0.00209660
     The local contribution  to forces
     atom    1 type  3   force =    -2.86679399   -0.00000159   -0.01168194
     atom    2 type  1   force =     9.22465387    0.00000383   -0.00179360
     atom    3 type  2   force =     3.34084433   -7.14386537    0.00113702
     atom    4 type  2   force =    -3.46924828   -6.37303018    0.00208311
     atom    5 type  2   force =    -5.96493055    0.00000190    0.00560424
     atom    6 type  2   force =    -3.46925094    6.37303187   -0.00038532
     atom    7 type  2   force =     3.34084557    7.14386230   -0.00347511
     atom    8 type  3   force =     1.81308320   -2.73187351    0.00056399
     atom    9 type  3   force =    -1.50507680   -2.86791738    0.00104072
     atom   10 type  3   force =    -3.54861192    0.00000209    0.01086815
     atom   11 type  3   force =    -1.50507674    2.86791649   -0.00075021
     atom   12 type  3   force =     1.81308241    2.73187285   -0.00201084
     The core correction contribution to forces
     atom    1 type  3   force =     0.00000000    0.00000000    0.00000000
     atom    2 type  1   force =     0.00000000    0.00000000    0.00000000
     atom    3 type  2   force =     0.00000000    0.00000000    0.00000000
     atom    4 type  2   force =     0.00000000    0.00000000    0.00000000
     atom    5 type  2   force =     0.00000000    0.00000000    0.00000000
     atom    6 type  2   force =     0.00000000    0.00000000    0.00000000
     atom    7 type  2   force =     0.00000000    0.00000000    0.00000000
     atom    8 type  3   force =     0.00000000    0.00000000    0.00000000
     atom    9 type  3   force =     0.00000000    0.00000000    0.00000000
     atom   10 type  3   force =     0.00000000    0.00000000    0.00000000
     atom   11 type  3   force =     0.00000000    0.00000000    0.00000000
     atom   12 type  3   force =     0.00000000    0.00000000    0.00000000
     The Hubbard contrib.    to forces
     atom    1 type  3   force =     0.00000000    0.00000000    0.00000000
     atom    2 type  1   force =     0.00000000    0.00000000    0.00000000
     atom    3 type  2   force =     0.00000000    0.00000000    0.00000000
     atom    4 type  2   force =     0.00000000    0.00000000    0.00000000
     atom    5 type  2   force =     0.00000000    0.00000000    0.00000000
     atom    6 type  2   force =     0.00000000    0.00000000    0.00000000
     atom    7 type  2   force =     0.00000000    0.00000000    0.00000000
     atom    8 type  3   force =     0.00000000    0.00000000    0.00000000
     atom    9 type  3   force =     0.00000000    0.00000000    0.00000000
     atom   10 type  3   force =     0.00000000    0.00000000    0.00000000
     atom   11 type  3   force =     0.00000000    0.00000000    0.00000000
     atom   12 type  3   force =     0.00000000    0.00000000    0.00000000
     The SCF correction term to forces
     atom    1 type  3   force =    -0.00000267   -0.00000011   -0.00000003
     atom    2 type  1   force =    -0.00002014   -0.00000426    0.00000001
     atom    3 type  2   force =     0.00000790    0.00003078   -0.00000016
     atom    4 type  2   force =     0.00001976    0.00001085   -0.00000012
     atom    5 type  2   force =     0.00002917   -0.00000165    0.00000001
     atom    6 type  2   force =     0.00002029   -0.00001202    0.00000000
     atom    7 type  2   force =     0.00000725   -0.00003028    0.00000006
     atom    8 type  3   force =     0.00000109    0.00000088    0.00000007
     atom    9 type  3   force =     0.00000031   -0.00000027   -0.00000003
     atom   10 type  3   force =    -0.00000267   -0.00000010   -0.00000010
     atom   11 type  3   force =     0.00000020    0.00000056   -0.00000004
     atom   12 type  3   force =     0.00000105   -0.00000071    0.00000008

     Total force =    78.952306     Total SCF correction =     0.000066

     Writing output data file piridine_vacuum_pcc.save
 
     init_run     :      6.68s CPU      7.13s WALL (       1 calls)
     electrons    :    113.71s CPU    120.52s WALL (       1 calls)
     forces       :      5.97s CPU      6.13s WALL (       1 calls)

     Called by init_run:
     wfcinit      :      0.70s CPU      0.71s WALL (       1 calls)
     potinit      :      2.42s CPU      2.72s WALL (       1 calls)

     Called by electrons:
     c_bands      :     15.24s CPU     15.37s WALL (      14 calls)
     sum_band     :     33.15s CPU     34.79s WALL (      14 calls)
     v_of_rho     :     24.71s CPU     28.06s WALL (      15 calls)
     v_h          :      2.35s CPU      2.79s WALL (      15 calls)
     v_xc         :     22.36s CPU     25.27s WALL (      15 calls)
     newd         :     33.06s CPU     34.17s WALL (      15 calls)
     mix_rho      :      5.05s CPU      5.45s WALL (      14 calls)

     Called by c_bands:
     init_us_2    :      0.28s CPU      0.29s WALL (      29 calls)
     regterg      :     14.76s CPU     14.89s WALL (      14 calls)

     Called by sum_band:
     sum_band:bec :      0.00s CPU      0.00s WALL (      14 calls)
     addusdens    :     23.79s CPU     24.54s WALL (      14 calls)

     Called by *egterg:
     h_psi        :     14.03s CPU     14.14s WALL (      62 calls)
     s_psi        :      0.32s CPU      0.30s WALL (      62 calls)
     g_psi        :      0.11s CPU      0.10s WALL (      47 calls)
     rdiaghg      :      0.01s CPU      0.02s WALL (      61 calls)
     regterg:over :      0.28s CPU      0.27s WALL (      47 calls)
     regterg:upda :      0.22s CPU      0.24s WALL (      47 calls)
     regterg:last :      0.07s CPU      0.07s WALL (      14 calls)

     Called by h_psi:
     h_psi:vloc   :     13.34s CPU     13.47s WALL (      62 calls)
     h_psi:vnl    :      0.61s CPU      0.61s WALL (      62 calls)
     add_vuspsi   :      0.26s CPU      0.30s WALL (      62 calls)

     General routines
     calbec       :      0.46s CPU      0.41s WALL (      80 calls)
     fft          :     30.02s CPU     33.52s WALL (     238 calls)
     ffts         :      0.80s CPU      0.82s WALL (      29 calls)
     fftw         :     12.50s CPU     12.67s WALL (     766 calls)
     interpolate  :      4.94s CPU      5.74s WALL (      29 calls)
     davcio       :      0.00s CPU      0.00s WALL (       1 calls)
 
     Parallel routines
     fft_scatter  :     15.31s CPU     16.98s WALL (    1033 calls)
 
     Environ routines
     calc_epbc    :      0.07s CPU      0.07s WALL (      14 calls)
     calc_vpbc    :      2.06s CPU      2.07s WALL (      10 calls)
     calc_fpbc    :      0.00s CPU      0.00s WALL (       1 calls)
 
     PWSCF        :  2m 9.36s CPU     2m16.84s WALL

 
   This run was terminated on:  15:35:16  30May2014            

=------------------------------------------------------------------------------=
   JOB DONE.
=------------------------------------------------------------------------------=
