
     Program PWSCF v.5.1 (svn rev. 11016M) starts on 30May2014 at 15:21:11 

     This program is part of the open-source Quantum ESPRESSO suite
     for quantum simulation of materials; please cite
         "P. Giannozzi et al., J. Phys.:Condens. Matter 21 395502 (2009);
          URL http://www.quantum-espresso.org", 
     in publications or presentations arising from this work. More details at
     http://www.quantum-espresso.org/quote

     Parallel version (MPI), running on     2 processors
     R & G space division:  proc/nbgrp/npool/nimage =       2
     Waiting for input...
     Reading input from standard input
Warning: card  &IONS ignored
Warning: card    ION_DYNAMICS    = 'BFGS' ignored
Warning: card  / ignored

     Current dimensions of program PWSCF are:
     Max number of different atomic species (ntypx) = 10
     Max number of k-points (npk) =  40000
     Max angular momentum in pseudopotentials (lmaxx) =  3
               file N.pbe-rrkjus.UPF: wavefunction(s)  2S renormalized
               file C.pbe-rrkjus.UPF: wavefunction(s)  2S 2P renormalized
               file H.pbe-rrkjus.UPF: wavefunction(s)  1S renormalized

     gamma-point specific algorithms are used

     Subspace diagonalization in iterative solution of the eigenvalue problem:
     a serial algorithm will be used

 
     Parallelization info
     --------------------
     sticks:   dense  smooth     PW     G-vecs:    dense   smooth      PW
     Min       10732    4292   1072              1184460   299536   37384
     Max       10733    4293   1073              1184465   299625   37389
     Sum       21465    8585   2145              2368925   599161   74773
     Tot       10733    4293   1073
 


     bravais-lattice index     =            1
     lattice parameter (alat)  =      30.0000  a.u.
     unit-cell volume          =   27000.0000 (a.u.)^3
     number of atoms/cell      =           12
     number of atomic types    =            3
     number of electrons       =        30.00
     number of Kohn-Sham states=           15
     kinetic-energy cutoff     =      30.0000  Ry
     charge density cutoff     =     300.0000  Ry
     convergence threshold     =      5.0E-09
     mixing beta               =       0.4000
     number of iterations used =            8  plain     mixing
     Exchange-correlation      =  SLA  PW   PBE  PBE ( 1  4  3  4 0)
 

     Environ Module
     ==============

     Please cite
         "O. Andreussi, I. Dabo and N. Marzari, J. Chem. Phys. 136, 064102 (2012);"
     in publications or presentations arising from this work.

     compensation onset threshold      =               0.1000E+00 
     switching function adopted        =                     SCCS 
     density limit for vacuum region   =               0.5000E-02 
     density limit for bulk solvent    =               0.1000E-03 
 
     Assuming isolated system, Martyna-Tuckerman method


     celldm(1)=  30.000000  celldm(2)=   0.000000  celldm(3)=   0.000000
     celldm(4)=   0.000000  celldm(5)=   0.000000  celldm(6)=   0.000000

     crystal axes: (cart. coord. in units of alat)
               a(1) = (   1.000000   0.000000   0.000000 )  
               a(2) = (   0.000000   1.000000   0.000000 )  
               a(3) = (   0.000000   0.000000   1.000000 )  

     reciprocal axes: (cart. coord. in units 2 pi/alat)
               b(1) = (  1.000000  0.000000  0.000000 )  
               b(2) = (  0.000000  1.000000  0.000000 )  
               b(3) = (  0.000000  0.000000  1.000000 )  


     PseudoPot. # 1 for N  read from file:
     /home/oliviero/PWSCF/espresso/pseudo/N.pbe-rrkjus.UPF
     MD5 check sum: 0c3fbe5807a93f9ba59d5a7019aa238b
     Pseudo is Ultrasoft, Zval =  5.0
     Generated by new atomic code, or converted to UPF format
     Using radial grid of 1257 points,  4 beta functions with: 
                l(1) =   0
                l(2) =   0
                l(3) =   1
                l(4) =   1
     Q(r) pseudized with 0 coefficients 


     PseudoPot. # 2 for C  read from file:
     /home/oliviero/PWSCF/espresso/pseudo/C.pbe-rrkjus.UPF
     MD5 check sum: 00fb224312de0c5b6853bd333518df6f
     Pseudo is Ultrasoft, Zval =  4.0
     Generated by new atomic code, or converted to UPF format
     Using radial grid of  627 points,  4 beta functions with: 
                l(1) =   0
                l(2) =   0
                l(3) =   1
                l(4) =   1
     Q(r) pseudized with 0 coefficients 


     PseudoPot. # 3 for H  read from file:
     /home/oliviero/PWSCF/espresso/pseudo/H.pbe-rrkjus.UPF
     MD5 check sum: 7cc9d459525c9a0585f487a71c3c9563
     Pseudo is Ultrasoft, Zval =  1.0
     Generated by new atomic code, or converted to UPF format
     Using radial grid of 1061 points,  2 beta functions with: 
                l(1) =   0
                l(2) =   0
     Q(r) pseudized with 0 coefficients 


     atomic species   valence    mass     pseudopotential
        N              5.00    14.00000     N ( 1.00)
        C              4.00    12.00000     C ( 1.00)
        H              1.00     1.00000     H ( 1.00)

     No symmetry found


                                    s                        frac. trans.

      isym =  1     identity                                     

 cryst.   s( 1) = (     1          0          0      )
                  (     0          1          0      )
                  (     0          0          1      )

 cart.    s( 1) = (  1.0000000  0.0000000  0.0000000 )
                  (  0.0000000  1.0000000  0.0000000 )
                  (  0.0000000  0.0000000  1.0000000 )


     point group C_1 (1)    
     there are  1 classes
     the character table:

       E    
A      1.00

     the symmetry operations in each class:
     E        1

   Cartesian axes

     site n.     atom                  positions (alat units)
         1           H   tau(   1) = (   0.1523532   0.0000000   0.0001258  )
         2           N   tau(   2) = (  -0.0815136   0.0000000   0.0001009  )
         3           C   tau(   3) = (  -0.0411048   0.0749119   0.0000692  )
         4           C   tau(   4) = (   0.0459374   0.0761731   0.0000488  )
         5           C   tau(   5) = (   0.0897978   0.0000000   0.0000440  )
         6           C   tau(   6) = (   0.0459374  -0.0761731   0.0000884  )
         7           C   tau(   7) = (  -0.0411048  -0.0749119   0.0001182  )
         8           H   tau(   8) = (  -0.0804244   0.1312714   0.0000570  )
         9           H   tau(   9) = (   0.0786365   0.1366241   0.0000268  )
        10           H   tau(  10) = (   0.1586195   0.0000000   0.0000007  )
        11           H   tau(  11) = (   0.0786366  -0.1366241   0.0001069  )
        12           H   tau(  12) = (  -0.0804243  -0.1312713   0.0001627  )

   Crystallographic axes

     site n.     atom                  positions (cryst. coord.)
         1           H   tau(   1) = (  0.1523532  0.0000000  0.0001258  )
         2           N   tau(   2) = ( -0.0815136  0.0000000  0.0001009  )
         3           C   tau(   3) = ( -0.0411048  0.0749119  0.0000692  )
         4           C   tau(   4) = (  0.0459374  0.0761731  0.0000488  )
         5           C   tau(   5) = (  0.0897978  0.0000000  0.0000440  )
         6           C   tau(   6) = (  0.0459374 -0.0761731  0.0000884  )
         7           C   tau(   7) = ( -0.0411048 -0.0749119  0.0001182  )
         8           H   tau(   8) = ( -0.0804244  0.1312714  0.0000570  )
         9           H   tau(   9) = (  0.0786365  0.1366241  0.0000268  )
        10           H   tau(  10) = (  0.1586195  0.0000000  0.0000007  )
        11           H   tau(  11) = (  0.0786366 -0.1366241  0.0001069  )
        12           H   tau(  12) = ( -0.0804243 -0.1312713  0.0001627  )

     number of k points=     1
                       cart. coord. in units 2pi/alat
        k(    1) = (   0.0000000   0.0000000   0.0000000), wk =   2.0000000

                       cryst. coord.
        k(    1) = (   0.0000000   0.0000000   0.0000000), wk =   2.0000000

     Dense  grid:  1184463 G-vectors     FFT dimensions: ( 180, 180, 180)

     Smooth grid:   299581 G-vectors     FFT dimensions: ( 108, 108, 108)

     Largest allocated arrays     est. size (Mb)     dimensions
        Kohn-Sham Wavefunctions         4.28 Mb     (   18695,   15)
        NL pseudopotentials            17.12 Mb     (   18695,   60)
        Each V/rho on FFT grid         44.49 Mb     ( 2916000)
        Each G-vector array             4.52 Mb     (  592233)
        G-vector shells                 0.04 Mb     (    5700)
     Largest temporary arrays     est. size (Mb)     dimensions
        Auxiliary wavefunctions         8.56 Mb     (   18695,   60)
        Each subspace H/S matrix        0.03 Mb     (      60,   60)
        Each <psi_i|beta_j> matrix      0.01 Mb     (      60,   15)
        Arrays for rho mixing         355.96 Mb     ( 2916000,    8)

     Initial potential from superposition of free atoms
     Check: negative starting charge=   -0.002341

     starting charge   30.42250, renormalised to   30.00000

     negative rho (up, down):  2.308E-03 0.000E+00
     Starting wfc are   30 randomized atomic wfcs

     total cpu time spent up to now is        7.9 secs

     per-process dynamical memory:   380.0 Mb

     Self-consistent Calculation

     iteration #  1     ecut=    30.00 Ry     beta=0.40
     Davidson diagonalization with overlap
     ethr =  1.00E-02,  avg # of iterations =  4.0

     negative rho (up, down):  1.194E-03 0.000E+00

     total cpu time spent up to now is       16.7 secs

     total energy              =     -73.89726823 Ry
     Harris-Foulkes estimate   =     -76.88409028 Ry
     estimated scf accuracy    <       5.74746308 Ry

     iteration #  2     ecut=    30.00 Ry     beta=0.40
     Davidson diagonalization with overlap
     ethr =  1.00E-02,  avg # of iterations =  4.0

     negative rho (up, down):  3.816E-03 0.000E+00

     total cpu time spent up to now is       25.5 secs

     total energy              =     -74.90368468 Ry
     Harris-Foulkes estimate   =     -76.20192401 Ry
     estimated scf accuracy    <       3.53217308 Ry

     iteration #  3     ecut=    30.00 Ry     beta=0.40
     Davidson diagonalization with overlap
     ethr =  1.00E-02,  avg # of iterations =  3.0

     negative rho (up, down):  2.449E-03 0.000E+00

     total cpu time spent up to now is       33.8 secs

     total energy              =     -75.04415390 Ry
     Harris-Foulkes estimate   =     -75.29133445 Ry
     estimated scf accuracy    <       0.43440471 Ry

     iteration #  4     ecut=    30.00 Ry     beta=0.40
     Davidson diagonalization with overlap
     ethr =  1.45E-03,  avg # of iterations =  4.0

     negative rho (up, down):  8.911E-04 0.000E+00

     total cpu time spent up to now is       42.3 secs

     total energy              =     -75.12140942 Ry
     Harris-Foulkes estimate   =     -75.16606659 Ry
     estimated scf accuracy    <       0.12728146 Ry

     iteration #  5     ecut=    30.00 Ry     beta=0.40
     Davidson diagonalization with overlap
     ethr =  4.24E-04,  avg # of iterations =  3.0

     negative rho (up, down):  9.245E-04 0.000E+00

     add environment contribution to local potential

     total cpu time spent up to now is       50.7 secs

     total energy              =     -75.12751065 Ry
     Harris-Foulkes estimate   =     -75.13636892 Ry
     estimated scf accuracy    <       0.02063505 Ry

     iteration #  6     ecut=    30.00 Ry     beta=0.40
     Davidson diagonalization with overlap
     ethr =  6.88E-05,  avg # of iterations =  4.0

     negative rho (up, down):  7.838E-04 0.000E+00

     add environment contribution to local potential

     total cpu time spent up to now is       59.4 secs

     total energy              =     -75.13258626 Ry
     Harris-Foulkes estimate   =     -75.13422596 Ry
     estimated scf accuracy    <       0.00606563 Ry

     iteration #  7     ecut=    30.00 Ry     beta=0.40
     Davidson diagonalization with overlap
     ethr =  2.02E-05,  avg # of iterations =  3.0

     negative rho (up, down):  7.283E-04 0.000E+00

     add environment contribution to local potential

     total cpu time spent up to now is       67.7 secs

     total energy              =     -75.13282679 Ry
     Harris-Foulkes estimate   =     -75.13312350 Ry
     estimated scf accuracy    <       0.00112982 Ry

     iteration #  8     ecut=    30.00 Ry     beta=0.40
     Davidson diagonalization with overlap
     ethr =  3.77E-06,  avg # of iterations =  4.0

     negative rho (up, down):  6.092E-04 0.000E+00

     add environment contribution to local potential

     total cpu time spent up to now is       76.3 secs

     total energy              =     -75.13316849 Ry
     Harris-Foulkes estimate   =     -75.13323706 Ry
     estimated scf accuracy    <       0.00021977 Ry

     iteration #  9     ecut=    30.00 Ry     beta=0.40
     Davidson diagonalization with overlap
     ethr =  7.33E-07,  avg # of iterations =  3.0

     negative rho (up, down):  6.359E-04 0.000E+00

     add environment contribution to local potential

     total cpu time spent up to now is       84.8 secs

     total energy              =     -75.13323047 Ry
     Harris-Foulkes estimate   =     -75.13322843 Ry
     estimated scf accuracy    <       0.00002352 Ry

     iteration # 10     ecut=    30.00 Ry     beta=0.40
     Davidson diagonalization with overlap
     ethr =  7.84E-08,  avg # of iterations =  4.0

     negative rho (up, down):  5.827E-04 0.000E+00

     add environment contribution to local potential

     total cpu time spent up to now is       93.3 secs

     total energy              =     -75.13323428 Ry
     Harris-Foulkes estimate   =     -75.13323711 Ry
     estimated scf accuracy    <       0.00000848 Ry

     iteration # 11     ecut=    30.00 Ry     beta=0.40
     Davidson diagonalization with overlap
     ethr =  2.83E-08,  avg # of iterations =  3.0

     negative rho (up, down):  6.062E-04 0.000E+00

     add environment contribution to local potential

     total cpu time spent up to now is      101.5 secs

     total energy              =     -75.13323500 Ry
     Harris-Foulkes estimate   =     -75.13323518 Ry
     estimated scf accuracy    <       0.00000115 Ry

     iteration # 12     ecut=    30.00 Ry     beta=0.40
     Davidson diagonalization with overlap
     ethr =  3.85E-09,  avg # of iterations =  4.0

     negative rho (up, down):  6.125E-04 0.000E+00

     add environment contribution to local potential

     total cpu time spent up to now is      110.3 secs

     total energy              =     -75.13323550 Ry
     Harris-Foulkes estimate   =     -75.13323575 Ry
     estimated scf accuracy    <       0.00000070 Ry

     iteration # 13     ecut=    30.00 Ry     beta=0.40
     Davidson diagonalization with overlap
     ethr =  2.32E-09,  avg # of iterations =  3.0

     negative rho (up, down):  6.128E-04 0.000E+00

     add environment contribution to local potential

     total cpu time spent up to now is      118.6 secs

     total energy              =     -75.13323556 Ry
     Harris-Foulkes estimate   =     -75.13323559 Ry
     estimated scf accuracy    <       0.00000004 Ry

     iteration # 14     ecut=    30.00 Ry     beta=0.40
     Davidson diagonalization with overlap
     ethr =  1.22E-10,  avg # of iterations =  5.0

     negative rho (up, down):  6.132E-04 0.000E+00

     add environment contribution to local potential

     total cpu time spent up to now is      127.5 secs

     total energy              =     -75.13323557 Ry
     Harris-Foulkes estimate   =     -75.13323560 Ry
     estimated scf accuracy    <       0.00000004 Ry

     iteration # 15     ecut=    30.00 Ry     beta=0.40
     Davidson diagonalization with overlap
     ethr =  1.17E-10,  avg # of iterations =  3.0

     negative rho (up, down):  6.123E-04 0.000E+00

     total cpu time spent up to now is      135.6 secs

     End of self-consistent calculation

          k = 0.0000 0.0000 0.0000 ( 37387 PWs)   bands (ev):

   -33.5689 -29.0434 -25.2818 -25.0091 -21.6506 -20.6401 -18.1632 -17.7918
   -16.8506 -16.3989 -15.9658 -14.8013 -13.5866 -12.5632 -10.9281

     occupation numbers 
     1.0000   1.0000   1.0000   1.0000   1.0000   1.0000   1.0000   1.0000
     1.0000   1.0000   1.0000   1.0000   1.0000   1.0000   1.0000

     highest occupied level (ev):   -10.9281

!    total energy              =     -75.13323557 Ry
     Harris-Foulkes estimate   =     -75.13323558 Ry
     estimated scf accuracy    <          3.8E-10 Ry

     The total energy is the sum of the following terms:

     one-electron contribution =    -554.32650271 Ry
     hartree contribution      =     272.91772675 Ry
     xc contribution           =     -26.55722841 Ry
     ewald contribution        =     232.83276880 Ry

     convergence has been achieved in  15 iterations

     Forces acting on atoms (Ry/au):

     The MT-Environ correction contrib. to forces
     atom    1 type  3   force =     0.00000000    0.00000000    0.00000000
     atom    2 type  1   force =     0.00000000    0.00000000    0.00000000
     atom    3 type  2   force =     0.00000000    0.00000000    0.00000000
     atom    4 type  2   force =     0.00000000    0.00000000    0.00000000
     atom    5 type  2   force =     0.00000000    0.00000000    0.00000000
     atom    6 type  2   force =     0.00000000    0.00000000    0.00000000
     atom    7 type  2   force =     0.00000000    0.00000000    0.00000000
     atom    8 type  3   force =     0.00000000    0.00000000    0.00000000
     atom    9 type  3   force =     0.00000000    0.00000000    0.00000000
     atom   10 type  3   force =     0.00000000    0.00000000    0.00000000
     atom   11 type  3   force =     0.00000000    0.00000000    0.00000000
     atom   12 type  3   force =     0.00000000    0.00000000    0.00000000
     The global environment contribution to forces
     atom    1 type  3   force =     0.00000000    0.00000000    0.00000000
     atom    2 type  1   force =     0.00000000    0.00000000    0.00000000
     atom    3 type  2   force =     0.00000000    0.00000000    0.00000000
     atom    4 type  2   force =     0.00000000    0.00000000    0.00000000
     atom    5 type  2   force =     0.00000000    0.00000000    0.00000000
     atom    6 type  2   force =     0.00000000    0.00000000    0.00000000
     atom    7 type  2   force =     0.00000000    0.00000000    0.00000000
     atom    8 type  3   force =     0.00000000    0.00000000    0.00000000
     atom    9 type  3   force =     0.00000000    0.00000000    0.00000000
     atom   10 type  3   force =     0.00000000    0.00000000    0.00000000
     atom   11 type  3   force =     0.00000000    0.00000000    0.00000000
     atom   12 type  3   force =     0.00000000    0.00000000    0.00000000
 
     atom    1 type  3   force =   -55.67295695    0.00017670    1.11717294
     atom    2 type  1   force =    -0.02502950    0.00000045    0.00002801
     atom    3 type  2   force =    -0.01782611   -0.08275657   -0.00000686
     atom    4 type  2   force =     0.08159769    0.03953710   -0.00006465
     atom    5 type  2   force =    -0.41128405    0.00000000   -0.00016786
     atom    6 type  2   force =     0.08159851   -0.03953661   -0.00000574
     atom    7 type  2   force =    -0.01782667    0.08275607   -0.00003412
     atom    8 type  3   force =     0.00782946    0.00247906    0.00000728
     atom    9 type  3   force =     0.00406944   -0.00050380    0.00000903
     atom   10 type  3   force =    55.95792925   -0.00017636   -1.11691934
     atom   11 type  3   force =     0.00406988    0.00050338   -0.00000297
     atom   12 type  3   force =     0.00782904   -0.00247941   -0.00001572
     The Martyna-Tuckerman correction term to forces
     atom    1 type  3   force =     0.00057725    0.00000000    0.00000047
     atom    2 type  1   force =    -0.00879153    0.00000001    0.00000100
     atom    3 type  2   force =    -0.00508369    0.00285027    0.00000001
     atom    4 type  2   force =    -0.00167254    0.00309133   -0.00000063
     atom    5 type  2   force =    -0.00005975    0.00000001   -0.00000092
     atom    6 type  2   force =    -0.00167254   -0.00309130    0.00000045
     atom    7 type  2   force =    -0.00508369   -0.00285024    0.00000127
     atom    8 type  3   force =    -0.00161622    0.00122517   -0.00000006
     atom    9 type  3   force =    -0.00011422    0.00144456   -0.00000029
     atom   10 type  3   force =     0.00063807    0.00000000   -0.00000058
     atom   11 type  3   force =    -0.00011422   -0.00144455    0.00000023
     atom   12 type  3   force =    -0.00161622   -0.00122516    0.00000055
     The non-local contrib.  to forces
     atom    1 type  3   force =    -0.04862307   -0.00000066   -0.00444995
     atom    2 type  1   force =     2.20888688    0.00000072   -0.00062828
     atom    3 type  2   force =     0.07641215   -0.26205242    0.00003942
     atom    4 type  2   force =     0.12184821   -0.18238386   -0.00007233
     atom    5 type  2   force =     0.59574172    0.00000051    0.00037113
     atom    6 type  2   force =     0.12184870    0.18238416   -0.00016763
     atom    7 type  2   force =     0.07641158    0.26205246   -0.00016912
     atom    8 type  3   force =     0.09257757   -0.12596794    0.00002753
     atom    9 type  3   force =    -0.06895285   -0.13658326    0.00005012
     atom   10 type  3   force =    -0.37993183    0.00000065    0.00393245
     atom   11 type  3   force =    -0.06895288    0.13658329   -0.00004259
     atom   12 type  3   force =     0.09257752    0.12596793   -0.00010309
     The ionic contribution  to forces
     atom    1 type  3   force =   -52.75815263    0.00017906    1.13330367
     atom    2 type  1   force =   -11.44975081    0.00000198    0.00244705
     atom    3 type  2   force =    -3.43025301    7.32033480   -0.00118373
     atom    4 type  2   force =     3.43049542    6.59197365   -0.00207532
     atom    5 type  2   force =     4.95781432   -0.00000146   -0.00614305
     atom    6 type  2   force =     3.43049659   -6.59197391    0.00054579
     atom    7 type  2   force =    -3.43025067   -7.32033566    0.00360758
     atom    8 type  3   force =    -1.89627879    2.85909077   -0.00058495
     atom    9 type  3   force =     1.57817041    3.00266910   -0.00108222
     atom   10 type  3   force =    59.88581631   -0.00017899   -1.13172016
     atom   11 type  3   force =     1.57817071   -3.00266890    0.00078874
     atom   12 type  3   force =    -1.89627786   -2.85909043    0.00209660
     The local contribution  to forces
     atom    1 type  3   force =    -2.86676640   -0.00000163   -0.01168203
     atom    2 type  1   force =     9.22462241    0.00000111   -0.00179258
     atom    3 type  2   force =     3.34107471   -7.14389209    0.00113664
     atom    4 type  2   force =    -3.46909799   -6.37313770    0.00208282
     atom    5 type  2   force =    -5.96479348    0.00000325    0.00560412
     atom    6 type  2   force =    -3.46909674    6.37313983   -0.00038518
     atom    7 type  2   force =     3.34107024    7.14389406   -0.00347468
     atom    8 type  3   force =     1.81313667   -2.73187019    0.00056391
     atom    9 type  3   force =    -1.50504421   -2.86803288    0.00104062
     atom   10 type  3   force =    -3.54860148    0.00000204    0.01086820
     atom   11 type  3   force =    -1.50504370    2.86803183   -0.00075015
     atom   12 type  3   force =     1.81313505    2.73186923   -0.00201064
     The core correction contribution to forces
     atom    1 type  3   force =     0.00000000    0.00000000    0.00000000
     atom    2 type  1   force =     0.00000000    0.00000000    0.00000000
     atom    3 type  2   force =     0.00000000    0.00000000    0.00000000
     atom    4 type  2   force =     0.00000000    0.00000000    0.00000000
     atom    5 type  2   force =     0.00000000    0.00000000    0.00000000
     atom    6 type  2   force =     0.00000000    0.00000000    0.00000000
     atom    7 type  2   force =     0.00000000    0.00000000    0.00000000
     atom    8 type  3   force =     0.00000000    0.00000000    0.00000000
     atom    9 type  3   force =     0.00000000    0.00000000    0.00000000
     atom   10 type  3   force =     0.00000000    0.00000000    0.00000000
     atom   11 type  3   force =     0.00000000    0.00000000    0.00000000
     atom   12 type  3   force =     0.00000000    0.00000000    0.00000000
     The Hubbard contrib.    to forces
     atom    1 type  3   force =     0.00000000    0.00000000    0.00000000
     atom    2 type  1   force =     0.00000000    0.00000000    0.00000000
     atom    3 type  2   force =     0.00000000    0.00000000    0.00000000
     atom    4 type  2   force =     0.00000000    0.00000000    0.00000000
     atom    5 type  2   force =     0.00000000    0.00000000    0.00000000
     atom    6 type  2   force =     0.00000000    0.00000000    0.00000000
     atom    7 type  2   force =     0.00000000    0.00000000    0.00000000
     atom    8 type  3   force =     0.00000000    0.00000000    0.00000000
     atom    9 type  3   force =     0.00000000    0.00000000    0.00000000
     atom   10 type  3   force =     0.00000000    0.00000000    0.00000000
     atom   11 type  3   force =     0.00000000    0.00000000    0.00000000
     atom   12 type  3   force =     0.00000000    0.00000000    0.00000000
     The SCF correction term to forces
     atom    1 type  3   force =    -0.00000194   -0.00000010   -0.00000005
     atom    2 type  1   force =    -0.00000628   -0.00000341   -0.00000001
     atom    3 type  2   force =     0.00001389    0.00000284   -0.00000002
     atom    4 type  2   force =     0.00001474   -0.00000635   -0.00000002
     atom    5 type  2   force =     0.00000330   -0.00000234    0.00000001
     atom    6 type  2   force =     0.00001266    0.00000458    0.00000000
     atom    7 type  2   force =     0.00001602   -0.00000460    0.00000000
     atom    8 type  3   force =     0.00000039    0.00000122    0.00000002
     atom    9 type  3   force =     0.00000046   -0.00000136   -0.00000003
     atom   10 type  3   force =    -0.00000166   -0.00000009   -0.00000008
     atom   11 type  3   force =     0.00000014    0.00000168   -0.00000002
     atom   12 type  3   force =     0.00000071   -0.00000101    0.00000001

     Total force =    78.952291     Total SCF correction =     0.000032

     Writing output data file piridine_vacuum_martyna-tuckerman.save
 
     init_run     :      7.42s CPU      7.81s WALL (       1 calls)
     electrons    :    121.54s CPU    127.93s WALL (       1 calls)
     forces       :      6.51s CPU      6.65s WALL (       1 calls)

     Called by init_run:
     wfcinit      :      0.73s CPU      0.73s WALL (       1 calls)
     potinit      :      2.47s CPU      2.74s WALL (       1 calls)

     Called by electrons:
     c_bands      :     17.92s CPU     18.03s WALL (      15 calls)
     sum_band     :     35.82s CPU     37.22s WALL (      15 calls)
     v_of_rho     :     26.92s CPU     30.14s WALL (      16 calls)
     v_h          :      2.82s CPU      3.20s WALL (      16 calls)
     v_xc         :     24.11s CPU     26.93s WALL (      16 calls)
     newd         :     35.09s CPU     36.14s WALL (      16 calls)
     mix_rho      :      5.47s CPU      5.87s WALL (      15 calls)

     Called by c_bands:
     init_us_2    :      0.30s CPU      0.31s WALL (      31 calls)
     regterg      :     17.41s CPU     17.50s WALL (      15 calls)

     Called by sum_band:
     sum_band:bec :      0.00s CPU      0.00s WALL (      15 calls)
     addusdens    :     25.41s CPU     26.06s WALL (      15 calls)

     Called by *egterg:
     h_psi        :     16.45s CPU     16.53s WALL (      70 calls)
     s_psi        :      0.34s CPU      0.34s WALL (      70 calls)
     g_psi        :      0.12s CPU      0.12s WALL (      54 calls)
     rdiaghg      :      0.02s CPU      0.03s WALL (      69 calls)
     regterg:over :      0.34s CPU      0.34s WALL (      54 calls)
     regterg:upda :      0.29s CPU      0.30s WALL (      54 calls)
     regterg:last :      0.08s CPU      0.08s WALL (      15 calls)

     Called by h_psi:
     h_psi:vloc   :     15.70s CPU     15.75s WALL (      70 calls)
     h_psi:vnl    :      0.68s CPU      0.70s WALL (      70 calls)
     add_vuspsi   :      0.34s CPU      0.34s WALL (      70 calls)

     General routines
     calbec       :      0.46s CPU      0.49s WALL (      89 calls)
     fft          :     33.14s CPU     36.55s WALL (     256 calls)
     ffts         :      0.88s CPU      0.88s WALL (      31 calls)
     fftw         :     14.48s CPU     14.61s WALL (     856 calls)
     interpolate  :      5.37s CPU      6.07s WALL (      31 calls)
     davcio       :      0.00s CPU      0.00s WALL (       1 calls)
 
     Parallel routines
     fft_scatter  :     17.74s CPU     19.31s WALL (    1143 calls)
 
     Environ routines
 
     PWSCF        :  2m15.83s CPU     2m22.79s WALL

 
   This run was terminated on:  15:23:34  30May2014            

=------------------------------------------------------------------------------=
   JOB DONE.
=------------------------------------------------------------------------------=
