
     Program PWSCF v.5.1 (svn rev. 11016M) starts on 30May2014 at 15:23:35 

     This program is part of the open-source Quantum ESPRESSO suite
     for quantum simulation of materials; please cite
         "P. Giannozzi et al., J. Phys.:Condens. Matter 21 395502 (2009);
          URL http://www.quantum-espresso.org", 
     in publications or presentations arising from this work. More details at
     http://www.quantum-espresso.org/quote

     Parallel version (MPI), running on     2 processors
     R & G space division:  proc/nbgrp/npool/nimage =       2
     Waiting for input...
     Reading input from standard input
Warning: card  &IONS ignored
Warning: card    ION_DYNAMICS    = 'BFGS' ignored
Warning: card  / ignored

     Current dimensions of program PWSCF are:
     Max number of different atomic species (ntypx) = 10
     Max number of k-points (npk) =  40000
     Max angular momentum in pseudopotentials (lmaxx) =  3
               file N.pbe-rrkjus.UPF: wavefunction(s)  2S renormalized
               file C.pbe-rrkjus.UPF: wavefunction(s)  2S 2P renormalized
               file H.pbe-rrkjus.UPF: wavefunction(s)  1S renormalized

     gamma-point specific algorithms are used

     Subspace diagonalization in iterative solution of the eigenvalue problem:
     a serial algorithm will be used

 
     Parallelization info
     --------------------
     sticks:   dense  smooth     PW     G-vecs:    dense   smooth      PW
     Min       10732    4292   1072              1184460   299536   37384
     Max       10733    4293   1073              1184465   299625   37389
     Sum       21465    8585   2145              2368925   599161   74773
     Tot       10733    4293   1073
 


     bravais-lattice index     =            1
     lattice parameter (alat)  =      30.0000  a.u.
     unit-cell volume          =   27000.0000 (a.u.)^3
     number of atoms/cell      =           12
     number of atomic types    =            3
     number of electrons       =        30.00
     number of Kohn-Sham states=           15
     kinetic-energy cutoff     =      30.0000  Ry
     charge density cutoff     =     300.0000  Ry
     convergence threshold     =      5.0E-09
     mixing beta               =       0.4000
     number of iterations used =            8  plain     mixing
     Exchange-correlation      =  SLA  PW   PBE  PBE ( 1  4  3  4 0)
 

     Environ Module
     ==============

     Please cite
         "O. Andreussi, I. Dabo and N. Marzari, J. Chem. Phys. 136, 064102 (2012);"
     in publications or presentations arising from this work.

     compensation onset threshold      =               0.1000E+00 
     switching function adopted        =                     SCCS 
     density limit for vacuum region   =               0.5000E-02 
     density limit for bulk solvent    =               0.1000E-03 
     static permittivity               =                    80.00 
     epsilon calculation mode          =               electronic 
     type of numerical differentiator  =            central diff. 
     number of points in num. diff.    =                        2 
     required accuracy                 =               0.1000E-11 
     linear mixing parameter           =                     0.60 
 
     Assuming isolated system, Martyna-Tuckerman method


     celldm(1)=  30.000000  celldm(2)=   0.000000  celldm(3)=   0.000000
     celldm(4)=   0.000000  celldm(5)=   0.000000  celldm(6)=   0.000000

     crystal axes: (cart. coord. in units of alat)
               a(1) = (   1.000000   0.000000   0.000000 )  
               a(2) = (   0.000000   1.000000   0.000000 )  
               a(3) = (   0.000000   0.000000   1.000000 )  

     reciprocal axes: (cart. coord. in units 2 pi/alat)
               b(1) = (  1.000000  0.000000  0.000000 )  
               b(2) = (  0.000000  1.000000  0.000000 )  
               b(3) = (  0.000000  0.000000  1.000000 )  


     PseudoPot. # 1 for N  read from file:
     /home/oliviero/PWSCF/espresso/pseudo/N.pbe-rrkjus.UPF
     MD5 check sum: 0c3fbe5807a93f9ba59d5a7019aa238b
     Pseudo is Ultrasoft, Zval =  5.0
     Generated by new atomic code, or converted to UPF format
     Using radial grid of 1257 points,  4 beta functions with: 
                l(1) =   0
                l(2) =   0
                l(3) =   1
                l(4) =   1
     Q(r) pseudized with 0 coefficients 


     PseudoPot. # 2 for C  read from file:
     /home/oliviero/PWSCF/espresso/pseudo/C.pbe-rrkjus.UPF
     MD5 check sum: 00fb224312de0c5b6853bd333518df6f
     Pseudo is Ultrasoft, Zval =  4.0
     Generated by new atomic code, or converted to UPF format
     Using radial grid of  627 points,  4 beta functions with: 
                l(1) =   0
                l(2) =   0
                l(3) =   1
                l(4) =   1
     Q(r) pseudized with 0 coefficients 


     PseudoPot. # 3 for H  read from file:
     /home/oliviero/PWSCF/espresso/pseudo/H.pbe-rrkjus.UPF
     MD5 check sum: 7cc9d459525c9a0585f487a71c3c9563
     Pseudo is Ultrasoft, Zval =  1.0
     Generated by new atomic code, or converted to UPF format
     Using radial grid of 1061 points,  2 beta functions with: 
                l(1) =   0
                l(2) =   0
     Q(r) pseudized with 0 coefficients 


     atomic species   valence    mass     pseudopotential
        N              5.00    14.00000     N ( 1.00)
        C              4.00    12.00000     C ( 1.00)
        H              1.00     1.00000     H ( 1.00)

     No symmetry found


                                    s                        frac. trans.

      isym =  1     identity                                     

 cryst.   s( 1) = (     1          0          0      )
                  (     0          1          0      )
                  (     0          0          1      )

 cart.    s( 1) = (  1.0000000  0.0000000  0.0000000 )
                  (  0.0000000  1.0000000  0.0000000 )
                  (  0.0000000  0.0000000  1.0000000 )


     point group C_1 (1)    
     there are  1 classes
     the character table:

       E    
A      1.00

     the symmetry operations in each class:
     E        1

   Cartesian axes

     site n.     atom                  positions (alat units)
         1           H   tau(   1) = (   0.1523532   0.0000000   0.0001258  )
         2           N   tau(   2) = (  -0.0815136   0.0000000   0.0001009  )
         3           C   tau(   3) = (  -0.0411048   0.0749119   0.0000692  )
         4           C   tau(   4) = (   0.0459374   0.0761731   0.0000488  )
         5           C   tau(   5) = (   0.0897978   0.0000000   0.0000440  )
         6           C   tau(   6) = (   0.0459374  -0.0761731   0.0000884  )
         7           C   tau(   7) = (  -0.0411048  -0.0749119   0.0001182  )
         8           H   tau(   8) = (  -0.0804244   0.1312714   0.0000570  )
         9           H   tau(   9) = (   0.0786365   0.1366241   0.0000268  )
        10           H   tau(  10) = (   0.1586195   0.0000000   0.0000007  )
        11           H   tau(  11) = (   0.0786366  -0.1366241   0.0001069  )
        12           H   tau(  12) = (  -0.0804243  -0.1312713   0.0001627  )

   Crystallographic axes

     site n.     atom                  positions (cryst. coord.)
         1           H   tau(   1) = (  0.1523532  0.0000000  0.0001258  )
         2           N   tau(   2) = ( -0.0815136  0.0000000  0.0001009  )
         3           C   tau(   3) = ( -0.0411048  0.0749119  0.0000692  )
         4           C   tau(   4) = (  0.0459374  0.0761731  0.0000488  )
         5           C   tau(   5) = (  0.0897978  0.0000000  0.0000440  )
         6           C   tau(   6) = (  0.0459374 -0.0761731  0.0000884  )
         7           C   tau(   7) = ( -0.0411048 -0.0749119  0.0001182  )
         8           H   tau(   8) = ( -0.0804244  0.1312714  0.0000570  )
         9           H   tau(   9) = (  0.0786365  0.1366241  0.0000268  )
        10           H   tau(  10) = (  0.1586195  0.0000000  0.0000007  )
        11           H   tau(  11) = (  0.0786366 -0.1366241  0.0001069  )
        12           H   tau(  12) = ( -0.0804243 -0.1312713  0.0001627  )

     number of k points=     1
                       cart. coord. in units 2pi/alat
        k(    1) = (   0.0000000   0.0000000   0.0000000), wk =   2.0000000

                       cryst. coord.
        k(    1) = (   0.0000000   0.0000000   0.0000000), wk =   2.0000000

     Dense  grid:  1184463 G-vectors     FFT dimensions: ( 180, 180, 180)

     Smooth grid:   299581 G-vectors     FFT dimensions: ( 108, 108, 108)

     Largest allocated arrays     est. size (Mb)     dimensions
        Kohn-Sham Wavefunctions         4.28 Mb     (   18695,   15)
        NL pseudopotentials            17.12 Mb     (   18695,   60)
        Each V/rho on FFT grid         44.49 Mb     ( 2916000)
        Each G-vector array             4.52 Mb     (  592233)
        G-vector shells                 0.04 Mb     (    5700)
     Largest temporary arrays     est. size (Mb)     dimensions
        Auxiliary wavefunctions         8.56 Mb     (   18695,   60)
        Each subspace H/S matrix        0.03 Mb     (      60,   60)
        Each <psi_i|beta_j> matrix      0.01 Mb     (      60,   15)
        Arrays for rho mixing         355.96 Mb     ( 2916000,    8)

     Initial potential from superposition of free atoms
     Check: negative starting charge=   -0.002341

     starting charge   30.42250, renormalised to   30.00000

     negative rho (up, down):  2.308E-03 0.000E+00
     Starting wfc are   30 randomized atomic wfcs

     total cpu time spent up to now is       10.3 secs

     per-process dynamical memory:   602.8 Mb

     Self-consistent Calculation

     iteration #  1     ecut=    30.00 Ry     beta=0.40
     Davidson diagonalization with overlap
     ethr =  1.00E-02,  avg # of iterations =  4.0

     negative rho (up, down):  1.194E-03 0.000E+00

     total cpu time spent up to now is       19.4 secs

     total energy              =     -73.89726823 Ry
     Harris-Foulkes estimate   =     -76.88409028 Ry
     estimated scf accuracy    <       5.74746308 Ry
     solvation energy          =       0.00000000 Ry

     iteration #  2     ecut=    30.00 Ry     beta=0.40
     Davidson diagonalization with overlap
     ethr =  1.00E-02,  avg # of iterations =  4.0

     negative rho (up, down):  3.816E-03 0.000E+00

     total cpu time spent up to now is       28.7 secs

     total energy              =     -74.90368468 Ry
     Harris-Foulkes estimate   =     -76.20192401 Ry
     estimated scf accuracy    <       3.53217308 Ry
     solvation energy          =       0.00000000 Ry

     iteration #  3     ecut=    30.00 Ry     beta=0.40
     Davidson diagonalization with overlap
     ethr =  1.00E-02,  avg # of iterations =  3.0

     negative rho (up, down):  2.449E-03 0.000E+00

     total cpu time spent up to now is       37.4 secs

     total energy              =     -75.04415390 Ry
     Harris-Foulkes estimate   =     -75.29133445 Ry
     estimated scf accuracy    <       0.43440471 Ry
     solvation energy          =       0.00000000 Ry

     iteration #  4     ecut=    30.00 Ry     beta=0.40
     Davidson diagonalization with overlap
     ethr =  1.45E-03,  avg # of iterations =  4.0

     negative rho (up, down):  8.911E-04 0.000E+00

     total cpu time spent up to now is       46.4 secs

     total energy              =     -75.12140942 Ry
     Harris-Foulkes estimate   =     -75.16606659 Ry
     estimated scf accuracy    <       0.12728146 Ry
     solvation energy          =       0.00000000 Ry

     iteration #  5     ecut=    30.00 Ry     beta=0.40
     Davidson diagonalization with overlap
     ethr =  4.24E-04,  avg # of iterations =  3.0

     negative rho (up, down):  9.245E-04 0.000E+00

     add environment contribution to local potential
     polarization accuracy = 9.0E-13, # of iterations =  38

     total cpu time spent up to now is       92.4 secs

     total energy              =     -75.12751065 Ry
     Harris-Foulkes estimate   =     -75.13636892 Ry
     estimated scf accuracy    <       0.02063505 Ry
     solvation energy          =       0.00000000 Ry

     iteration #  6     ecut=    30.00 Ry     beta=0.40
     Davidson diagonalization with overlap
     ethr =  6.88E-05,  avg # of iterations =  6.0

     negative rho (up, down):  1.249E-03 0.000E+00

     add environment contribution to local potential
     polarization accuracy = 8.3E-13, # of iterations =  34

     total cpu time spent up to now is      135.4 secs

     total energy              =     -75.38764592 Ry
     Harris-Foulkes estimate   =     -63.88930737 Ry
     estimated scf accuracy    <       0.06401333 Ry
     solvation energy          =      -0.24587238 Ry

     iteration #  7     ecut=    30.00 Ry     beta=0.40
     Davidson diagonalization with overlap
     ethr =  6.88E-05,  avg # of iterations =  1.0

     negative rho (up, down):  1.238E-03 0.000E+00

     add environment contribution to local potential
     polarization accuracy = 8.6E-13, # of iterations =  39

     total cpu time spent up to now is      182.3 secs

     total energy              =     -75.35638606 Ry
     Harris-Foulkes estimate   =     -63.92928978 Ry
     estimated scf accuracy    <       0.04174172 Ry
     solvation energy          =      -0.26226491 Ry

     iteration #  8     ecut=    30.00 Ry     beta=0.40
     Davidson diagonalization with overlap
     ethr =  6.88E-05,  avg # of iterations =  4.0

     negative rho (up, down):  9.428E-04 0.000E+00

     add environment contribution to local potential
     polarization accuracy = 9.4E-13, # of iterations =  32

     total cpu time spent up to now is      223.2 secs

     total energy              =     -75.39830926 Ry
     Harris-Foulkes estimate   =     -63.98494727 Ry
     estimated scf accuracy    <       0.00261682 Ry
     solvation energy          =      -0.28531902 Ry

     iteration #  9     ecut=    30.00 Ry     beta=0.40
     Davidson diagonalization with overlap
     ethr =  8.72E-06,  avg # of iterations =  5.0

     negative rho (up, down):  9.775E-04 0.000E+00

     add environment contribution to local potential
     polarization accuracy = 8.2E-13, # of iterations =  36

     total cpu time spent up to now is      267.4 secs

     total energy              =     -75.38943494 Ry
     Harris-Foulkes estimate   =     -63.97606145 Ry
     estimated scf accuracy    <       0.00569336 Ry
     solvation energy          =      -0.28916540 Ry

     iteration # 10     ecut=    30.00 Ry     beta=0.40
     Davidson diagonalization with overlap
     ethr =  8.72E-06,  avg # of iterations =  4.0

     negative rho (up, down):  1.043E-03 0.000E+00

     add environment contribution to local potential
     polarization accuracy = 9.4E-13, # of iterations =  36

     total cpu time spent up to now is      311.5 secs

     total energy              =     -75.39137037 Ry
     Harris-Foulkes estimate   =     -63.94729562 Ry
     estimated scf accuracy    <       0.00060560 Ry
     solvation energy          =      -0.30149302 Ry

     iteration # 11     ecut=    30.00 Ry     beta=0.40
     Davidson diagonalization with overlap
     ethr =  2.02E-06,  avg # of iterations =  4.0

     negative rho (up, down):  8.904E-04 0.000E+00

     add environment contribution to local potential
     polarization accuracy = 8.9E-13, # of iterations =  31

     total cpu time spent up to now is      351.3 secs

     total energy              =     -75.39833301 Ry
     Harris-Foulkes estimate   =     -63.91034610 Ry
     estimated scf accuracy    <       0.00030703 Ry
     solvation energy          =      -0.30964389 Ry

     iteration # 12     ecut=    30.00 Ry     beta=0.40
     Davidson diagonalization with overlap
     ethr =  1.02E-06,  avg # of iterations =  3.0

     negative rho (up, down):  6.118E-04 0.000E+00

     add environment contribution to local potential
     polarization accuracy = 9.7E-13, # of iterations =  28

     total cpu time spent up to now is      388.1 secs

     total energy              =     -75.40015581 Ry
     Harris-Foulkes estimate   =     -63.89945835 Ry
     estimated scf accuracy    <       0.00010161 Ry
     solvation energy          =      -0.31001995 Ry

     iteration # 13     ecut=    30.00 Ry     beta=0.40
     Davidson diagonalization with overlap
     ethr =  3.39E-07,  avg # of iterations =  4.0

     negative rho (up, down):  6.012E-04 0.000E+00

     add environment contribution to local potential
     polarization accuracy = 8.9E-13, # of iterations =  29

     total cpu time spent up to now is      426.2 secs

     total energy              =     -75.39845306 Ry
     Harris-Foulkes estimate   =     -63.89527866 Ry
     estimated scf accuracy    <       0.00001283 Ry
     solvation energy          =      -0.30970653 Ry

     iteration # 14     ecut=    30.00 Ry     beta=0.40
     Davidson diagonalization with overlap
     ethr =  4.28E-08,  avg # of iterations =  5.0

     negative rho (up, down):  5.862E-04 0.000E+00

     add environment contribution to local potential
     polarization accuracy = 8.7E-13, # of iterations =  23

     total cpu time spent up to now is      459.0 secs

     total energy              =     -75.39946345 Ry
     Harris-Foulkes estimate   =     -63.88968488 Ry
     estimated scf accuracy    <       0.00001380 Ry
     solvation energy          =      -0.31049214 Ry

     iteration # 15     ecut=    30.00 Ry     beta=0.40
     Davidson diagonalization with overlap
     ethr =  4.28E-08,  avg # of iterations =  4.0

     negative rho (up, down):  5.923E-04 0.000E+00

     add environment contribution to local potential
     polarization accuracy = 9.4E-13, # of iterations =  19

     total cpu time spent up to now is      487.9 secs

     total energy              =     -75.39932242 Ry
     Harris-Foulkes estimate   =     -63.88847788 Ry
     estimated scf accuracy    <       0.00000025 Ry
     solvation energy          =      -0.31043315 Ry

     iteration # 16     ecut=    30.00 Ry     beta=0.40
     Davidson diagonalization with overlap
     ethr =  8.32E-10,  avg # of iterations =  5.0

     negative rho (up, down):  5.906E-04 0.000E+00

     add environment contribution to local potential
     polarization accuracy = 7.2E-13, # of iterations =  20

     total cpu time spent up to now is      517.8 secs

     total energy              =     -75.39932895 Ry
     Harris-Foulkes estimate   =     -63.88870521 Ry
     estimated scf accuracy    <       0.00000004 Ry
     solvation energy          =      -0.31050777 Ry

     iteration # 17     ecut=    30.00 Ry     beta=0.40
     Davidson diagonalization with overlap
     ethr =  1.46E-10,  avg # of iterations =  4.0

     negative rho (up, down):  5.853E-04 0.000E+00

     add environment contribution to local potential
     polarization accuracy = 7.7E-13, # of iterations =  19

     total cpu time spent up to now is      546.8 secs

     total energy              =     -75.39940346 Ry
     Harris-Foulkes estimate   =     -63.88850454 Ry
     estimated scf accuracy    <       0.00000002 Ry
     solvation energy          =      -0.31053246 Ry

     iteration # 18     ecut=    30.00 Ry     beta=0.40
     Davidson diagonalization with overlap
     ethr =  5.82E-11,  avg # of iterations =  3.0

     negative rho (up, down):  5.821E-04 0.000E+00

     total cpu time spent up to now is      555.3 secs

     End of self-consistent calculation

          k = 0.0000 0.0000 0.0000 ( 37387 PWs)   bands (ev):

   -26.7954 -24.1014 -19.9655 -19.8927 -16.5142 -15.4802 -12.9976 -12.5494
   -11.8869 -11.2800 -10.8161  -9.7329  -8.4497  -7.5144  -6.4038

     occupation numbers 
     1.0000   1.0000   1.0000   1.0000   1.0000   1.0000   1.0000   1.0000
     1.0000   1.0000   1.0000   1.0000   1.0000   1.0000   1.0000

     highest occupied level (ev):    -6.4038

!    total energy              =     -75.39937287 Ry
     Harris-Foulkes estimate   =     -63.88848652 Ry
     estimated scf accuracy    <          3.0E-09 Ry

     The total energy is the sum of the following terms:

     one-electron contribution =    -543.27935740 Ry
     hartree contribution      =     273.12203786 Ry
     xc contribution           =     -26.56393577 Ry
     ewald contribution        =     232.83276880 Ry
     solvation energy          =      -0.31050187 Ry

     convergence has been achieved in  18 iterations

     Forces acting on atoms (Ry/au):

     The MT-Environ correction contrib. to forces
     atom    1 type  3   force =    -0.00007228    0.00000000   -0.00000056
     atom    2 type  1   force =     0.01109733    0.00000000   -0.00000128
     atom    3 type  2   force =     0.00679782   -0.00273123   -0.00000030
     atom    4 type  2   force =     0.00336197   -0.00307058    0.00000033
     atom    5 type  2   force =     0.00186863    0.00000000    0.00000064
     atom    6 type  2   force =     0.00336196    0.00307058   -0.00000074
     atom    7 type  2   force =     0.00679782    0.00273123   -0.00000150
     atom    8 type  3   force =     0.00204360   -0.00115269   -0.00000001
     atom    9 type  3   force =     0.00052390   -0.00145211    0.00000023
     atom   10 type  3   force =    -0.00012609    0.00000000    0.00000054
     atom   11 type  3   force =     0.00052390    0.00145211   -0.00000030
     atom   12 type  3   force =     0.00204360    0.00115269   -0.00000057
     The dielectric solvent contribution to forces
     atom    1 type  3   force =     0.09322599    0.00000002   -0.00001120
     atom    2 type  1   force =     0.18968211   -0.00000004   -0.00003596
     atom    3 type  2   force =     0.12340384    0.02395368   -0.00002971
     atom    4 type  2   force =     0.17098339   -0.02917312   -0.00000012
     atom    5 type  2   force =     0.27934053    0.00000001    0.00003051
     atom    6 type  2   force =     0.17098335    0.02917310   -0.00000547
     atom    7 type  2   force =     0.12340386   -0.02395372   -0.00000203
     atom    8 type  3   force =     0.01766135    0.01594889   -0.00000951
     atom    9 type  3   force =     0.03213174   -0.01284794    0.00000121
     atom   10 type  3   force =     0.09220141    0.00000003   -0.00000814
     atom   11 type  3   force =     0.03213173    0.01284793   -0.00000289
     atom   12 type  3   force =     0.01766136   -0.01594889    0.00000681
     The global environment contribution to forces
     atom    1 type  3   force =     0.09315372    0.00000002   -0.00001175
     atom    2 type  1   force =     0.20077944   -0.00000004   -0.00003724
     atom    3 type  2   force =     0.13020166    0.02122244   -0.00003000
     atom    4 type  2   force =     0.17434535   -0.03224370    0.00000021
     atom    5 type  2   force =     0.28120916    0.00000001    0.00003115
     atom    6 type  2   force =     0.17434532    0.03224368   -0.00000621
     atom    7 type  2   force =     0.13020168   -0.02122249   -0.00000353
     atom    8 type  3   force =     0.01970495    0.01479620   -0.00000953
     atom    9 type  3   force =     0.03265564   -0.01430005    0.00000143
     atom   10 type  3   force =     0.09207532    0.00000003   -0.00000760
     atom   11 type  3   force =     0.03265563    0.01430005   -0.00000319
     atom   12 type  3   force =     0.01970496   -0.01479621    0.00000624
 
     atom    1 type  3   force =   -55.71145915    0.00017653    1.11716967
     atom    2 type  1   force =    -0.03775287    0.00000037    0.00002863
     atom    3 type  2   force =    -0.00994699   -0.07558114   -0.00001199
     atom    4 type  2   force =     0.07377288    0.02866966   -0.00006853
     atom    5 type  2   force =    -0.34877833   -0.00000029   -0.00010196
     atom    6 type  2   force =     0.07377303   -0.02866929   -0.00001149
     atom    7 type  2   force =    -0.00994703    0.07558056   -0.00003639
     atom    8 type  3   force =     0.00934248    0.00071997    0.00000826
     atom    9 type  3   force =     0.00373374   -0.00571096    0.00001190
     atom   10 type  3   force =    55.94418601   -0.00017650   -1.11696769
     atom   11 type  3   force =     0.00373371    0.00571096   -0.00000360
     atom   12 type  3   force =     0.00934253   -0.00071987   -0.00001679
     The Martyna-Tuckerman correction term to forces
     atom    1 type  3   force =     0.00006391    0.00000000    0.00000056
     atom    2 type  1   force =    -0.01128595    0.00000000    0.00000130
     atom    3 type  2   force =    -0.00691905    0.00276460    0.00000030
     atom    4 type  2   force =    -0.00343754    0.00311009   -0.00000034
     atom    5 type  2   force =    -0.00192666    0.00000000   -0.00000065
     atom    6 type  2   force =    -0.00343754   -0.00311009    0.00000075
     atom    7 type  2   force =    -0.00691905   -0.00276459    0.00000152
     atom    8 type  3   force =    -0.00207842    0.00116638    0.00000001
     atom    9 type  3   force =    -0.00053840    0.00147110   -0.00000023
     atom   10 type  3   force =     0.00011830    0.00000000   -0.00000055
     atom   11 type  3   force =    -0.00053840   -0.00147110    0.00000030
     atom   12 type  3   force =    -0.00207842   -0.00116638    0.00000058
     The non-local contrib.  to forces
     atom    1 type  3   force =    -0.08736620   -0.00000068   -0.00448768
     atom    2 type  1   force =     1.96607508    0.00000029   -0.00054236
     atom    3 type  2   force =     0.03523546   -0.25228717    0.00004263
     atom    4 type  2   force =     0.06017121   -0.17801376   -0.00008176
     atom    5 type  2   force =     0.54425797   -0.00000003    0.00036475
     atom    6 type  2   force =     0.06017118    0.17801390   -0.00016713
     atom    7 type  2   force =     0.03523530    0.25228691   -0.00014537
     atom    8 type  3   force =     0.09055042   -0.12654178    0.00002843
     atom    9 type  3   force =    -0.07160480   -0.13670642    0.00005055
     atom   10 type  3   force =    -0.41072111    0.00000064    0.00391023
     atom   11 type  3   force =    -0.07160483    0.13670641   -0.00004271
     atom   12 type  3   force =     0.09055035    0.12654174   -0.00010299
     The ionic contribution  to forces
     atom    1 type  3   force =   -52.75815263    0.00017906    1.13330367
     atom    2 type  1   force =   -11.44975081    0.00000198    0.00244705
     atom    3 type  2   force =    -3.43025301    7.32033480   -0.00118373
     atom    4 type  2   force =     3.43049542    6.59197365   -0.00207532
     atom    5 type  2   force =     4.95781432   -0.00000146   -0.00614305
     atom    6 type  2   force =     3.43049659   -6.59197391    0.00054579
     atom    7 type  2   force =    -3.43025067   -7.32033566    0.00360758
     atom    8 type  3   force =    -1.89627879    2.85909077   -0.00058495
     atom    9 type  3   force =     1.57817041    3.00266910   -0.00108222
     atom   10 type  3   force =    59.88581631   -0.00017899   -1.13172016
     atom   11 type  3   force =     1.57817071   -3.00266890    0.00078874
     atom   12 type  3   force =    -1.89627786   -2.85909043    0.00209660
     The local contribution  to forces
     atom    1 type  3   force =    -2.95910465   -0.00000184   -0.01163580
     atom    2 type  1   force =     9.25651029   -0.00000211   -0.00184082
     atom    3 type  2   force =     3.26183501   -7.16760521    0.00115813
     atom    4 type  2   force =    -3.58776559   -6.35616201    0.00208802
     atom    5 type  2   force =    -6.13008195    0.00000121    0.00564523
     atom    6 type  2   force =    -3.58776670    6.35616251   -0.00038533
     atom    7 type  2   force =     3.26183265    7.16760572   -0.00349725
     atom    8 type  3   force =     1.79750334   -2.74779484    0.00057361
     atom    9 type  3   force =    -1.53489297   -2.85884305    0.00104172
     atom   10 type  3   force =    -3.62304851    0.00000184    0.01084974
     atom   11 type  3   force =    -1.53489327    2.85884286   -0.00074741
     atom   12 type  3   force =     1.79750254    2.74779468   -0.00201791
     The core correction contribution to forces
     atom    1 type  3   force =     0.00000000    0.00000000    0.00000000
     atom    2 type  1   force =     0.00000000    0.00000000    0.00000000
     atom    3 type  2   force =     0.00000000    0.00000000    0.00000000
     atom    4 type  2   force =     0.00000000    0.00000000    0.00000000
     atom    5 type  2   force =     0.00000000    0.00000000    0.00000000
     atom    6 type  2   force =     0.00000000    0.00000000    0.00000000
     atom    7 type  2   force =     0.00000000    0.00000000    0.00000000
     atom    8 type  3   force =     0.00000000    0.00000000    0.00000000
     atom    9 type  3   force =     0.00000000    0.00000000    0.00000000
     atom   10 type  3   force =     0.00000000    0.00000000    0.00000000
     atom   11 type  3   force =     0.00000000    0.00000000    0.00000000
     atom   12 type  3   force =     0.00000000    0.00000000    0.00000000
     The Hubbard contrib.    to forces
     atom    1 type  3   force =     0.00000000    0.00000000    0.00000000
     atom    2 type  1   force =     0.00000000    0.00000000    0.00000000
     atom    3 type  2   force =     0.00000000    0.00000000    0.00000000
     atom    4 type  2   force =     0.00000000    0.00000000    0.00000000
     atom    5 type  2   force =     0.00000000    0.00000000    0.00000000
     atom    6 type  2   force =     0.00000000    0.00000000    0.00000000
     atom    7 type  2   force =     0.00000000    0.00000000    0.00000000
     atom    8 type  3   force =     0.00000000    0.00000000    0.00000000
     atom    9 type  3   force =     0.00000000    0.00000000    0.00000000
     atom   10 type  3   force =     0.00000000    0.00000000    0.00000000
     atom   11 type  3   force =     0.00000000    0.00000000    0.00000000
     atom   12 type  3   force =     0.00000000    0.00000000    0.00000000
     The SCF correction term to forces
     atom    1 type  3   force =     0.00000434   -0.00000003   -0.00000004
     atom    2 type  1   force =    -0.00002329    0.00000026   -0.00000001
     atom    3 type  2   force =     0.00001058   -0.00001060   -0.00000003
     atom    4 type  2   force =     0.00002165    0.00000540   -0.00000005
     atom    5 type  2   force =     0.00000646   -0.00000003   -0.00000010
     atom    6 type  2   force =     0.00002181   -0.00000537   -0.00000006
     atom    7 type  2   force =     0.00001069    0.00001066   -0.00000004
     atom    8 type  3   force =    -0.00000139    0.00000323   -0.00000004
     atom    9 type  3   force =     0.00000149   -0.00000164   -0.00000006
     atom   10 type  3   force =     0.00000334   -0.00000002   -0.00000005
     atom   11 type  3   force =     0.00000150    0.00000164   -0.00000004
     atom   12 type  3   force =    -0.00000141   -0.00000327   -0.00000002

     Total force =    78.969373     Total SCF correction =     0.000046

     Writing output data file piridine_water_martyna-tuckerman.save
 
     init_run     :      7.40s CPU      7.90s WALL (       1 calls)
     electrons    :    502.97s CPU    545.22s WALL (       1 calls)
     forces       :      6.89s CPU      7.06s WALL (       1 calls)

     Called by init_run:
     wfcinit      :      0.70s CPU      0.70s WALL (       1 calls)
     potinit      :      2.50s CPU      2.78s WALL (       1 calls)

     Called by electrons:
     c_bands      :     21.36s CPU     21.57s WALL (      18 calls)
     sum_band     :     42.77s CPU     44.66s WALL (      18 calls)
     v_of_rho     :     31.82s CPU     35.55s WALL (      19 calls)
     v_h          :     10.82s CPU     12.79s WALL (      63 calls)
     v_xc         :     28.51s CPU     31.72s WALL (      19 calls)
     newd         :     42.65s CPU     43.91s WALL (      19 calls)
     mix_rho      :      6.73s CPU      7.18s WALL (      18 calls)

     Called by c_bands:
     init_us_2    :      0.38s CPU      0.37s WALL (      37 calls)
     regterg      :     20.74s CPU     20.94s WALL (      18 calls)

     Called by sum_band:
     sum_band:bec :      0.00s CPU      0.00s WALL (      18 calls)
     addusdens    :     30.62s CPU     31.49s WALL (      18 calls)

     Called by *egterg:
     h_psi        :     19.35s CPU     19.55s WALL (      89 calls)
     s_psi        :      0.44s CPU      0.42s WALL (      89 calls)
     g_psi        :      0.13s CPU      0.15s WALL (      70 calls)
     rdiaghg      :      0.03s CPU      0.04s WALL (      88 calls)
     regterg:over :      0.42s CPU      0.42s WALL (      70 calls)
     regterg:upda :      0.38s CPU      0.38s WALL (      70 calls)
     regterg:last :      0.12s CPU      0.11s WALL (      19 calls)

     Called by h_psi:
     h_psi:vloc   :     18.43s CPU     18.60s WALL (      89 calls)
     h_psi:vnl    :      0.84s CPU      0.85s WALL (      89 calls)
     add_vuspsi   :      0.40s CPU      0.41s WALL (      89 calls)

     General routines
     calbec       :      0.58s CPU      0.57s WALL (     111 calls)
     fft          :    247.78s CPU    272.63s WALL (    1981 calls)
     ffts         :      1.03s CPU      1.05s WALL (      37 calls)
     fftw         :     16.94s CPU     17.03s WALL (    1044 calls)
     interpolate  :      6.26s CPU      7.26s WALL (      37 calls)
     davcio       :      0.00s CPU      0.00s WALL (       1 calls)
 
     Parallel routines
     fft_scatter  :    108.07s CPU    118.56s WALL (    3062 calls)
 
     Environ routines
     calc_esolv   :      5.76s CPU      6.97s WALL (      18 calls)
     calc_vsolv   :    340.17s CPU    372.07s WALL (      13 calls)
     dielectric   :     11.42s CPU     11.95s WALL (      13 calls)
     get_rhopol   :    324.16s CPU    354.63s WALL (      13 calls)
     calc_veps    :      9.84s CPU     11.13s WALL (      13 calls)
 
     PWSCF        :  8m39.88s CPU     9m22.89s WALL

 
   This run was terminated on:  15:32:58  30May2014            

=------------------------------------------------------------------------------=
   JOB DONE.
=------------------------------------------------------------------------------=
