
     Program PWSCF v.5.1 (svn rev. 11016M) starts on 30May2014 at 14:59:13 

     This program is part of the open-source Quantum ESPRESSO suite
     for quantum simulation of materials; please cite
         "P. Giannozzi et al., J. Phys.:Condens. Matter 21 395502 (2009);
          URL http://www.quantum-espresso.org", 
     in publications or presentations arising from this work. More details at
     http://www.quantum-espresso.org/quote

     Parallel version (MPI), running on     2 processors
     R & G space division:  proc/nbgrp/npool/nimage =       2
     Waiting for input...
     Reading input from standard input
Warning: card  &IONS ignored
Warning: card    ION_DYNAMICS    = 'BFGS' ignored
Warning: card  / ignored

     Current dimensions of program PWSCF are:
     Max number of different atomic species (ntypx) = 10
     Max number of k-points (npk) =  40000
     Max angular momentum in pseudopotentials (lmaxx) =  3
               file N.pbe-rrkjus.UPF: wavefunction(s)  2S renormalized
               file C.pbe-rrkjus.UPF: wavefunction(s)  2S 2P renormalized
               file H.pbe-rrkjus.UPF: wavefunction(s)  1S renormalized

     gamma-point specific algorithms are used

     Subspace diagonalization in iterative solution of the eigenvalue problem:
     a serial algorithm will be used

 
     Parallelization info
     --------------------
     sticks:   dense  smooth     PW     G-vecs:    dense   smooth      PW
     Min       10732    4292   1072              1184460   299536   37384
     Max       10733    4293   1073              1184465   299625   37389
     Sum       21465    8585   2145              2368925   599161   74773
     Tot       10733    4293   1073
 


     bravais-lattice index     =            1
     lattice parameter (alat)  =      30.0000  a.u.
     unit-cell volume          =   27000.0000 (a.u.)^3
     number of atoms/cell      =           12
     number of atomic types    =            3
     number of electrons       =        30.00
     number of Kohn-Sham states=           15
     kinetic-energy cutoff     =      30.0000  Ry
     charge density cutoff     =     300.0000  Ry
     convergence threshold     =      5.0E-09
     mixing beta               =       0.4000
     number of iterations used =            8  plain     mixing
     Exchange-correlation      =  SLA  PW   PBE  PBE ( 1  4  3  4 0)
 

     Environ Module
     ==============

     Please cite
         "O. Andreussi, I. Dabo and N. Marzari, J. Chem. Phys. 136, 064102 (2012);"
     in publications or presentations arising from this work.

     compensation onset threshold      =               0.1000E+00 
     switching function adopted        =                     SCCS 
     density limit for vacuum region   =               0.5000E-02 
     density limit for bulk solvent    =               0.1000E-03 
     static permittivity               =                    80.00 
     epsilon calculation mode          =               electronic 
     type of numerical differentiator  =            central diff. 
     number of points in num. diff.    =                        2 
     required accuracy                 =               0.1000E-11 
     linear mixing parameter           =                     0.60 
 

     celldm(1)=  30.000000  celldm(2)=   0.000000  celldm(3)=   0.000000
     celldm(4)=   0.000000  celldm(5)=   0.000000  celldm(6)=   0.000000

     crystal axes: (cart. coord. in units of alat)
               a(1) = (   1.000000   0.000000   0.000000 )  
               a(2) = (   0.000000   1.000000   0.000000 )  
               a(3) = (   0.000000   0.000000   1.000000 )  

     reciprocal axes: (cart. coord. in units 2 pi/alat)
               b(1) = (  1.000000  0.000000  0.000000 )  
               b(2) = (  0.000000  1.000000  0.000000 )  
               b(3) = (  0.000000  0.000000  1.000000 )  


     PseudoPot. # 1 for N  read from file:
     /home/oliviero/PWSCF/espresso/pseudo/N.pbe-rrkjus.UPF
     MD5 check sum: 0c3fbe5807a93f9ba59d5a7019aa238b
     Pseudo is Ultrasoft, Zval =  5.0
     Generated by new atomic code, or converted to UPF format
     Using radial grid of 1257 points,  4 beta functions with: 
                l(1) =   0
                l(2) =   0
                l(3) =   1
                l(4) =   1
     Q(r) pseudized with 0 coefficients 


     PseudoPot. # 2 for C  read from file:
     /home/oliviero/PWSCF/espresso/pseudo/C.pbe-rrkjus.UPF
     MD5 check sum: 00fb224312de0c5b6853bd333518df6f
     Pseudo is Ultrasoft, Zval =  4.0
     Generated by new atomic code, or converted to UPF format
     Using radial grid of  627 points,  4 beta functions with: 
                l(1) =   0
                l(2) =   0
                l(3) =   1
                l(4) =   1
     Q(r) pseudized with 0 coefficients 


     PseudoPot. # 3 for H  read from file:
     /home/oliviero/PWSCF/espresso/pseudo/H.pbe-rrkjus.UPF
     MD5 check sum: 7cc9d459525c9a0585f487a71c3c9563
     Pseudo is Ultrasoft, Zval =  1.0
     Generated by new atomic code, or converted to UPF format
     Using radial grid of 1061 points,  2 beta functions with: 
                l(1) =   0
                l(2) =   0
     Q(r) pseudized with 0 coefficients 


     atomic species   valence    mass     pseudopotential
        N              5.00    14.00000     N ( 1.00)
        C              4.00    12.00000     C ( 1.00)
        H              1.00     1.00000     H ( 1.00)

     No symmetry found


                                    s                        frac. trans.

      isym =  1     identity                                     

 cryst.   s( 1) = (     1          0          0      )
                  (     0          1          0      )
                  (     0          0          1      )

 cart.    s( 1) = (  1.0000000  0.0000000  0.0000000 )
                  (  0.0000000  1.0000000  0.0000000 )
                  (  0.0000000  0.0000000  1.0000000 )


     point group C_1 (1)    
     there are  1 classes
     the character table:

       E    
A      1.00

     the symmetry operations in each class:
     E        1

   Cartesian axes

     site n.     atom                  positions (alat units)
         1           H   tau(   1) = (   0.1523532   0.0000000   0.0001258  )
         2           N   tau(   2) = (  -0.0815136   0.0000000   0.0001009  )
         3           C   tau(   3) = (  -0.0411048   0.0749119   0.0000692  )
         4           C   tau(   4) = (   0.0459374   0.0761731   0.0000488  )
         5           C   tau(   5) = (   0.0897978   0.0000000   0.0000440  )
         6           C   tau(   6) = (   0.0459374  -0.0761731   0.0000884  )
         7           C   tau(   7) = (  -0.0411048  -0.0749119   0.0001182  )
         8           H   tau(   8) = (  -0.0804244   0.1312714   0.0000570  )
         9           H   tau(   9) = (   0.0786365   0.1366241   0.0000268  )
        10           H   tau(  10) = (   0.1586195   0.0000000   0.0000007  )
        11           H   tau(  11) = (   0.0786366  -0.1366241   0.0001069  )
        12           H   tau(  12) = (  -0.0804243  -0.1312713   0.0001627  )

   Crystallographic axes

     site n.     atom                  positions (cryst. coord.)
         1           H   tau(   1) = (  0.1523532  0.0000000  0.0001258  )
         2           N   tau(   2) = ( -0.0815136  0.0000000  0.0001009  )
         3           C   tau(   3) = ( -0.0411048  0.0749119  0.0000692  )
         4           C   tau(   4) = (  0.0459374  0.0761731  0.0000488  )
         5           C   tau(   5) = (  0.0897978  0.0000000  0.0000440  )
         6           C   tau(   6) = (  0.0459374 -0.0761731  0.0000884  )
         7           C   tau(   7) = ( -0.0411048 -0.0749119  0.0001182  )
         8           H   tau(   8) = ( -0.0804244  0.1312714  0.0000570  )
         9           H   tau(   9) = (  0.0786365  0.1366241  0.0000268  )
        10           H   tau(  10) = (  0.1586195  0.0000000  0.0000007  )
        11           H   tau(  11) = (  0.0786366 -0.1366241  0.0001069  )
        12           H   tau(  12) = ( -0.0804243 -0.1312713  0.0001627  )

     number of k points=     1
                       cart. coord. in units 2pi/alat
        k(    1) = (   0.0000000   0.0000000   0.0000000), wk =   2.0000000

                       cryst. coord.
        k(    1) = (   0.0000000   0.0000000   0.0000000), wk =   2.0000000

     Dense  grid:  1184463 G-vectors     FFT dimensions: ( 180, 180, 180)

     Smooth grid:   299581 G-vectors     FFT dimensions: ( 108, 108, 108)

     Largest allocated arrays     est. size (Mb)     dimensions
        Kohn-Sham Wavefunctions         4.28 Mb     (   18695,   15)
        NL pseudopotentials            17.12 Mb     (   18695,   60)
        Each V/rho on FFT grid         44.49 Mb     ( 2916000)
        Each G-vector array             4.52 Mb     (  592233)
        G-vector shells                 0.04 Mb     (    5700)
     Largest temporary arrays     est. size (Mb)     dimensions
        Auxiliary wavefunctions         8.56 Mb     (   18695,   60)
        Each subspace H/S matrix        0.03 Mb     (      60,   60)
        Each <psi_i|beta_j> matrix      0.01 Mb     (      60,   15)
        Arrays for rho mixing         355.96 Mb     ( 2916000,    8)

     Initial potential from superposition of free atoms
     Check: negative starting charge=   -0.002341

     starting charge   30.42250, renormalised to   30.00000

     negative rho (up, down):  2.308E-03 0.000E+00
     Starting wfc are   30 randomized atomic wfcs

     total cpu time spent up to now is        9.6 secs

     per-process dynamical memory:   608.3 Mb

     Self-consistent Calculation

     iteration #  1     ecut=    30.00 Ry     beta=0.40
     Davidson diagonalization with overlap
     ethr =  1.00E-02,  avg # of iterations =  3.0

     negative rho (up, down):  1.370E-03 0.000E+00

     total cpu time spent up to now is       18.4 secs

     total energy              =     -74.04859948 Ry
     Harris-Foulkes estimate   =     -77.00000956 Ry
     estimated scf accuracy    <       5.71001980 Ry
     solvation energy          =       0.00000000 Ry

     iteration #  2     ecut=    30.00 Ry     beta=0.40
     Davidson diagonalization with overlap
     ethr =  1.00E-02,  avg # of iterations =  4.0

     negative rho (up, down):  4.036E-03 0.000E+00

     total cpu time spent up to now is       27.5 secs

     total energy              =     -74.99478643 Ry
     Harris-Foulkes estimate   =     -76.27569812 Ry
     estimated scf accuracy    <       3.51017746 Ry
     solvation energy          =       0.00000000 Ry

     iteration #  3     ecut=    30.00 Ry     beta=0.40
     Davidson diagonalization with overlap
     ethr =  1.00E-02,  avg # of iterations =  3.0

     negative rho (up, down):  2.738E-03 0.000E+00

     total cpu time spent up to now is       36.1 secs

     total energy              =     -75.18322833 Ry
     Harris-Foulkes estimate   =     -75.39645050 Ry
     estimated scf accuracy    <       0.38871362 Ry
     solvation energy          =       0.00000000 Ry

     iteration #  4     ecut=    30.00 Ry     beta=0.40
     Davidson diagonalization with overlap
     ethr =  1.30E-03,  avg # of iterations =  3.0

     negative rho (up, down):  1.346E-03 0.000E+00

     add environment contribution to local potential
     polarization accuracy = 7.6E-13, # of iterations =  37

     total cpu time spent up to now is       78.3 secs

     total energy              =     -75.22946606 Ry
     Harris-Foulkes estimate   =     -75.26252688 Ry
     estimated scf accuracy    <       0.08995560 Ry
     solvation energy          =       0.00000000 Ry

     iteration #  5     ecut=    30.00 Ry     beta=0.40
     Davidson diagonalization with overlap
     ethr =  3.00E-04,  avg # of iterations =  4.0

     negative rho (up, down):  1.468E-03 0.000E+00

     add environment contribution to local potential
     polarization accuracy = 8.0E-13, # of iterations =  37

     total cpu time spent up to now is      120.9 secs

     total energy              =     -75.38934019 Ry
     Harris-Foulkes estimate   =     -69.09638103 Ry
     estimated scf accuracy    <       0.02626531 Ry
     solvation energy          =      -0.16029358 Ry

     iteration #  6     ecut=    30.00 Ry     beta=0.40
     Davidson diagonalization with overlap
     ethr =  8.76E-05,  avg # of iterations =  3.0

     negative rho (up, down):  1.370E-03 0.000E+00

     add environment contribution to local potential
     polarization accuracy = 7.8E-13, # of iterations =  39

     total cpu time spent up to now is      164.6 secs

     total energy              =     -75.38450689 Ry
     Harris-Foulkes estimate   =     -69.35590763 Ry
     estimated scf accuracy    <       0.01318918 Ry
     solvation energy          =      -0.17430908 Ry

     iteration #  7     ecut=    30.00 Ry     beta=0.40
     Davidson diagonalization with overlap
     ethr =  4.40E-05,  avg # of iterations =  3.0

     negative rho (up, down):  8.481E-04 0.000E+00

     add environment contribution to local potential
     polarization accuracy = 7.9E-13, # of iterations =  27

     total cpu time spent up to now is      197.1 secs

     total energy              =     -75.40672364 Ry
     Harris-Foulkes estimate   =     -69.48175540 Ry
     estimated scf accuracy    <       0.00165391 Ry
     solvation energy          =      -0.19145239 Ry

     iteration #  8     ecut=    30.00 Ry     beta=0.40
     Davidson diagonalization with overlap
     ethr =  5.51E-06,  avg # of iterations =  3.0

     negative rho (up, down):  6.340E-04 0.000E+00

     add environment contribution to local potential
     polarization accuracy = 9.6E-13, # of iterations =  32

     total cpu time spent up to now is      233.3 secs

     total energy              =     -75.41086512 Ry
     Harris-Foulkes estimate   =     -69.48088137 Ry
     estimated scf accuracy    <       0.00142461 Ry
     solvation energy          =      -0.18963166 Ry

     iteration #  9     ecut=    30.00 Ry     beta=0.40
     Davidson diagonalization with overlap
     ethr =  4.75E-06,  avg # of iterations =  3.0

     negative rho (up, down):  9.222E-04 0.000E+00

     add environment contribution to local potential
     polarization accuracy = 9.3E-13, # of iterations =  33

     total cpu time spent up to now is      271.3 secs

     total energy              =     -75.40591889 Ry
     Harris-Foulkes estimate   =     -69.46992258 Ry
     estimated scf accuracy    <       0.00250970 Ry
     solvation energy          =      -0.18680704 Ry

     iteration # 10     ecut=    30.00 Ry     beta=0.40
     Davidson diagonalization with overlap
     ethr =  4.75E-06,  avg # of iterations =  3.0

     negative rho (up, down):  1.966E-03 0.000E+00

     add environment contribution to local potential
     polarization accuracy = 7.4E-13, # of iterations =  38

     total cpu time spent up to now is      314.5 secs

     total energy              =     -75.39809988 Ry
     Harris-Foulkes estimate   =     -69.46748616 Ry
     estimated scf accuracy    <       0.00488691 Ry
     solvation energy          =      -0.19307631 Ry

     iteration # 11     ecut=    30.00 Ry     beta=0.40
     Davidson diagonalization with overlap
     ethr =  4.75E-06,  avg # of iterations =  2.0

     negative rho (up, down):  1.274E-03 0.000E+00

     add environment contribution to local potential
     polarization accuracy = 9.7E-13, # of iterations =  30

     total cpu time spent up to now is      349.4 secs

     total energy              =     -75.40604138 Ry
     Harris-Foulkes estimate   =     -69.44457889 Ry
     estimated scf accuracy    <       0.00285155 Ry
     solvation energy          =      -0.20348218 Ry

     iteration # 12     ecut=    30.00 Ry     beta=0.40
     Davidson diagonalization with overlap
     ethr =  4.75E-06,  avg # of iterations =  3.0

     negative rho (up, down):  1.042E-03 0.000E+00

     add environment contribution to local potential
     polarization accuracy = 9.3E-13, # of iterations =  33

     total cpu time spent up to now is      386.4 secs

     total energy              =     -75.40461279 Ry
     Harris-Foulkes estimate   =     -69.43252440 Ry
     estimated scf accuracy    <       0.00095067 Ry
     solvation energy          =      -0.20706195 Ry

     iteration # 13     ecut=    30.00 Ry     beta=0.40
     Davidson diagonalization with overlap
     ethr =  3.17E-06,  avg # of iterations =  2.0

     negative rho (up, down):  8.580E-04 0.000E+00

     add environment contribution to local potential
     polarization accuracy = 9.0E-13, # of iterations =  32

     total cpu time spent up to now is      422.9 secs

     total energy              =     -75.40567650 Ry
     Harris-Foulkes estimate   =     -69.41431783 Ry
     estimated scf accuracy    <       0.00012171 Ry
     solvation energy          =      -0.21169204 Ry

     iteration # 14     ecut=    30.00 Ry     beta=0.40
     Davidson diagonalization with overlap
     ethr =  4.06E-07,  avg # of iterations =  3.0

     negative rho (up, down):  7.117E-04 0.000E+00

     add environment contribution to local potential
     polarization accuracy = 9.2E-13, # of iterations =  27

     total cpu time spent up to now is      455.7 secs

     total energy              =     -75.40868272 Ry
     Harris-Foulkes estimate   =     -69.40021920 Ry
     estimated scf accuracy    <       0.00000845 Ry
     solvation energy          =      -0.21359059 Ry

     iteration # 15     ecut=    30.00 Ry     beta=0.40
     Davidson diagonalization with overlap
     ethr =  2.82E-08,  avg # of iterations =  4.0

     negative rho (up, down):  5.923E-04 0.000E+00

     add environment contribution to local potential
     polarization accuracy = 9.5E-13, # of iterations =  25

     total cpu time spent up to now is      487.0 secs

     total energy              =     -75.40759101 Ry
     Harris-Foulkes estimate   =     -69.40032703 Ry
     estimated scf accuracy    <       0.00004864 Ry
     solvation energy          =      -0.21329676 Ry

     iteration # 16     ecut=    30.00 Ry     beta=0.40
     Davidson diagonalization with overlap
     ethr =  2.82E-08,  avg # of iterations =  3.0

     negative rho (up, down):  5.834E-04 0.000E+00

     add environment contribution to local potential
     polarization accuracy = 7.5E-13, # of iterations =  24

     total cpu time spent up to now is      517.2 secs

     total energy              =     -75.40785339 Ry
     Harris-Foulkes estimate   =     -69.39606580 Ry
     estimated scf accuracy    <       0.00000401 Ry
     solvation energy          =      -0.21388314 Ry

     iteration # 17     ecut=    30.00 Ry     beta=0.40
     Davidson diagonalization with overlap
     ethr =  1.34E-08,  avg # of iterations =  3.0

     negative rho (up, down):  5.817E-04 0.000E+00

     add environment contribution to local potential
     polarization accuracy = 9.2E-13, # of iterations =  18

     total cpu time spent up to now is      542.4 secs

     total energy              =     -75.40802503 Ry
     Harris-Foulkes estimate   =     -69.39488704 Ry
     estimated scf accuracy    <       0.00000006 Ry
     solvation energy          =      -0.21409997 Ry

     iteration # 18     ecut=    30.00 Ry     beta=0.40
     Davidson diagonalization with overlap
     ethr =  1.93E-10,  avg # of iterations =  4.0

     negative rho (up, down):  5.789E-04 0.000E+00

     add environment contribution to local potential
     polarization accuracy = 9.0E-13, # of iterations =  15

     total cpu time spent up to now is      565.7 secs

     total energy              =     -75.40805500 Ry
     Harris-Foulkes estimate   =     -69.39477101 Ry
     estimated scf accuracy    <       0.00000002 Ry
     solvation energy          =      -0.21412758 Ry

     iteration # 19     ecut=    30.00 Ry     beta=0.40
     Davidson diagonalization with overlap
     ethr =  7.86E-11,  avg # of iterations =  3.0

     negative rho (up, down):  5.817E-04 0.000E+00

     total cpu time spent up to now is      573.5 secs

     End of self-consistent calculation

          k = 0.0000 0.0000 0.0000 ( 37387 PWs)   bands (ev):

   -26.5857 -23.8934 -19.7571 -19.6846 -16.3061 -15.2721 -12.7894 -12.3412
   -11.6791 -11.0720 -10.6078  -9.5249  -8.2414  -7.3062  -6.1965

     occupation numbers 
     1.0000   1.0000   1.0000   1.0000   1.0000   1.0000   1.0000   1.0000
     1.0000   1.0000   1.0000   1.0000   1.0000   1.0000   1.0000

     highest occupied level (ev):    -6.1965

!    total energy              =     -75.40805458 Ry
     Harris-Foulkes estimate   =     -69.39468937 Ry
     estimated scf accuracy    <          2.2E-09 Ry

     The total energy is the sum of the following terms:

     one-electron contribution =    -375.88336690 Ry
     hartree contribution      =     189.65352498 Ry
     xc contribution           =     -26.56383901 Ry
     ewald contribution        =     143.39899156 Ry
     solvation energy          =      -0.21412717 Ry

     convergence has been achieved in  19 iterations

     Forces acting on atoms (Ry/au):

     The dielectric solvent contribution to forces
     atom    1 type  3   force =     0.09327591   -0.00000012   -0.00001108
     atom    2 type  1   force =     0.18986473    0.00000025   -0.00003598
     atom    3 type  2   force =     0.12355121    0.02393908   -0.00002970
     atom    4 type  2   force =     0.17114298   -0.02921720   -0.00000006
     atom    5 type  2   force =     0.27953194    0.00000013    0.00003071
     atom    6 type  2   force =     0.17114310    0.02921750   -0.00000544
     atom    7 type  2   force =     0.12355120   -0.02393876   -0.00000203
     atom    8 type  3   force =     0.01769948    0.01595219   -0.00000952
     atom    9 type  3   force =     0.03216794   -0.01287664    0.00000122
     atom   10 type  3   force =     0.09224864   -0.00000014   -0.00000800
     atom   11 type  3   force =     0.03216800    0.01287667   -0.00000289
     atom   12 type  3   force =     0.01769944   -0.01595220    0.00000681
     The global environment contribution to forces
     atom    1 type  3   force =     0.09327591   -0.00000012   -0.00001108
     atom    2 type  1   force =     0.18986473    0.00000025   -0.00003598
     atom    3 type  2   force =     0.12355121    0.02393908   -0.00002970
     atom    4 type  2   force =     0.17114298   -0.02921720   -0.00000006
     atom    5 type  2   force =     0.27953194    0.00000013    0.00003071
     atom    6 type  2   force =     0.17114310    0.02921750   -0.00000544
     atom    7 type  2   force =     0.12355120   -0.02393876   -0.00000203
     atom    8 type  3   force =     0.01769948    0.01595219   -0.00000952
     atom    9 type  3   force =     0.03216794   -0.01287664    0.00000122
     atom   10 type  3   force =     0.09224864   -0.00000014   -0.00000800
     atom   11 type  3   force =     0.03216800    0.01287667   -0.00000289
     atom   12 type  3   force =     0.01769944   -0.01595220    0.00000681
 
     atom    1 type  3   force =   -55.71149711    0.00017658    1.11716971
     atom    2 type  1   force =    -0.03776820    0.00000056    0.00002860
     atom    3 type  2   force =    -0.00992726   -0.07558435   -0.00001199
     atom    4 type  2   force =     0.07376375    0.02867104   -0.00006855
     atom    5 type  2   force =    -0.34873630   -0.00000030   -0.00010194
     atom    6 type  2   force =     0.07376432   -0.02867058   -0.00001151
     atom    7 type  2   force =    -0.00992738    0.07558381   -0.00003638
     atom    8 type  3   force =     0.00934226    0.00073266    0.00000825
     atom    9 type  3   force =     0.00373597   -0.00572365    0.00001192
     atom   10 type  3   force =    55.94417174   -0.00017648   -1.11696776
     atom   11 type  3   force =     0.00373607    0.00572356   -0.00000357
     atom   12 type  3   force =     0.00934214   -0.00073284   -0.00001678
     The non-local contrib.  to forces
     atom    1 type  3   force =    -0.08740010   -0.00000063   -0.00448770
     atom    2 type  1   force =     1.96568386    0.00000054   -0.00054208
     atom    3 type  2   force =     0.03514332   -0.25222843    0.00004265
     atom    4 type  2   force =     0.06008906   -0.17799751   -0.00008178
     atom    5 type  2   force =     0.54419218    0.00000004    0.00036464
     atom    6 type  2   force =     0.06008932    0.17799762   -0.00016713
     atom    7 type  2   force =     0.03514318    0.25222813   -0.00014531
     atom    8 type  3   force =     0.09054207   -0.12653825    0.00002843
     atom    9 type  3   force =    -0.07160951   -0.13670324    0.00005055
     atom   10 type  3   force =    -0.41074529    0.00000069    0.00391016
     atom   11 type  3   force =    -0.07160954    0.13670324   -0.00004271
     atom   12 type  3   force =     0.09054201    0.12653822   -0.00010299
     The ionic contribution  to forces
     atom    1 type  3   force =   -52.75815263    0.00017906    1.13330367
     atom    2 type  1   force =   -11.44975081    0.00000198    0.00244705
     atom    3 type  2   force =    -3.43025301    7.32033480   -0.00118373
     atom    4 type  2   force =     3.43049542    6.59197365   -0.00207532
     atom    5 type  2   force =     4.95781432   -0.00000146   -0.00614305
     atom    6 type  2   force =     3.43049659   -6.59197391    0.00054579
     atom    7 type  2   force =    -3.43025067   -7.32033566    0.00360758
     atom    8 type  3   force =    -1.89627879    2.85909077   -0.00058495
     atom    9 type  3   force =     1.57817041    3.00266910   -0.00108222
     atom   10 type  3   force =    59.88581631   -0.00017899   -1.13172016
     atom   11 type  3   force =     1.57817071   -3.00266890    0.00078874
     atom   12 type  3   force =    -1.89627786   -2.85909043    0.00209660
     The local contribution  to forces
     atom    1 type  3   force =    -2.95916459   -0.00000167   -0.01163580
     atom    2 type  1   force =     9.25648369   -0.00000147   -0.00184134
     atom    3 type  2   force =     3.26172501   -7.16760742    0.00115799
     atom    4 type  2   force =    -3.58788139   -6.35608051    0.00208794
     atom    5 type  2   force =    -6.13021569    0.00000145    0.00564517
     atom    6 type  2   force =    -3.58788172    6.35608150   -0.00038539
     atom    7 type  2   force =     3.26172229    7.16760861   -0.00349738
     atom    8 type  3   force =     1.79743692   -2.74776726    0.00057360
     atom    9 type  3   force =    -1.53493614   -2.85881510    0.00104171
     atom   10 type  3   force =    -3.62309169    0.00000203    0.01084961
     atom   11 type  3   force =    -1.53493630    2.85881480   -0.00074741
     atom   12 type  3   force =     1.79743583    2.74776679   -0.00201790
     The core correction contribution to forces
     atom    1 type  3   force =     0.00000000    0.00000000    0.00000000
     atom    2 type  1   force =     0.00000000    0.00000000    0.00000000
     atom    3 type  2   force =     0.00000000    0.00000000    0.00000000
     atom    4 type  2   force =     0.00000000    0.00000000    0.00000000
     atom    5 type  2   force =     0.00000000    0.00000000    0.00000000
     atom    6 type  2   force =     0.00000000    0.00000000    0.00000000
     atom    7 type  2   force =     0.00000000    0.00000000    0.00000000
     atom    8 type  3   force =     0.00000000    0.00000000    0.00000000
     atom    9 type  3   force =     0.00000000    0.00000000    0.00000000
     atom   10 type  3   force =     0.00000000    0.00000000    0.00000000
     atom   11 type  3   force =     0.00000000    0.00000000    0.00000000
     atom   12 type  3   force =     0.00000000    0.00000000    0.00000000
     The Hubbard contrib.    to forces
     atom    1 type  3   force =     0.00000000    0.00000000    0.00000000
     atom    2 type  1   force =     0.00000000    0.00000000    0.00000000
     atom    3 type  2   force =     0.00000000    0.00000000    0.00000000
     atom    4 type  2   force =     0.00000000    0.00000000    0.00000000
     atom    5 type  2   force =     0.00000000    0.00000000    0.00000000
     atom    6 type  2   force =     0.00000000    0.00000000    0.00000000
     atom    7 type  2   force =     0.00000000    0.00000000    0.00000000
     atom    8 type  3   force =     0.00000000    0.00000000    0.00000000
     atom    9 type  3   force =     0.00000000    0.00000000    0.00000000
     atom   10 type  3   force =     0.00000000    0.00000000    0.00000000
     atom   11 type  3   force =     0.00000000    0.00000000    0.00000000
     atom   12 type  3   force =     0.00000000    0.00000000    0.00000000
     The SCF correction term to forces
     atom    1 type  3   force =     0.00000038   -0.00000005   -0.00000007
     atom    2 type  1   force =     0.00000641   -0.00000072    0.00000026
     atom    3 type  2   force =    -0.00003772   -0.00002236    0.00000011
     atom    4 type  2   force =    -0.00002625   -0.00000737   -0.00000002
     atom    5 type  2   force =    -0.00000297   -0.00000045   -0.00000012
     atom    6 type  2   force =    -0.00002690    0.00000672   -0.00000004
     atom    7 type  2   force =    -0.00003731    0.00002150    0.00000007
     atom    8 type  3   force =    -0.00000135   -0.00000478   -0.00000001
     atom    9 type  3   force =    -0.00000065    0.00000224   -0.00000004
     atom   10 type  3   force =    -0.00000014   -0.00000004   -0.00000006
     atom   11 type  3   force =    -0.00000073   -0.00000224    0.00000000
     atom   12 type  3   force =    -0.00000120    0.00000480    0.00000000

     Total force =    78.969389     Total SCF correction =     0.000073

     Writing output data file piridine_water_none.save
 
     init_run     :      6.66s CPU      7.18s WALL (       1 calls)
     electrons    :    520.56s CPU    564.23s WALL (       1 calls)
     forces       :      6.22s CPU      6.37s WALL (       1 calls)

     Called by init_run:
     wfcinit      :      0.68s CPU      0.70s WALL (       1 calls)
     potinit      :      2.44s CPU      2.77s WALL (       1 calls)

     Called by electrons:
     c_bands      :     19.96s CPU     20.21s WALL (      19 calls)
     sum_band     :     43.31s CPU     45.09s WALL (      19 calls)
     v_of_rho     :     32.50s CPU     36.28s WALL (      20 calls)
     v_h          :     10.68s CPU     12.35s WALL (      69 calls)
     v_xc         :     29.35s CPU     32.71s WALL (      20 calls)
     newd         :     42.50s CPU     43.40s WALL (      20 calls)
     mix_rho      :      6.96s CPU      7.42s WALL (      19 calls)

     Called by c_bands:
     init_us_2    :      0.40s CPU      0.39s WALL (      39 calls)
     regterg      :     19.32s CPU     19.55s WALL (      19 calls)

     Called by sum_band:
     sum_band:bec :      0.00s CPU      0.00s WALL (      19 calls)
     addusdens    :     30.79s CPU     31.64s WALL (      19 calls)

     Called by *egterg:
     h_psi        :     18.16s CPU     18.37s WALL (      79 calls)
     s_psi        :      0.39s CPU      0.38s WALL (      79 calls)
     g_psi        :      0.15s CPU      0.14s WALL (      59 calls)
     rdiaghg      :      0.02s CPU      0.03s WALL (      78 calls)
     regterg:over :      0.34s CPU      0.35s WALL (      59 calls)
     regterg:upda :      0.29s CPU      0.31s WALL (      59 calls)
     regterg:last :      0.08s CPU      0.09s WALL (      19 calls)

     Called by h_psi:
     h_psi:vloc   :     17.28s CPU     17.50s WALL (      79 calls)
     h_psi:vnl    :      0.80s CPU      0.79s WALL (      79 calls)
     add_vuspsi   :      0.36s CPU      0.39s WALL (      79 calls)

     General routines
     calbec       :      0.55s CPU      0.54s WALL (     102 calls)
     fft          :    276.78s CPU    302.75s WALL (    2265 calls)
     ffts         :      1.06s CPU      1.08s WALL (      39 calls)
     fftw         :     16.00s CPU     16.19s WALL (    1016 calls)
     interpolate  :      6.46s CPU      7.43s WALL (      39 calls)
     davcio       :      0.00s CPU      0.00s WALL (       1 calls)
 
     Parallel routines
     fft_scatter  :    118.15s CPU    129.02s WALL (    3320 calls)
 
     Environ routines
     calc_esolv   :      5.72s CPU      6.76s WALL (      19 calls)
     calc_vsolv   :    357.52s CPU    391.38s WALL (      15 calls)
     dielectric   :     12.74s CPU     13.39s WALL (      15 calls)
     get_rhopol   :    339.92s CPU    372.19s WALL (      15 calls)
     calc_veps    :     10.09s CPU     11.41s WALL (      15 calls)
 
     PWSCF        :  8m56.04s CPU     9m40.48s WALL

 
   This run was terminated on:  15: 8:53  30May2014            

=------------------------------------------------------------------------------=
   JOB DONE.
=------------------------------------------------------------------------------=
