
     Program PWSCF v.6.1 (svn rev. 13369) starts on 29Jan2018 at 15:12:45 

     This program is part of the open-source Quantum ESPRESSO suite
     for quantum simulation of materials; please cite
         "P. Giannozzi et al., J. Phys.:Condens. Matter 21 395502 (2009);
          URL http://www.quantum-espresso.org", 
     in publications or presentations arising from this work. More details at
     http://www.quantum-espresso.org/quote

     Parallel version (MPI), running on     1 processors
     Waiting for input...
     Reading input from standard input
Warning: card  &IONS ignored
Warning: card    ION_DYNAMICS    = 'BFGS' ignored
Warning: card  / ignored

     Current dimensions of program PWSCF are:
     Max number of different atomic species (ntypx) = 10
     Max number of k-points (npk) =  40000
     Max angular momentum in pseudopotentials (lmaxx) =  3
Warning: card  &BOUNDARY ignored
Warning: card  / ignored
Warning: card  &ELECTROSTATIC ignored
Warning: card    TOL = 1.D-12 ignored
Warning: card  / ignored
               file N.pbe-rrkjus.UPF: wavefunction(s)  2S renormalized
               file C.pbe-rrkjus.UPF: wavefunction(s)  2S 2P renormalized
               file H.pbe-rrkjus.UPF: wavefunction(s)  1S renormalized

     gamma-point specific algorithms are used

     Subspace diagonalization in iterative solution of the eigenvalue problem:
     a serial algorithm will be used

 
     G-vector sticks info
     --------------------
     sticks:   dense  smooth     PW     G-vecs:    dense   smooth      PW
     Sum       21465    8585   2145              2368925   599161   74773
 


     bravais-lattice index     =            1
     lattice parameter (alat)  =      30.0000  a.u.
     unit-cell volume          =   27000.0000 (a.u.)^3
     number of atoms/cell      =           12
     number of atomic types    =            3
     number of electrons       =        30.00
     number of Kohn-Sham states=           15
     kinetic-energy cutoff     =      30.0000  Ry
     charge density cutoff     =     300.0000  Ry
     convergence threshold     =      5.0E-09
     mixing beta               =       0.4000
     number of iterations used =            8  plain     mixing
     Exchange-correlation      =  SLA  PW   PBE  PBE ( 1  4  3  4 0 0)
 

     Environ Module
     ==============

     Plese cite
         O. Andreussi, I. Dabo and N. Marzari, J. Chem. Phys. 136, 064102 (2012)         
     in publications or presentations arising from this work.

     compensation onset threshold      =               0.1000E+00 


     Assuming isolated system, Martyna-Tuckerman method


     celldm(1)=  30.000000  celldm(2)=   0.000000  celldm(3)=   0.000000
     celldm(4)=   0.000000  celldm(5)=   0.000000  celldm(6)=   0.000000

     crystal axes: (cart. coord. in units of alat)
               a(1) = (   1.000000   0.000000   0.000000 )  
               a(2) = (   0.000000   1.000000   0.000000 )  
               a(3) = (   0.000000   0.000000   1.000000 )  

     reciprocal axes: (cart. coord. in units 2 pi/alat)
               b(1) = (  1.000000  0.000000  0.000000 )  
               b(2) = (  0.000000  1.000000  0.000000 )  
               b(3) = (  0.000000  0.000000  1.000000 )  


     PseudoPot. # 1 for N  read from file:
     /home/fnattino/Programs/qe-6.1/pseudo/N.pbe-rrkjus.UPF
     MD5 check sum: 0c3fbe5807a93f9ba59d5a7019aa238b
     Pseudo is Ultrasoft, Zval =  5.0
     Generated by new atomic code, or converted to UPF format
     Using radial grid of 1257 points,  4 beta functions with: 
                l(1) =   0
                l(2) =   0
                l(3) =   1
                l(4) =   1
     Q(r) pseudized with 0 coefficients 


     PseudoPot. # 2 for C  read from file:
     /home/fnattino/Programs/qe-6.1/pseudo/C.pbe-rrkjus.UPF
     MD5 check sum: 00fb224312de0c5b6853bd333518df6f
     Pseudo is Ultrasoft, Zval =  4.0
     Generated by new atomic code, or converted to UPF format
     Using radial grid of  627 points,  4 beta functions with: 
                l(1) =   0
                l(2) =   0
                l(3) =   1
                l(4) =   1
     Q(r) pseudized with 0 coefficients 


     PseudoPot. # 3 for H  read from file:
     /home/fnattino/Programs/qe-6.1/pseudo/H.pbe-rrkjus.UPF
     MD5 check sum: 7cc9d459525c9a0585f487a71c3c9563
     Pseudo is Ultrasoft, Zval =  1.0
     Generated by new atomic code, or converted to UPF format
     Using radial grid of 1061 points,  2 beta functions with: 
                l(1) =   0
                l(2) =   0
     Q(r) pseudized with 0 coefficients 


     atomic species   valence    mass     pseudopotential
        N              5.00    14.00000     N ( 1.00)
        C              4.00    12.00000     C ( 1.00)
        H              1.00     1.00000     H ( 1.00)

     No symmetry found


                                    s                        frac. trans.

      isym =  1     identity                                     

 cryst.   s( 1) = (     1          0          0      )
                  (     0          1          0      )
                  (     0          0          1      )

 cart.    s( 1) = (  1.0000000  0.0000000  0.0000000 )
                  (  0.0000000  1.0000000  0.0000000 )
                  (  0.0000000  0.0000000  1.0000000 )


     point group C_1 (1)    
     there are  1 classes
     the character table:

       E    
A      1.00

     the symmetry operations in each class and the name of the first element:

     E        1
          identity                                               

   Cartesian axes

     site n.     atom                  positions (alat units)
         1           H   tau(   1) = (  -0.1523532   0.0000000   0.0001258  )
         2           N   tau(   2) = (  -0.0815136   0.0000000   0.0001009  )
         3           C   tau(   3) = (  -0.0411048   0.0749119   0.0000692  )
         4           C   tau(   4) = (   0.0459374   0.0761731   0.0000488  )
         5           C   tau(   5) = (   0.0897978   0.0000000   0.0000440  )
         6           C   tau(   6) = (   0.0459374  -0.0761731   0.0000884  )
         7           C   tau(   7) = (  -0.0411048  -0.0749119   0.0001182  )
         8           H   tau(   8) = (  -0.0804244   0.1312714   0.0000570  )
         9           H   tau(   9) = (   0.0786365   0.1366241   0.0000268  )
        10           H   tau(  10) = (   0.1586195  -0.0000000   0.0000007  )
        11           H   tau(  11) = (   0.0786366  -0.1366241   0.0001069  )
        12           H   tau(  12) = (  -0.0804243  -0.1312713   0.0001627  )

   Crystallographic axes

     site n.     atom                  positions (cryst. coord.)
         1           H   tau(   1) = ( -0.1523532  0.0000000  0.0001258  )
         2           N   tau(   2) = ( -0.0815136  0.0000000  0.0001009  )
         3           C   tau(   3) = ( -0.0411048  0.0749119  0.0000692  )
         4           C   tau(   4) = (  0.0459374  0.0761731  0.0000488  )
         5           C   tau(   5) = (  0.0897978  0.0000000  0.0000440  )
         6           C   tau(   6) = (  0.0459374 -0.0761731  0.0000884  )
         7           C   tau(   7) = ( -0.0411048 -0.0749119  0.0001182  )
         8           H   tau(   8) = ( -0.0804244  0.1312714  0.0000570  )
         9           H   tau(   9) = (  0.0786365  0.1366241  0.0000268  )
        10           H   tau(  10) = (  0.1586195 -0.0000000  0.0000007  )
        11           H   tau(  11) = (  0.0786366 -0.1366241  0.0001069  )
        12           H   tau(  12) = ( -0.0804243 -0.1312713  0.0001627  )

     number of k points=     1
                       cart. coord. in units 2pi/alat
        k(    1) = (   0.0000000   0.0000000   0.0000000), wk =   2.0000000

                       cryst. coord.
        k(    1) = (   0.0000000   0.0000000   0.0000000), wk =   2.0000000

     Dense  grid:  1184463 G-vectors     FFT dimensions: ( 180, 180, 180)

     Smooth grid:   299581 G-vectors     FFT dimensions: ( 108, 108, 108)

     Estimated max dynamical RAM per process >    1015.80MB

     Initial potential from superposition of free atoms
     Check: negative starting charge=   -0.002323

     starting charge   30.42250, renormalised to   30.00000

     negative rho (up, down):  2.291E-03 0.000E+00
     Starting wfc are   30 randomized atomic wfcs

     total cpu time spent up to now is        6.5 secs

     per-process dynamical memory:   801.2 Mb

     Self-consistent Calculation

     iteration #  1     ecut=    30.00 Ry     beta=0.40
     Davidson diagonalization with overlap
     ethr =  1.00E-02,  avg # of iterations =  3.0

     negative rho (up, down):  1.215E-03 0.000E+00

     total cpu time spent up to now is       12.2 secs

     total energy              =     -83.44283373 Ry
     Harris-Foulkes estimate   =     -84.74821475 Ry
     estimated scf accuracy    <       2.69148584 Ry
     correction to one-el term =       0.00000000 Ry

     iteration #  2     ecut=    30.00 Ry     beta=0.40
     Davidson diagonalization with overlap
     ethr =  8.97E-03,  avg # of iterations =  1.0

     negative rho (up, down):  2.253E-03 0.000E+00

     total cpu time spent up to now is       17.5 secs

     total energy              =     -83.24107383 Ry
     Harris-Foulkes estimate   =     -83.61054597 Ry
     estimated scf accuracy    <       0.56897343 Ry
     correction to one-el term =       0.00000000 Ry

     iteration #  3     ecut=    30.00 Ry     beta=0.40
     Davidson diagonalization with overlap
     ethr =  1.90E-03,  avg # of iterations =  3.0

     negative rho (up, down):  8.164E-04 0.000E+00

     total cpu time spent up to now is       23.0 secs

     total energy              =     -83.33305656 Ry
     Harris-Foulkes estimate   =     -83.40808123 Ry
     estimated scf accuracy    <       0.13417748 Ry
     correction to one-el term =       0.00000000 Ry

     iteration #  4     ecut=    30.00 Ry     beta=0.40
     Davidson diagonalization with overlap
     ethr =  4.47E-04,  avg # of iterations =  3.0

     negative rho (up, down):  1.051E-03 0.000E+00

     add environment contribution to local potential

     total cpu time spent up to now is       28.5 secs

     total energy              =     -83.36272278 Ry
     Harris-Foulkes estimate   =     -83.38848850 Ry
     estimated scf accuracy    <       0.05545351 Ry
     correction to one-el term =       0.00000000 Ry

     iteration #  5     ecut=    30.00 Ry     beta=0.40
     Davidson diagonalization with overlap
     ethr =  1.85E-04,  avg # of iterations =  2.0

     negative rho (up, down):  6.732E-04 0.000E+00

     add environment contribution to local potential

     total cpu time spent up to now is       33.7 secs

     total energy              =     -83.36246993 Ry
     Harris-Foulkes estimate   =     -83.36807157 Ry
     estimated scf accuracy    <       0.01017453 Ry
     correction to one-el term =       0.00000000 Ry

     iteration #  6     ecut=    30.00 Ry     beta=0.40
     Davidson diagonalization with overlap
     ethr =  3.39E-05,  avg # of iterations =  4.0

     negative rho (up, down):  5.426E-04 0.000E+00

     add environment contribution to local potential

     total cpu time spent up to now is       39.2 secs

     total energy              =     -83.36581684 Ry
     Harris-Foulkes estimate   =     -83.36585109 Ry
     estimated scf accuracy    <       0.00058564 Ry
     correction to one-el term =       0.00000000 Ry

     iteration #  7     ecut=    30.00 Ry     beta=0.40
     Davidson diagonalization with overlap
     ethr =  1.95E-06,  avg # of iterations =  3.0

     negative rho (up, down):  5.060E-04 0.000E+00

     add environment contribution to local potential

     total cpu time spent up to now is       44.5 secs

     total energy              =     -83.36588291 Ry
     Harris-Foulkes estimate   =     -83.36592267 Ry
     estimated scf accuracy    <       0.00015625 Ry
     correction to one-el term =       0.00000000 Ry

     iteration #  8     ecut=    30.00 Ry     beta=0.40
     Davidson diagonalization with overlap
     ethr =  5.21E-07,  avg # of iterations =  4.0

     negative rho (up, down):  5.173E-04 0.000E+00

     add environment contribution to local potential

     total cpu time spent up to now is       50.0 secs

     total energy              =     -83.36594170 Ry
     Harris-Foulkes estimate   =     -83.36593658 Ry
     estimated scf accuracy    <       0.00002645 Ry
     correction to one-el term =       0.00000000 Ry

     iteration #  9     ecut=    30.00 Ry     beta=0.40
     Davidson diagonalization with overlap
     ethr =  8.82E-08,  avg # of iterations =  3.0

     negative rho (up, down):  5.883E-04 0.000E+00

     add environment contribution to local potential

     total cpu time spent up to now is       55.6 secs

     total energy              =     -83.36593893 Ry
     Harris-Foulkes estimate   =     -83.36594698 Ry
     estimated scf accuracy    <       0.00001808 Ry
     correction to one-el term =       0.00000000 Ry

     iteration # 10     ecut=    30.00 Ry     beta=0.40
     Davidson diagonalization with overlap
     ethr =  6.03E-08,  avg # of iterations =  3.0

     negative rho (up, down):  6.104E-04 0.000E+00

     add environment contribution to local potential

     total cpu time spent up to now is       61.1 secs

     total energy              =     -83.36594279 Ry
     Harris-Foulkes estimate   =     -83.36594306 Ry
     estimated scf accuracy    <       0.00000059 Ry
     correction to one-el term =       0.00000000 Ry

     iteration # 11     ecut=    30.00 Ry     beta=0.40
     Davidson diagonalization with overlap
     ethr =  1.98E-09,  avg # of iterations =  5.0

     negative rho (up, down):  6.083E-04 0.000E+00

     add environment contribution to local potential

     total cpu time spent up to now is       66.8 secs

     total energy              =     -83.36594305 Ry
     Harris-Foulkes estimate   =     -83.36594315 Ry
     estimated scf accuracy    <       0.00000025 Ry
     correction to one-el term =       0.00000000 Ry

     iteration # 12     ecut=    30.00 Ry     beta=0.40
     Davidson diagonalization with overlap
     ethr =  8.35E-10,  avg # of iterations =  3.0

     negative rho (up, down):  6.103E-04 0.000E+00

     add environment contribution to local potential

     total cpu time spent up to now is       72.1 secs

     total energy              =     -83.36594309 Ry
     Harris-Foulkes estimate   =     -83.36594309 Ry
     estimated scf accuracy    <       0.00000001 Ry
     correction to one-el term =       0.00000000 Ry

     iteration # 13     ecut=    30.00 Ry     beta=0.40
     Davidson diagonalization with overlap
     ethr =  4.09E-11,  avg # of iterations =  4.0

     negative rho (up, down):  6.117E-04 0.000E+00

     add environment contribution to local potential

     total cpu time spent up to now is       77.7 secs

     total energy              =     -83.36594309 Ry
     Harris-Foulkes estimate   =     -83.36594309 Ry
     estimated scf accuracy    <          9.3E-09 Ry
     correction to one-el term =       0.00000000 Ry

     iteration # 14     ecut=    30.00 Ry     beta=0.40
     Davidson diagonalization with overlap
     ethr =  3.12E-11,  avg # of iterations =  3.0

     negative rho (up, down):  6.116E-04 0.000E+00

     total cpu time spent up to now is       82.8 secs

     End of self-consistent calculation

          k = 0.0000 0.0000 0.0000 ( 37387 PWs)   bands (ev):

   -30.5808 -25.8122 -25.0402 -21.6908 -21.5508 -19.7491 -17.8351 -17.3549
   -16.6907 -16.3220 -16.2976 -14.4469 -14.3018 -13.1171 -12.4085

     occupation numbers 
     1.0000   1.0000   1.0000   1.0000   1.0000   1.0000   1.0000   1.0000
     1.0000   1.0000   1.0000   1.0000   1.0000   1.0000   1.0000

     highest occupied level (ev):   -12.4085

!    total energy              =     -83.36594309 Ry
     Harris-Foulkes estimate   =     -83.36594309 Ry
     estimated scf accuracy    <          9.5E-10 Ry

     The total energy is the sum of the following terms:

     one-electron contribution =    -551.55596361 Ry
     hartree contribution      =     271.93628492 Ry
     xc contribution           =     -26.14608742 Ry
     ewald contribution        =     222.39982302 Ry
     correction to one-el term =       0.00000000 Ry

     convergence has been achieved in  14 iterations
     The global environment contribution to forces
     atom    1 type  3   force =     0.00000000    0.00000000    0.00000000
     atom    2 type  1   force =     0.00000000    0.00000000    0.00000000
     atom    3 type  2   force =     0.00000000    0.00000000    0.00000000
     atom    4 type  2   force =     0.00000000    0.00000000    0.00000000
     atom    5 type  2   force =     0.00000000    0.00000000    0.00000000
     atom    6 type  2   force =     0.00000000    0.00000000    0.00000000
     atom    7 type  2   force =     0.00000000    0.00000000    0.00000000
     atom    8 type  3   force =     0.00000000    0.00000000    0.00000000
     atom    9 type  3   force =     0.00000000    0.00000000    0.00000000
     atom   10 type  3   force =     0.00000000    0.00000000    0.00000000
     atom   11 type  3   force =     0.00000000    0.00000000    0.00000000
     atom   12 type  3   force =     0.00000000    0.00000000    0.00000000
 

     Forces acting on atoms (cartesian axes, Ry/au):

     atom    1 type  3   force =     0.12177613   -0.00000004   -0.00005205
     atom    2 type  1   force =    -0.11579257    0.00000044    0.00006784
     atom    3 type  2   force =    -0.00692198    0.00272216    0.00000529
     atom    4 type  2   force =     0.00118156    0.00364480   -0.00003864
     atom    5 type  2   force =     0.00626822   -0.00000031   -0.00000540
     atom    6 type  2   force =     0.00118173   -0.00364442    0.00000583
     atom    7 type  2   force =    -0.00692190   -0.00272277    0.00002663
     atom    8 type  3   force =     0.00323576   -0.00343710    0.00000944
     atom    9 type  3   force =    -0.00164876   -0.00402645   -0.00000826
     atom   10 type  3   force =    -0.00394516   -0.00000001    0.00002829
     atom   11 type  3   force =    -0.00164885    0.00402655   -0.00002081
     atom   12 type  3   force =     0.00323581    0.00343716   -0.00001815
     The Martyna-Tuckerman correction term to forces
     atom    1 type  3   force =    -0.00134613   -0.00000000    0.00000021
     atom    2 type  1   force =    -0.00288816   -0.00000000    0.00000031
     atom    3 type  2   force =    -0.00064556    0.00294483   -0.00000058
     atom    4 type  2   force =     0.00281066    0.00293294   -0.00000104
     atom    5 type  2   force =     0.00478405   -0.00000000   -0.00000120
     atom    6 type  2   force =     0.00281066   -0.00293295   -0.00000003
     atom    7 type  2   force =    -0.00064556   -0.00294483    0.00000076
     atom    8 type  3   force =    -0.00052256    0.00131652   -0.00000022
     atom    9 type  3   force =     0.00098471    0.00133021   -0.00000035
     atom   10 type  3   force =     0.00202689   -0.00000000   -0.00000051
     atom   11 type  3   force =     0.00098471   -0.00133021    0.00000011
     atom   12 type  3   force =    -0.00052256   -0.00131652    0.00000046
     The non-local contrib.  to forces
     atom    1 type  3   force =     0.14167455   -0.00000002   -0.00005031
     atom    2 type  1   force =    -0.01295737    0.00000034    0.00020399
     atom    3 type  2   force =    -0.10266213   -0.31299150    0.00008284
     atom    4 type  2   force =    -0.11802309   -0.10267992    0.00001582
     atom    5 type  2   force =    -0.12362674   -0.00000013    0.00006125
     atom    6 type  2   force =    -0.11802307    0.10268014    0.00001917
     atom    7 type  2   force =    -0.10266220    0.31299125   -0.00010357
     atom    8 type  3   force =     0.08645479   -0.12987218    0.00003046
     atom    9 type  3   force =    -0.07361499   -0.13464920    0.00004756
     atom   10 type  3   force =    -0.15370007    0.00000003    0.00010090
     atom   11 type  3   force =    -0.07361501    0.13464918   -0.00004353
     atom   12 type  3   force =     0.08645472    0.12987214   -0.00010266
     The ionic contribution  to forces
     atom    1 type  3   force =    -3.67662235    0.00000030    0.00120661
     atom    2 type  1   force =    -9.04849803    0.00000171    0.00169003
     atom    3 type  2   force =    -2.83977690    7.52144298   -0.00133586
     atom    4 type  2   force =     4.02437577    6.36088992   -0.00184150
     atom    5 type  2   force =     7.36794953   -0.00000117   -0.00322235
     atom    6 type  2   force =     4.02437703   -6.36089004    0.00065933
     atom    7 type  2   force =    -2.83977442   -7.52144383    0.00358714
     atom    8 type  3   force =    -1.82448732    2.93050811   -0.00062241
     atom    9 type  3   force =     1.64556719    2.93750987   -0.00103497
     atom   10 type  3   force =     3.34580838   -0.00000047   -0.00200043
     atom   11 type  3   force =     1.64556750   -2.93750962    0.00079776
     atom   12 type  3   force =    -1.82448637   -2.93050776    0.00211666
     The local contribution  to forces
     atom    1 type  3   force =     3.65808939   -0.00000032   -0.00120701
     atom    2 type  1   force =     8.94856863   -0.00000157   -0.00182500
     atom    3 type  2   force =     2.93619789   -7.20867418    0.00126039
     atom    4 type  2   force =    -3.90792851   -6.25751117    0.00178955
     atom    5 type  2   force =    -7.24280755    0.00000066    0.00315838
     atom    6 type  2   force =    -3.90792952    6.25751138   -0.00067113
     atom    7 type  2   force =     2.93619593    7.20867465   -0.00345616
     atom    8 type  3   force =     1.74181076   -2.80538749    0.00060313
     atom    9 type  3   force =    -1.57456382   -2.80821926    0.00098096
     atom   10 type  3   force =    -3.19806285    0.00000043    0.00192982
     atom   11 type  3   force =    -1.57456420    2.80821917   -0.00077370
     atom   12 type  3   force =     1.74180993    2.80538725   -0.00203107
     The core correction contribution to forces
     atom    1 type  3   force =     0.00000000    0.00000000    0.00000000
     atom    2 type  1   force =     0.00000000    0.00000000    0.00000000
     atom    3 type  2   force =     0.00000000    0.00000000    0.00000000
     atom    4 type  2   force =     0.00000000    0.00000000    0.00000000
     atom    5 type  2   force =     0.00000000    0.00000000    0.00000000
     atom    6 type  2   force =     0.00000000    0.00000000    0.00000000
     atom    7 type  2   force =     0.00000000    0.00000000    0.00000000
     atom    8 type  3   force =     0.00000000    0.00000000    0.00000000
     atom    9 type  3   force =     0.00000000    0.00000000    0.00000000
     atom   10 type  3   force =     0.00000000    0.00000000    0.00000000
     atom   11 type  3   force =     0.00000000    0.00000000    0.00000000
     atom   12 type  3   force =     0.00000000    0.00000000    0.00000000
     The Hubbard contrib.    to forces
     atom    1 type  3   force =     0.00000000    0.00000000    0.00000000
     atom    2 type  1   force =     0.00000000    0.00000000    0.00000000
     atom    3 type  2   force =     0.00000000    0.00000000    0.00000000
     atom    4 type  2   force =     0.00000000    0.00000000    0.00000000
     atom    5 type  2   force =     0.00000000    0.00000000    0.00000000
     atom    6 type  2   force =     0.00000000    0.00000000    0.00000000
     atom    7 type  2   force =     0.00000000    0.00000000    0.00000000
     atom    8 type  3   force =     0.00000000    0.00000000    0.00000000
     atom    9 type  3   force =     0.00000000    0.00000000    0.00000000
     atom   10 type  3   force =     0.00000000    0.00000000    0.00000000
     atom   11 type  3   force =     0.00000000    0.00000000    0.00000000
     atom   12 type  3   force =     0.00000000    0.00000000    0.00000000
     The SCF correction term to forces
     atom    1 type  3   force =     0.00000094    0.00000001   -0.00000004
     atom    2 type  1   force =     0.00000263   -0.00000004    0.00000003
     atom    3 type  2   force =    -0.00001502    0.00000004    0.00000002
     atom    4 type  2   force =    -0.00003300    0.00001303    0.00000004
     atom    5 type  2   force =    -0.00001080    0.00000035    0.00000002
     atom    6 type  2   force =    -0.00003310   -0.00001295   -0.00000000
     atom    7 type  2   force =    -0.00001538    0.00000000   -0.00000004
     atom    8 type  3   force =     0.00000036   -0.00000205   -0.00000001
     atom    9 type  3   force =    -0.00000159    0.00000194    0.00000004
     atom   10 type  3   force =     0.00000276    0.00000001    0.00000003
     atom   11 type  3   force =    -0.00000158   -0.00000196    0.00000005
     atom   12 type  3   force =     0.00000036    0.00000206   -0.00000004

     Total force =     0.168863     Total SCF correction =     0.000056

     Writing output data file pyridine_vacuum_martyna-tuckerman.save
 
     init_run     :      5.94s CPU      6.35s WALL (       1 calls)
     electrons    :     70.70s CPU     76.54s WALL (       1 calls)
     forces       :      2.66s CPU      2.87s WALL (       1 calls)

     Called by init_run:
     wfcinit      :      0.52s CPU      0.53s WALL (       1 calls)
     wfcinit:atom :      0.01s CPU      0.01s WALL (       1 calls)
     wfcinit:wfcr :      0.47s CPU      0.47s WALL (       1 calls)
     potinit      :      2.21s CPU      2.41s WALL (       1 calls)

     Called by electrons:
     c_bands      :     12.20s CPU     12.29s WALL (      14 calls)
     sum_band     :     21.90s CPU     24.26s WALL (      14 calls)
     v_of_rho     :     22.38s CPU     23.83s WALL (      15 calls)
     v_h          :      1.88s CPU      2.04s WALL (      15 calls)
     v_xc         :     20.50s CPU     21.78s WALL (      15 calls)
     newd         :     10.76s CPU     12.69s WALL (      15 calls)
     mix_rho      :      3.37s CPU      3.51s WALL (      14 calls)

     Called by c_bands:
     init_us_2    :      0.40s CPU      0.41s WALL (      29 calls)
     regterg      :     11.32s CPU     11.40s WALL (      14 calls)

     Called by sum_band:
     sum_band:bec :      0.00s CPU      0.00s WALL (      14 calls)
     addusdens    :     15.14s CPU     17.20s WALL (      14 calls)

     Called by *egterg:
     h_psi        :     10.30s CPU     10.31s WALL (      59 calls)
     s_psi        :      0.41s CPU      0.42s WALL (      59 calls)
     g_psi        :      0.10s CPU      0.09s WALL (      44 calls)
     rdiaghg      :      0.02s CPU      0.02s WALL (      58 calls)
     regterg:over :      0.29s CPU      0.30s WALL (      44 calls)
     regterg:upda :      0.27s CPU      0.27s WALL (      44 calls)
     regterg:last :      0.10s CPU      0.10s WALL (      14 calls)

     Called by h_psi:
     h_psi:pot    :     10.23s CPU     10.23s WALL (      59 calls)
     h_psi:calbec :      0.32s CPU      0.31s WALL (      59 calls)
     vloc_psi     :      9.50s CPU      9.50s WALL (      59 calls)
     add_vuspsi   :      0.41s CPU      0.42s WALL (      59 calls)

     General routines
     calbec       :      0.44s CPU      0.43s WALL (      77 calls)
     fft          :     19.05s CPU     20.19s WALL (     239 calls)
     ffts         :      0.43s CPU      0.43s WALL (      29 calls)
     fftw         :      7.65s CPU      7.63s WALL (     792 calls)
     interpolate  :      3.25s CPU      3.59s WALL (      29 calls)
     davcio       :      0.00s CPU      0.00s WALL (       1 calls)
 
     Parallel routines
     fft_scatter  :      5.58s CPU      6.04s WALL (    1060 calls)
 
     Environ routines
 
     PWSCF        :  1m19.59s CPU     1m26.10s WALL

 
   This run was terminated on:  15:14:11  29Jan2018            

=------------------------------------------------------------------------------=
   JOB DONE.
=------------------------------------------------------------------------------=
