
     Program PWSCF v.6.7MaX starts on 25Sep2021 at 15: 5:53 

     This program is part of the open-source Quantum ESPRESSO suite
     for quantum simulation of materials; please cite
         "P. Giannozzi et al., J. Phys.:Condens. Matter 21 395502 (2009);
         "P. Giannozzi et al., J. Phys.:Condens. Matter 29 465901 (2017);
          URL http://www.quantum-espresso.org", 
     in publications or presentations arising from this work. More details at
     http://www.quantum-espresso.org/quote

     Parallel version (MPI), running on     1 processors

     MPI processes distributed on     1 nodes
     Waiting for input...
     Reading input from standard input

     Current dimensions of program PWSCF are:
     Max number of different atomic species (ntypx) = 10
     Max number of k-points (npk) =  40000
     Max angular momentum in pseudopotentials (lmaxx) =  3

     Reading input from environ.in

     ================================================================================

     Reading ENVIRON namelist

     Skipping BOUNDARY namelist

     Checking boundary derivatives
     derivatives               = chain          ! SCCS default

     Reading ELECTROSTATIC namelist

     Setting up electrostatic problem
     problem                   = poisson        
     solver                    = direct         

     Checking PBC correction
     pbc_correction            = none           ! default

     ================================================================================
 
     file N.pbe-rrkjus.UPF: wavefunction(s)  2S renormalized
     file C.pbe-rrkjus.UPF: wavefunction(s)  2S 2P renormalized
     file H.pbe-rrkjus.UPF: wavefunction(s)  1S renormalized

     gamma-point specific algorithms are used

     Subspace diagonalization in iterative solution of the eigenvalue problem:
     a serial algorithm will be used

 
     G-vector sticks info
     --------------------
     sticks:   dense  smooth     PW     G-vecs:    dense   smooth      PW
     Sum       21465    8585   2145              2368925   599161   74773
 


     bravais-lattice index     =            1
     lattice parameter (alat)  =      30.0000  a.u.
     unit-cell volume          =   27000.0000 (a.u.)^3
     number of atoms/cell      =           12
     number of atomic types    =            3
     number of electrons       =        30.00
     number of Kohn-Sham states=           15
     kinetic-energy cutoff     =      30.0000  Ry
     charge density cutoff     =     300.0000  Ry
     scf convergence threshold =      5.0E-09
     mixing beta               =       0.4000
     number of iterations used =            8  plain     mixing
     Exchange-correlation= SLA  PW   PBE  PBE
                           (   1   4   3   4   0   0   0)
 

     Environ Module
     ==============

     Please cite
         O. Andreussi, I. Dabo and N. Marzari, J. Chem. Phys. 136, 064102 (2012)         
     in publications or presentations arising from this work.

     compensation onset threshold      =               0.1000E+00


     Assuming isolated system, Martyna-Tuckerman method


     celldm(1)=  30.000000  celldm(2)=   0.000000  celldm(3)=   0.000000
     celldm(4)=   0.000000  celldm(5)=   0.000000  celldm(6)=   0.000000

     crystal axes: (cart. coord. in units of alat)
               a(1) = (   1.000000   0.000000   0.000000 )  
               a(2) = (   0.000000   1.000000   0.000000 )  
               a(3) = (   0.000000   0.000000   1.000000 )  

     reciprocal axes: (cart. coord. in units 2 pi/alat)
               b(1) = (  1.000000  0.000000  0.000000 )  
               b(2) = (  0.000000  1.000000  0.000000 )  
               b(3) = (  0.000000  0.000000  1.000000 )  


     PseudoPot. # 1 for N  read from file:
     /home/simplogic86/Work/QE1/pseudo/N.pbe-rrkjus.UPF
     MD5 check sum: 28c76d763763edb36c62a6ca2be9aebd
     Pseudo is Ultrasoft, Zval =  5.0
     Generated by new atomic code, or converted to UPF format
     Using radial grid of 1257 points,  4 beta functions with: 
                l(1) =   0
                l(2) =   0
                l(3) =   1
                l(4) =   1
     Q(r) pseudized with 0 coefficients 


     PseudoPot. # 2 for C  read from file:
     /home/simplogic86/Work/QE1/pseudo/C.pbe-rrkjus.UPF
     MD5 check sum: c9ac5a99bc85b198593446162950cd17
     Pseudo is Ultrasoft, Zval =  4.0
     Generated by new atomic code, or converted to UPF format
     Using radial grid of  627 points,  4 beta functions with: 
                l(1) =   0
                l(2) =   0
                l(3) =   1
                l(4) =   1
     Q(r) pseudized with 0 coefficients 


     PseudoPot. # 3 for H  read from file:
     /home/simplogic86/Work/QE1/pseudo/H.pbe-rrkjus.UPF
     MD5 check sum: 2d52a7f45632fd764c17cc6affed14c8
     Pseudo is Ultrasoft, Zval =  1.0
     Generated by new atomic code, or converted to UPF format
     Using radial grid of 1061 points,  2 beta functions with: 
                l(1) =   0
                l(2) =   0
     Q(r) pseudized with 0 coefficients 


     atomic species   valence    mass     pseudopotential
        N              5.00    14.00000     N ( 1.00)
        C              4.00    12.00000     C ( 1.00)
        H              1.00     1.00000     H ( 1.00)

     No symmetry found


                                    s                        frac. trans.

      isym =  1     identity                                     

 cryst.   s( 1) = (     1          0          0      )
                  (     0          1          0      )
                  (     0          0          1      )

 cart.    s( 1) = (  1.0000000  0.0000000  0.0000000 )
                  (  0.0000000  1.0000000  0.0000000 )
                  (  0.0000000  0.0000000  1.0000000 )


     point group C_1 (1)    
     there are  1 classes
     the character table:

       E    
A      1.00

     the symmetry operations in each class and the name of the first element:

     E        1
          identity                                               

   Cartesian axes

     site n.     atom                  positions (alat units)
         1           H   tau(   1) = (  -0.1523532   0.0000000   0.0001258  )
         2           N   tau(   2) = (  -0.0815136   0.0000000   0.0001009  )
         3           C   tau(   3) = (  -0.0411048   0.0749119   0.0000692  )
         4           C   tau(   4) = (   0.0459374   0.0761731   0.0000488  )
         5           C   tau(   5) = (   0.0897978   0.0000000   0.0000440  )
         6           C   tau(   6) = (   0.0459374  -0.0761731   0.0000884  )
         7           C   tau(   7) = (  -0.0411048  -0.0749119   0.0001182  )
         8           H   tau(   8) = (  -0.0804244   0.1312714   0.0000570  )
         9           H   tau(   9) = (   0.0786365   0.1366241   0.0000268  )
        10           H   tau(  10) = (   0.1586195  -0.0000000   0.0000007  )
        11           H   tau(  11) = (   0.0786366  -0.1366241   0.0001069  )
        12           H   tau(  12) = (  -0.0804243  -0.1312713   0.0001627  )

   Crystallographic axes

     site n.     atom                  positions (cryst. coord.)
         1           H   tau(   1) = ( -0.1523532  0.0000000  0.0001258  )
         2           N   tau(   2) = ( -0.0815136  0.0000000  0.0001009  )
         3           C   tau(   3) = ( -0.0411048  0.0749119  0.0000692  )
         4           C   tau(   4) = (  0.0459374  0.0761731  0.0000488  )
         5           C   tau(   5) = (  0.0897978  0.0000000  0.0000440  )
         6           C   tau(   6) = (  0.0459374 -0.0761731  0.0000884  )
         7           C   tau(   7) = ( -0.0411048 -0.0749119  0.0001182  )
         8           H   tau(   8) = ( -0.0804244  0.1312714  0.0000570  )
         9           H   tau(   9) = (  0.0786365  0.1366241  0.0000268  )
        10           H   tau(  10) = (  0.1586195 -0.0000000  0.0000007  )
        11           H   tau(  11) = (  0.0786366 -0.1366241  0.0001069  )
        12           H   tau(  12) = ( -0.0804243 -0.1312713  0.0001627  )

     number of k points=     1
                       cart. coord. in units 2pi/alat
        k(    1) = (   0.0000000   0.0000000   0.0000000), wk =   2.0000000

                       cryst. coord.
        k(    1) = (   0.0000000   0.0000000   0.0000000), wk =   2.0000000

     Dense  grid:  1184463 G-vectors     FFT dimensions: ( 180, 180, 180)

     Smooth grid:   299581 G-vectors     FFT dimensions: ( 108, 108, 108)

     Dynamical RAM for                 wfc:       8.57 MB

     Dynamical RAM for     wfc (w. buffer):       8.57 MB

     Dynamical RAM for           str. fact:      54.22 MB

     Dynamical RAM for           local pot:       0.00 MB

     Dynamical RAM for          nlocal pot:      34.30 MB

     Dynamical RAM for                qrad:       1.19 MB

     Dynamical RAM for          rho,v,vnew:     187.70 MB

     Dynamical RAM for               rhoin:      62.57 MB

     Dynamical RAM for            rho*nmix:     289.18 MB

     Dynamical RAM for           G-vectors:      70.06 MB

     Dynamical RAM for          h,s,v(r/c):       0.02 MB

     Dynamical RAM for          <psi|beta>:       0.01 MB

     Dynamical RAM for                 psi:      17.15 MB

     Dynamical RAM for                hpsi:      17.15 MB

     Dynamical RAM for                spsi:      17.15 MB

     Dynamical RAM for      wfcinit/wfcrot:      34.32 MB

     Dynamical RAM for           addusdens:     885.60 MB

     Dynamical RAM for          addusforce:    1075.38 MB

     Estimated static dynamical RAM per process >    1002.56 MB

     Estimated max dynamical RAM per process >       2.03 GB

     Initial potential from superposition of free atoms

     starting charge   30.42250, renormalised to   30.00000

     negative rho (up, down):  2.291E-03 0.000E+00
     Starting wfcs are   30 randomized atomic wfcs

     total cpu time spent up to now is        9.5 secs

     Self-consistent Calculation

     iteration #  1     ecut=    30.00 Ry     beta= 0.40
     Davidson diagonalization with overlap
     ethr =  1.00E-02,  avg # of iterations =  2.0

     negative rho (up, down):  1.182E-03 0.000E+00

     total cpu time spent up to now is       16.5 secs

     total energy              =     -83.53625655 Ry
     estimated scf accuracy    <       2.44773044 Ry
     correction to one-el term =       0.00000000 Ry

     iteration #  2     ecut=    30.00 Ry     beta= 0.40
     Davidson diagonalization with overlap
     ethr =  8.16E-03,  avg # of iterations =  1.0

     negative rho (up, down):  2.872E-03 0.000E+00

     total cpu time spent up to now is       22.5 secs

     total energy              =     -83.21949748 Ry
     estimated scf accuracy    <       0.62511969 Ry
     correction to one-el term =       0.00000000 Ry

     iteration #  3     ecut=    30.00 Ry     beta= 0.40
     Davidson diagonalization with overlap
     ethr =  2.08E-03,  avg # of iterations =  4.0

     negative rho (up, down):  9.650E-04 0.000E+00

     total cpu time spent up to now is       29.3 secs

     total energy              =     -83.34836902 Ry
     estimated scf accuracy    <       0.10167941 Ry
     correction to one-el term =       0.00000000 Ry

     iteration #  4     ecut=    30.00 Ry     beta= 0.40
     Davidson diagonalization with overlap
     ethr =  3.39E-04,  avg # of iterations =  4.0

     negative rho (up, down):  1.137E-03 0.000E+00

     add environment contribution to local potential

     total cpu time spent up to now is       36.2 secs

     total energy              =     -83.37142387 Ry
     estimated scf accuracy    <       0.04055721 Ry
     correction to one-el term =       0.00000000 Ry

     iteration #  5     ecut=    30.00 Ry     beta= 0.40
     Davidson diagonalization with overlap
     ethr =  1.35E-04,  avg # of iterations =  1.0

     negative rho (up, down):  8.464E-04 0.000E+00

     add environment contribution to local potential

     total cpu time spent up to now is       42.4 secs

     total energy              =     -83.35701684 Ry
     estimated scf accuracy    <       0.02126889 Ry
     correction to one-el term =       0.00000000 Ry

     iteration #  6     ecut=    30.00 Ry     beta= 0.40
     Davidson diagonalization with overlap
     ethr =  7.09E-05,  avg # of iterations =  5.0

     negative rho (up, down):  5.897E-04 0.000E+00

     add environment contribution to local potential

     total cpu time spent up to now is       49.4 secs

     total energy              =     -83.36402974 Ry
     estimated scf accuracy    <       0.01547430 Ry
     correction to one-el term =       0.00000000 Ry

     iteration #  7     ecut=    30.00 Ry     beta= 0.40
     Davidson diagonalization with overlap
     ethr =  5.16E-05,  avg # of iterations =  3.0

     negative rho (up, down):  5.222E-04 0.000E+00

     add environment contribution to local potential

     total cpu time spent up to now is       55.7 secs

     total energy              =     -83.36522498 Ry
     estimated scf accuracy    <       0.00111919 Ry
     correction to one-el term =       0.00000000 Ry

     iteration #  8     ecut=    30.00 Ry     beta= 0.40
     Davidson diagonalization with overlap
     ethr =  3.73E-06,  avg # of iterations =  5.0

     negative rho (up, down):  4.798E-04 0.000E+00

     add environment contribution to local potential

     total cpu time spent up to now is       62.6 secs

     total energy              =     -83.36600572 Ry
     estimated scf accuracy    <       0.00040197 Ry
     correction to one-el term =       0.00000000 Ry

     iteration #  9     ecut=    30.00 Ry     beta= 0.40
     Davidson diagonalization with overlap
     ethr =  1.34E-06,  avg # of iterations =  2.0

     negative rho (up, down):  5.674E-04 0.000E+00

     add environment contribution to local potential

     total cpu time spent up to now is       68.9 secs

     total energy              =     -83.36590074 Ry
     estimated scf accuracy    <       0.00022363 Ry
     correction to one-el term =       0.00000000 Ry

     iteration # 10     ecut=    30.00 Ry     beta= 0.40
     Davidson diagonalization with overlap
     ethr =  7.45E-07,  avg # of iterations =  5.0

     negative rho (up, down):  5.746E-04 0.000E+00

     add environment contribution to local potential

     total cpu time spent up to now is       75.8 secs

     total energy              =     -83.36597175 Ry
     estimated scf accuracy    <       0.00002002 Ry
     correction to one-el term =       0.00000000 Ry

     iteration # 11     ecut=    30.00 Ry     beta= 0.40
     Davidson diagonalization with overlap
     ethr =  6.67E-08,  avg # of iterations =  5.0

     negative rho (up, down):  5.714E-04 0.000E+00

     add environment contribution to local potential

     total cpu time spent up to now is       82.7 secs

     total energy              =     -83.36597521 Ry
     estimated scf accuracy    <       0.00000165 Ry
     correction to one-el term =       0.00000000 Ry

     iteration # 12     ecut=    30.00 Ry     beta= 0.40
     Davidson diagonalization with overlap
     ethr =  5.49E-09,  avg # of iterations =  4.0

     negative rho (up, down):  5.874E-04 0.000E+00

     add environment contribution to local potential

     total cpu time spent up to now is       89.3 secs

     total energy              =     -83.36597496 Ry
     estimated scf accuracy    <       0.00000236 Ry
     correction to one-el term =       0.00000000 Ry

     iteration # 13     ecut=    30.00 Ry     beta= 0.40
     Davidson diagonalization with overlap
     ethr =  5.49E-09,  avg # of iterations =  2.0

     negative rho (up, down):  6.090E-04 0.000E+00

     add environment contribution to local potential

     total cpu time spent up to now is       95.4 secs

     total energy              =     -83.36597460 Ry
     estimated scf accuracy    <       0.00000091 Ry
     correction to one-el term =       0.00000000 Ry

     iteration # 14     ecut=    30.00 Ry     beta= 0.40
     Davidson diagonalization with overlap
     ethr =  3.03E-09,  avg # of iterations =  5.0

     negative rho (up, down):  6.096E-04 0.000E+00

     add environment contribution to local potential

     total cpu time spent up to now is      102.2 secs

     total energy              =     -83.36597495 Ry
     estimated scf accuracy    <       0.00000014 Ry
     correction to one-el term =       0.00000000 Ry

     iteration # 15     ecut=    30.00 Ry     beta= 0.40
     Davidson diagonalization with overlap
     ethr =  4.81E-10,  avg # of iterations =  2.0

     negative rho (up, down):  6.138E-04 0.000E+00

     add environment contribution to local potential

     total cpu time spent up to now is      108.7 secs

     total energy              =     -83.36597492 Ry
     estimated scf accuracy    <       0.00000007 Ry
     correction to one-el term =       0.00000000 Ry

     iteration # 16     ecut=    30.00 Ry     beta= 0.40
     Davidson diagonalization with overlap
     ethr =  2.25E-10,  avg # of iterations =  5.0

     negative rho (up, down):  6.101E-04 0.000E+00

     add environment contribution to local potential

     total cpu time spent up to now is      115.4 secs

     total energy              =     -83.36597494 Ry
     estimated scf accuracy    <       0.00000002 Ry
     correction to one-el term =       0.00000000 Ry

     iteration # 17     ecut=    30.00 Ry     beta= 0.40
     Davidson diagonalization with overlap
     ethr =  7.16E-11,  avg # of iterations =  5.0

     negative rho (up, down):  6.109E-04 0.000E+00

     add environment contribution to local potential

     total cpu time spent up to now is      122.0 secs

     total energy              =     -83.36597494 Ry
     estimated scf accuracy    <       0.00000001 Ry
     correction to one-el term =       0.00000000 Ry

     iteration # 18     ecut=    30.00 Ry     beta= 0.40
     Davidson diagonalization with overlap
     ethr =  3.79E-11,  avg # of iterations =  5.0

     negative rho (up, down):  6.114E-04 0.000E+00

     add environment contribution to local potential

     total cpu time spent up to now is      128.9 secs

     total energy              =     -83.36597494 Ry
     estimated scf accuracy    <       0.00000003 Ry
     correction to one-el term =       0.00000000 Ry

     iteration # 19     ecut=    30.00 Ry     beta= 0.40
     Davidson diagonalization with overlap
     ethr =  3.79E-11,  avg # of iterations =  4.0

     negative rho (up, down):  6.116E-04 0.000E+00

     total cpu time spent up to now is      135.1 secs

     End of self-consistent calculation

          k = 0.0000 0.0000 0.0000 ( 37387 PWs)   bands (ev):

   -30.5808 -25.8120 -25.0403 -21.6907 -21.5507 -19.7491 -17.8350 -17.3548
   -16.6906 -16.3221 -16.2977 -14.4469 -14.3017 -13.1170 -12.4086

     occupation numbers 
     1.0000   1.0000   1.0000   1.0000   1.0000   1.0000   1.0000   1.0000
     1.0000   1.0000   1.0000   1.0000   1.0000   1.0000   1.0000

     highest occupied level (ev):   -12.4086

!    total energy              =     -83.36597494 Ry
     estimated scf accuracy    <          4.4E-09 Ry

     The total energy is the sum of the following terms:
     one-electron contribution =    -551.55580902 Ry
     hartree contribution      =     271.93611164 Ry
     xc contribution           =     -26.14610156 Ry
     ewald contribution        =     222.39982399 Ry
     correction to one-el term =       0.00000000 Ry

     convergence has been achieved in  19 iterations
     The global environment contribution to forces
     atom    1 type  3   force =     0.00000000    0.00000000    0.00000000
     atom    2 type  1   force =     0.00000000    0.00000000    0.00000000
     atom    3 type  2   force =     0.00000000    0.00000000    0.00000000
     atom    4 type  2   force =     0.00000000    0.00000000    0.00000000
     atom    5 type  2   force =     0.00000000    0.00000000    0.00000000
     atom    6 type  2   force =     0.00000000    0.00000000    0.00000000
     atom    7 type  2   force =     0.00000000    0.00000000    0.00000000
     atom    8 type  3   force =     0.00000000    0.00000000    0.00000000
     atom    9 type  3   force =     0.00000000    0.00000000    0.00000000
     atom   10 type  3   force =     0.00000000    0.00000000    0.00000000
     atom   11 type  3   force =     0.00000000    0.00000000    0.00000000
     atom   12 type  3   force =     0.00000000    0.00000000    0.00000000
 

     Forces acting on atoms (cartesian axes, Ry/au):

     atom    1 type  3   force =     0.12177853   -0.00000005   -0.00005202
     atom    2 type  1   force =    -0.11579434    0.00000046    0.00006785
     atom    3 type  2   force =    -0.00692516    0.00272614    0.00000530
     atom    4 type  2   force =     0.00116500    0.00365667   -0.00003863
     atom    5 type  2   force =     0.00627845   -0.00000024   -0.00000540
     atom    6 type  2   force =     0.00116532   -0.00365624    0.00000584
     atom    7 type  2   force =    -0.00692530   -0.00272672    0.00002662
     atom    8 type  3   force =     0.00324083   -0.00344604    0.00000948
     atom    9 type  3   force =    -0.00164895   -0.00401654   -0.00000829
     atom   10 type  3   force =    -0.00392629    0.00000002    0.00002825
     atom   11 type  3   force =    -0.00164894    0.00401647   -0.00002085
     atom   12 type  3   force =     0.00324085    0.00344608   -0.00001814
     The Martyna-Tuckerman correction term to forces
     atom    1 type  3   force =    -0.00134626    0.00000000    0.00000021
     atom    2 type  1   force =    -0.00288870    0.00000000    0.00000031
     atom    3 type  2   force =    -0.00064596    0.00294481   -0.00000058
     atom    4 type  2   force =     0.00281027    0.00293294   -0.00000104
     atom    5 type  2   force =     0.00478363    0.00000000   -0.00000120
     atom    6 type  2   force =     0.00281027   -0.00293294   -0.00000003
     atom    7 type  2   force =    -0.00064596   -0.00294481    0.00000076
     atom    8 type  3   force =    -0.00052266    0.00131650   -0.00000022
     atom    9 type  3   force =     0.00098461    0.00133021   -0.00000035
     atom   10 type  3   force =     0.00202678    0.00000000   -0.00000051
     atom   11 type  3   force =     0.00098461   -0.00133021    0.00000011
     atom   12 type  3   force =    -0.00052266   -0.00131650    0.00000046
     The non-local contrib.  to forces
     atom    1 type  3   force =     0.14167410   -0.00000002   -0.00005031
     atom    2 type  1   force =    -0.01296571    0.00000033    0.00020401
     atom    3 type  2   force =    -0.10267415   -0.31298661    0.00008283
     atom    4 type  2   force =    -0.11804051   -0.10266604    0.00001582
     atom    5 type  2   force =    -0.12362512    0.00000001    0.00006125
     atom    6 type  2   force =    -0.11804042    0.10266630    0.00001918
     atom    7 type  2   force =    -0.10267440    0.31298640   -0.00010354
     atom    8 type  3   force =     0.08645430   -0.12987178    0.00003046
     atom    9 type  3   force =    -0.07361564   -0.13464948    0.00004756
     atom   10 type  3   force =    -0.15370120    0.00000003    0.00010090
     atom   11 type  3   force =    -0.07361566    0.13464947   -0.00004353
     atom   12 type  3   force =     0.08645424    0.12987175   -0.00010266
     The ionic contribution  to forces
     atom    1 type  3   force =    -3.67662239    0.00000030    0.00120661
     atom    2 type  1   force =    -9.04849811    0.00000171    0.00169003
     atom    3 type  2   force =    -2.83977692    7.52144304   -0.00133586
     atom    4 type  2   force =     4.02437581    6.36088998   -0.00184150
     atom    5 type  2   force =     7.36794959   -0.00000117   -0.00322235
     atom    6 type  2   force =     4.02437706   -6.36089010    0.00065933
     atom    7 type  2   force =    -2.83977445   -7.52144390    0.00358714
     atom    8 type  3   force =    -1.82448734    2.93050813   -0.00062241
     atom    9 type  3   force =     1.64556721    2.93750990   -0.00103497
     atom   10 type  3   force =     3.34580841   -0.00000047   -0.00200043
     atom   11 type  3   force =     1.64556751   -2.93750965    0.00079776
     atom   12 type  3   force =    -1.82448639   -2.93050779    0.00211666
     The local contribution  to forces
     atom    1 type  3   force =     3.65809191   -0.00000030   -0.00120700
     atom    2 type  1   force =     8.94856364   -0.00000133   -0.00182499
     atom    3 type  2   force =     2.93615561   -7.20865541    0.00126044
     atom    4 type  2   force =    -3.90801678   -6.25745180    0.00178961
     atom    5 type  2   force =    -7.24280733    0.00000113    0.00315840
     atom    6 type  2   force =    -3.90801764    6.25745224   -0.00067110
     atom    7 type  2   force =     2.93615305    7.20865605   -0.00345621
     atom    8 type  3   force =     1.74181611   -2.80540180    0.00060314
     atom    9 type  3   force =    -1.57456778   -2.80820200    0.00098097
     atom   10 type  3   force =    -3.19803325    0.00000049    0.00192981
     atom   11 type  3   force =    -1.57456801    2.80820168   -0.00077369
     atom   12 type  3   force =     1.74181521    2.80540154   -0.00203109
     The core correction contribution to forces
     atom    1 type  3   force =     0.00000000    0.00000000    0.00000000
     atom    2 type  1   force =     0.00000000    0.00000000    0.00000000
     atom    3 type  2   force =     0.00000000    0.00000000    0.00000000
     atom    4 type  2   force =     0.00000000    0.00000000    0.00000000
     atom    5 type  2   force =     0.00000000    0.00000000    0.00000000
     atom    6 type  2   force =     0.00000000    0.00000000    0.00000000
     atom    7 type  2   force =     0.00000000    0.00000000    0.00000000
     atom    8 type  3   force =     0.00000000    0.00000000    0.00000000
     atom    9 type  3   force =     0.00000000    0.00000000    0.00000000
     atom   10 type  3   force =     0.00000000    0.00000000    0.00000000
     atom   11 type  3   force =     0.00000000    0.00000000    0.00000000
     atom   12 type  3   force =     0.00000000    0.00000000    0.00000000
     The Hubbard contrib.    to forces
     atom    1 type  3   force =     0.00000000    0.00000000    0.00000000
     atom    2 type  1   force =     0.00000000    0.00000000    0.00000000
     atom    3 type  2   force =     0.00000000    0.00000000    0.00000000
     atom    4 type  2   force =     0.00000000    0.00000000    0.00000000
     atom    5 type  2   force =     0.00000000    0.00000000    0.00000000
     atom    6 type  2   force =     0.00000000    0.00000000    0.00000000
     atom    7 type  2   force =     0.00000000    0.00000000    0.00000000
     atom    8 type  3   force =     0.00000000    0.00000000    0.00000000
     atom    9 type  3   force =     0.00000000    0.00000000    0.00000000
     atom   10 type  3   force =     0.00000000    0.00000000    0.00000000
     atom   11 type  3   force =     0.00000000    0.00000000    0.00000000
     atom   12 type  3   force =     0.00000000    0.00000000    0.00000000
     The SCF correction term to forces
     atom    1 type  3   force =     0.00000033   -0.00000001   -0.00000001
     atom    2 type  1   force =     0.00001370   -0.00000025   -0.00000001
     atom    3 type  2   force =     0.00003543   -0.00001968   -0.00000002
     atom    4 type  2   force =     0.00005538   -0.00004840   -0.00000002
     atom    5 type  2   force =    -0.00000317   -0.00000019   -0.00000000
     atom    6 type  2   force =     0.00005521    0.00004827   -0.00000005
     atom    7 type  2   force =     0.00003562    0.00001955   -0.00000002
     atom    8 type  3   force =    -0.00000043    0.00000293    0.00000000
     atom    9 type  3   force =     0.00000180   -0.00000517   -0.00000000
     atom   10 type  3   force =    -0.00000786   -0.00000002   -0.00000001
     atom   11 type  3   force =     0.00000176    0.00000520   -0.00000000
     atom   12 type  3   force =    -0.00000039   -0.00000291   -0.00000001

     Total force =     0.168866     Total SCF correction =     0.000120

     Writing output data file /home/simplogic86/Work/QE1/tempdir/pyridine_vacuum_martyna-tuckerman.save/
 
     init_run     :      8.21s CPU      9.41s WALL (       1 calls)
     electrons    :    108.59s CPU    125.65s WALL (       1 calls)
     forces       :      3.17s CPU      3.78s WALL (       1 calls)

     Called by init_run:
     wfcinit      :      0.87s CPU      0.96s WALL (       1 calls)
     wfcinit:atom :      0.11s CPU      0.17s WALL (       1 calls)
     wfcinit:wfcr :      0.71s CPU      0.73s WALL (       1 calls)
     potinit      :      2.11s CPU      2.50s WALL (       1 calls)
     hinit0       :      2.32s CPU      2.43s WALL (       1 calls)

     Called by electrons:
     c_bands      :     24.26s CPU     24.56s WALL (      19 calls)
     sum_band     :     29.38s CPU     35.32s WALL (      19 calls)
     v_of_rho     :     29.19s CPU     33.69s WALL (      20 calls)
     v_h          :      3.03s CPU      3.68s WALL (      20 calls)
     v_xc         :     26.16s CPU     30.00s WALL (      20 calls)
     newd         :     17.99s CPU     24.52s WALL (      20 calls)
     mix_rho      :      5.97s CPU      6.03s WALL (      19 calls)

     Called by c_bands:
     init_us_2    :      0.53s CPU      0.65s WALL (      39 calls)
     regterg      :     22.55s CPU     22.59s WALL (      19 calls)

     Called by sum_band:
     sum_band:wei :      0.00s CPU      0.00s WALL (      19 calls)
     sum_band:loo :      4.26s CPU      4.26s WALL (      19 calls)
     sum_band:buf :      0.00s CPU      0.00s WALL (      19 calls)
     sum_band:ini :      0.24s CPU      0.24s WALL (      19 calls)
     sum_band:cal :      0.14s CPU      0.14s WALL (      19 calls)
     sum_band:bec :      0.00s CPU      0.00s WALL (      19 calls)
     addusdens    :     21.48s CPU     27.16s WALL (      19 calls)
     addusd:skk   :      0.90s CPU      1.28s WALL (      57 calls)
     addusd:dgemm :      3.37s CPU      7.89s WALL (      57 calls)
     addusd:qvan2 :     14.95s CPU     14.99s WALL (      57 calls)

     Called by *egterg:
     rdiaghg      :      0.03s CPU      0.03s WALL (      88 calls)
     regterg:over :      0.34s CPU      0.34s WALL (      69 calls)
     regterg:upda :      0.26s CPU      0.26s WALL (      69 calls)
     regterg:last :      0.50s CPU      0.50s WALL (      44 calls)
     h_psi        :     21.18s CPU     21.22s WALL (      89 calls)
     s_psi        :      0.55s CPU      0.55s WALL (      89 calls)
     g_psi        :      0.07s CPU      0.07s WALL (      69 calls)

     Called by h_psi:
     h_psi:calbec :      0.49s CPU      0.49s WALL (      89 calls)
     vloc_psi     :     20.06s CPU     20.09s WALL (      89 calls)
     add_vuspsi   :      0.56s CPU      0.56s WALL (      89 calls)

     General routines
     calbec       :      0.67s CPU      0.67s WALL (     112 calls)
     fft          :     18.75s CPU     19.52s WALL (     221 calls)
     ffts         :      0.61s CPU      0.61s WALL (      39 calls)
     fftw         :     17.69s CPU     17.70s WALL (    1042 calls)
     interpolate  :      2.56s CPU      2.73s WALL (      20 calls)
 
     Parallel routines
 
     Environ routines
 
     PWSCF        :   2m 0.08s CPU   2m18.99s WALL

 
   This run was terminated on:  15: 8:12  25Sep2021            

=------------------------------------------------------------------------------=
   JOB DONE.
=------------------------------------------------------------------------------=
