
     Program PWSCF v.6.1 (svn rev. 13369) starts on 29Jan2018 at 15:14:11 

     This program is part of the open-source Quantum ESPRESSO suite
     for quantum simulation of materials; please cite
         "P. Giannozzi et al., J. Phys.:Condens. Matter 21 395502 (2009);
          URL http://www.quantum-espresso.org", 
     in publications or presentations arising from this work. More details at
     http://www.quantum-espresso.org/quote

     Parallel version (MPI), running on     1 processors
     Waiting for input...
     Reading input from standard input
Warning: card  &IONS ignored
Warning: card    ION_DYNAMICS    = 'BFGS' ignored
Warning: card  / ignored

     Current dimensions of program PWSCF are:
     Max number of different atomic species (ntypx) = 10
     Max number of k-points (npk) =  40000
     Max angular momentum in pseudopotentials (lmaxx) =  3
               file N.pbe-rrkjus.UPF: wavefunction(s)  2S renormalized
               file C.pbe-rrkjus.UPF: wavefunction(s)  2S 2P renormalized
               file H.pbe-rrkjus.UPF: wavefunction(s)  1S renormalized

     gamma-point specific algorithms are used

     Subspace diagonalization in iterative solution of the eigenvalue problem:
     a serial algorithm will be used

 
     G-vector sticks info
     --------------------
     sticks:   dense  smooth     PW     G-vecs:    dense   smooth      PW
     Sum       21465    8585   2145              2368925   599161   74773
 


     bravais-lattice index     =            1
     lattice parameter (alat)  =      30.0000  a.u.
     unit-cell volume          =   27000.0000 (a.u.)^3
     number of atoms/cell      =           12
     number of atomic types    =            3
     number of electrons       =        30.00
     number of Kohn-Sham states=           15
     kinetic-energy cutoff     =      30.0000  Ry
     charge density cutoff     =     300.0000  Ry
     convergence threshold     =      5.0E-09
     mixing beta               =       0.4000
     number of iterations used =            8  plain     mixing
     Exchange-correlation      =  SLA  PW   PBE  PBE ( 1  4  3  4 0 0)
 

     Environ Module
     ==============

     Plese cite
         O. Andreussi, I. Dabo and N. Marzari, J. Chem. Phys. 136, 064102 (2012)         
     in publications or presentations arising from this work.

     compensation onset threshold      =               0.1000E+00 
     static permittivity               =                    80.00 
     epsilon calculation mode          =               electronic 

     Electrostatic Setup
     -------------------
     electrostatic problem to solve    = generalized              
     numerical solver adopted          = cg                       
     type of auxiliary density adopted = none                     
     type of core tool for poisson     = fft                      
     type of core tool for s(r) deriv  = analytic                 


     Assuming isolated system, Martyna-Tuckerman method


     celldm(1)=  30.000000  celldm(2)=   0.000000  celldm(3)=   0.000000
     celldm(4)=   0.000000  celldm(5)=   0.000000  celldm(6)=   0.000000

     crystal axes: (cart. coord. in units of alat)
               a(1) = (   1.000000   0.000000   0.000000 )  
               a(2) = (   0.000000   1.000000   0.000000 )  
               a(3) = (   0.000000   0.000000   1.000000 )  

     reciprocal axes: (cart. coord. in units 2 pi/alat)
               b(1) = (  1.000000  0.000000  0.000000 )  
               b(2) = (  0.000000  1.000000  0.000000 )  
               b(3) = (  0.000000  0.000000  1.000000 )  


     PseudoPot. # 1 for N  read from file:
     /home/fnattino/Programs/qe-6.1/pseudo/N.pbe-rrkjus.UPF
     MD5 check sum: 0c3fbe5807a93f9ba59d5a7019aa238b
     Pseudo is Ultrasoft, Zval =  5.0
     Generated by new atomic code, or converted to UPF format
     Using radial grid of 1257 points,  4 beta functions with: 
                l(1) =   0
                l(2) =   0
                l(3) =   1
                l(4) =   1
     Q(r) pseudized with 0 coefficients 


     PseudoPot. # 2 for C  read from file:
     /home/fnattino/Programs/qe-6.1/pseudo/C.pbe-rrkjus.UPF
     MD5 check sum: 00fb224312de0c5b6853bd333518df6f
     Pseudo is Ultrasoft, Zval =  4.0
     Generated by new atomic code, or converted to UPF format
     Using radial grid of  627 points,  4 beta functions with: 
                l(1) =   0
                l(2) =   0
                l(3) =   1
                l(4) =   1
     Q(r) pseudized with 0 coefficients 


     PseudoPot. # 3 for H  read from file:
     /home/fnattino/Programs/qe-6.1/pseudo/H.pbe-rrkjus.UPF
     MD5 check sum: 7cc9d459525c9a0585f487a71c3c9563
     Pseudo is Ultrasoft, Zval =  1.0
     Generated by new atomic code, or converted to UPF format
     Using radial grid of 1061 points,  2 beta functions with: 
                l(1) =   0
                l(2) =   0
     Q(r) pseudized with 0 coefficients 


     atomic species   valence    mass     pseudopotential
        N              5.00    14.00000     N ( 1.00)
        C              4.00    12.00000     C ( 1.00)
        H              1.00     1.00000     H ( 1.00)

     No symmetry found


                                    s                        frac. trans.

      isym =  1     identity                                     

 cryst.   s( 1) = (     1          0          0      )
                  (     0          1          0      )
                  (     0          0          1      )

 cart.    s( 1) = (  1.0000000  0.0000000  0.0000000 )
                  (  0.0000000  1.0000000  0.0000000 )
                  (  0.0000000  0.0000000  1.0000000 )


     point group C_1 (1)    
     there are  1 classes
     the character table:

       E    
A      1.00

     the symmetry operations in each class and the name of the first element:

     E        1
          identity                                               

   Cartesian axes

     site n.     atom                  positions (alat units)
         1           H   tau(   1) = (  -0.1523532   0.0000000   0.0001258  )
         2           N   tau(   2) = (  -0.0815136   0.0000000   0.0001009  )
         3           C   tau(   3) = (  -0.0411048   0.0749119   0.0000692  )
         4           C   tau(   4) = (   0.0459374   0.0761731   0.0000488  )
         5           C   tau(   5) = (   0.0897978   0.0000000   0.0000440  )
         6           C   tau(   6) = (   0.0459374  -0.0761731   0.0000884  )
         7           C   tau(   7) = (  -0.0411048  -0.0749119   0.0001182  )
         8           H   tau(   8) = (  -0.0804244   0.1312714   0.0000570  )
         9           H   tau(   9) = (   0.0786365   0.1366241   0.0000268  )
        10           H   tau(  10) = (   0.1586195  -0.0000000   0.0000007  )
        11           H   tau(  11) = (   0.0786366  -0.1366241   0.0001069  )
        12           H   tau(  12) = (  -0.0804243  -0.1312713   0.0001627  )

   Crystallographic axes

     site n.     atom                  positions (cryst. coord.)
         1           H   tau(   1) = ( -0.1523532  0.0000000  0.0001258  )
         2           N   tau(   2) = ( -0.0815136  0.0000000  0.0001009  )
         3           C   tau(   3) = ( -0.0411048  0.0749119  0.0000692  )
         4           C   tau(   4) = (  0.0459374  0.0761731  0.0000488  )
         5           C   tau(   5) = (  0.0897978  0.0000000  0.0000440  )
         6           C   tau(   6) = (  0.0459374 -0.0761731  0.0000884  )
         7           C   tau(   7) = ( -0.0411048 -0.0749119  0.0001182  )
         8           H   tau(   8) = ( -0.0804244  0.1312714  0.0000570  )
         9           H   tau(   9) = (  0.0786365  0.1366241  0.0000268  )
        10           H   tau(  10) = (  0.1586195 -0.0000000  0.0000007  )
        11           H   tau(  11) = (  0.0786366 -0.1366241  0.0001069  )
        12           H   tau(  12) = ( -0.0804243 -0.1312713  0.0001627  )

     number of k points=     1
                       cart. coord. in units 2pi/alat
        k(    1) = (   0.0000000   0.0000000   0.0000000), wk =   2.0000000

                       cryst. coord.
        k(    1) = (   0.0000000   0.0000000   0.0000000), wk =   2.0000000

     Dense  grid:  1184463 G-vectors     FFT dimensions: ( 180, 180, 180)

     Smooth grid:   299581 G-vectors     FFT dimensions: ( 108, 108, 108)

     Estimated max dynamical RAM per process >    1015.80MB

     Initial potential from superposition of free atoms
     Check: negative starting charge=   -0.002323

     starting charge   30.42250, renormalised to   30.00000

     negative rho (up, down):  2.291E-03 0.000E+00
     Starting wfc are   30 randomized atomic wfcs

     total cpu time spent up to now is       11.1 secs

     per-process dynamical memory:  1849.2 Mb

     Self-consistent Calculation

     iteration #  1     ecut=    30.00 Ry     beta=0.40
     Davidson diagonalization with overlap
     ethr =  1.00E-02,  avg # of iterations =  3.0

     negative rho (up, down):  1.215E-03 0.000E+00

     total cpu time spent up to now is       18.5 secs

     total energy              =     -83.44283373 Ry
     Harris-Foulkes estimate   =     -84.74821475 Ry
     estimated scf accuracy    <       2.69148584 Ry
     electrostatic embedding   =       0.00000000 Ry
     correction to one-el term =       0.00000000 Ry

     iteration #  2     ecut=    30.00 Ry     beta=0.40
     Davidson diagonalization with overlap
     ethr =  8.97E-03,  avg # of iterations =  1.0

     negative rho (up, down):  2.253E-03 0.000E+00

     total cpu time spent up to now is       25.3 secs

     total energy              =     -83.24107383 Ry
     Harris-Foulkes estimate   =     -83.61054597 Ry
     estimated scf accuracy    <       0.56897343 Ry
     electrostatic embedding   =       0.00000000 Ry
     correction to one-el term =       0.00000000 Ry

     iteration #  3     ecut=    30.00 Ry     beta=0.40
     Davidson diagonalization with overlap
     ethr =  1.90E-03,  avg # of iterations =  3.0

     negative rho (up, down):  8.164E-04 0.000E+00

     total cpu time spent up to now is       32.4 secs

     total energy              =     -83.33305656 Ry
     Harris-Foulkes estimate   =     -83.40808123 Ry
     estimated scf accuracy    <       0.13417748 Ry
     electrostatic embedding   =       0.00000000 Ry
     correction to one-el term =       0.00000000 Ry

     iteration #  4     ecut=    30.00 Ry     beta=0.40
     Davidson diagonalization with overlap
     ethr =  4.47E-04,  avg # of iterations =  3.0

     negative rho (up, down):  1.051E-03 0.000E+00

     add environment contribution to local potential

     total cpu time spent up to now is       53.3 secs

     total energy              =     -83.36272278 Ry
     Harris-Foulkes estimate   =     -83.38848850 Ry
     estimated scf accuracy    <       0.05545351 Ry
     electrostatic embedding   =       0.00000000 Ry
     correction to one-el term =       0.00000000 Ry

     iteration #  5     ecut=    30.00 Ry     beta=0.40
     Davidson diagonalization with overlap
     ethr =  1.85E-04,  avg # of iterations =  3.0

     negative rho (up, down):  8.211E-04 0.000E+00

     add environment contribution to local potential

     total cpu time spent up to now is       74.4 secs

     total energy              =     -83.56852901 Ry
     Harris-Foulkes estimate   =     -72.29694620 Ry
     estimated scf accuracy    <       0.01745770 Ry
     electrostatic embedding   =      -0.20359874 Ry
     correction to one-el term =     -11.07185017 Ry

     iteration #  6     ecut=    30.00 Ry     beta=0.40
     Davidson diagonalization with overlap
     ethr =  5.82E-05,  avg # of iterations =  1.0

     negative rho (up, down):  6.346E-04 0.000E+00

     add environment contribution to local potential

     total cpu time spent up to now is       95.3 secs

     total energy              =     -83.56419540 Ry
     Harris-Foulkes estimate   =     -72.33286391 Ry
     estimated scf accuracy    <       0.01115727 Ry
     electrostatic embedding   =      -0.20515555 Ry
     correction to one-el term =     -11.03284830 Ry

     iteration #  7     ecut=    30.00 Ry     beta=0.40
     Davidson diagonalization with overlap
     ethr =  3.72E-05,  avg # of iterations =  3.0

     negative rho (up, down):  4.875E-04 0.000E+00

     add environment contribution to local potential

     total cpu time spent up to now is      116.4 secs

     total energy              =     -83.56998342 Ry
     Harris-Foulkes estimate   =     -72.47788942 Ry
     estimated scf accuracy    <       0.00109814 Ry
     electrostatic embedding   =      -0.20868855 Ry
     correction to one-el term =     -10.88342826 Ry

     iteration #  8     ecut=    30.00 Ry     beta=0.40
     Davidson diagonalization with overlap
     ethr =  3.66E-06,  avg # of iterations =  3.0

     negative rho (up, down):  5.206E-04 0.000E+00

     add environment contribution to local potential

     total cpu time spent up to now is      137.4 secs

     total energy              =     -83.57037692 Ry
     Harris-Foulkes estimate   =     -72.47738678 Ry
     estimated scf accuracy    <       0.00110506 Ry
     electrostatic embedding   =      -0.20866480 Ry
     correction to one-el term =     -10.88401670 Ry

     iteration #  9     ecut=    30.00 Ry     beta=0.40
     Davidson diagonalization with overlap
     ethr =  3.66E-06,  avg # of iterations =  3.0

     negative rho (up, down):  6.342E-04 0.000E+00

     add environment contribution to local potential

     total cpu time spent up to now is      158.5 secs

     total energy              =     -83.56964712 Ry
     Harris-Foulkes estimate   =     -72.48924441 Ry
     estimated scf accuracy    <       0.00244687 Ry
     electrostatic embedding   =      -0.20905465 Ry
     correction to one-el term =     -10.87217397 Ry

     iteration # 10     ecut=    30.00 Ry     beta=0.40
     Davidson diagonalization with overlap
     ethr =  3.66E-06,  avg # of iterations =  4.0

     negative rho (up, down):  6.291E-04 0.000E+00

     add environment contribution to local potential

     total cpu time spent up to now is      179.7 secs

     total energy              =     -83.56968075 Ry
     Harris-Foulkes estimate   =     -72.48567150 Ry
     estimated scf accuracy    <       0.00173274 Ry
     electrostatic embedding   =      -0.21017691 Ry
     correction to one-el term =     -10.87468284 Ry

     iteration # 11     ecut=    30.00 Ry     beta=0.40
     Davidson diagonalization with overlap
     ethr =  3.66E-06,  avg # of iterations =  4.0

     negative rho (up, down):  8.041E-04 0.000E+00

     add environment contribution to local potential

     total cpu time spent up to now is      201.4 secs

     total energy              =     -83.57004616 Ry
     Harris-Foulkes estimate   =     -72.47930089 Ry
     estimated scf accuracy    <       0.00033384 Ry
     electrostatic embedding   =      -0.21006289 Ry
     correction to one-el term =     -10.88074174 Ry

     iteration # 12     ecut=    30.00 Ry     beta=0.40
     Davidson diagonalization with overlap
     ethr =  1.11E-06,  avg # of iterations =  2.0

     negative rho (up, down):  9.630E-04 0.000E+00

     add environment contribution to local potential

     total cpu time spent up to now is      222.5 secs

     total energy              =     -83.57028898 Ry
     Harris-Foulkes estimate   =     -72.48399139 Ry
     estimated scf accuracy    <       0.00026666 Ry
     electrostatic embedding   =      -0.21275633 Ry
     correction to one-el term =     -10.87355057 Ry

     iteration # 13     ecut=    30.00 Ry     beta=0.40
     Davidson diagonalization with overlap
     ethr =  8.89E-07,  avg # of iterations =  2.0

     negative rho (up, down):  7.787E-04 0.000E+00

     add environment contribution to local potential

     total cpu time spent up to now is      243.5 secs

     total energy              =     -83.57033399 Ry
     Harris-Foulkes estimate   =     -72.48961672 Ry
     estimated scf accuracy    <       0.00017144 Ry
     electrostatic embedding   =      -0.21407756 Ry
     correction to one-el term =     -10.86666431 Ry

     iteration # 14     ecut=    30.00 Ry     beta=0.40
     Davidson diagonalization with overlap
     ethr =  5.71E-07,  avg # of iterations =  2.0

     negative rho (up, down):  6.719E-04 0.000E+00

     add environment contribution to local potential

     total cpu time spent up to now is      264.5 secs

     total energy              =     -83.57035174 Ry
     Harris-Foulkes estimate   =     -72.48762357 Ry
     estimated scf accuracy    <       0.00009389 Ry
     electrostatic embedding   =      -0.21463268 Ry
     correction to one-el term =     -10.86810815 Ry

     iteration # 15     ecut=    30.00 Ry     beta=0.40
     Davidson diagonalization with overlap
     ethr =  3.13E-07,  avg # of iterations =  3.0

     negative rho (up, down):  6.411E-04 0.000E+00

     add environment contribution to local potential

     total cpu time spent up to now is      285.6 secs

     total energy              =     -83.57038008 Ry
     Harris-Foulkes estimate   =     -72.48740083 Ry
     estimated scf accuracy    <       0.00003560 Ry
     electrostatic embedding   =      -0.21513323 Ry
     correction to one-el term =     -10.86784916 Ry

     iteration # 16     ecut=    30.00 Ry     beta=0.40
     Davidson diagonalization with overlap
     ethr =  1.19E-07,  avg # of iterations =  1.0

     negative rho (up, down):  5.994E-04 0.000E+00

     add environment contribution to local potential

     total cpu time spent up to now is      306.6 secs

     total energy              =     -83.57037729 Ry
     Harris-Foulkes estimate   =     -72.48774731 Ry
     estimated scf accuracy    <       0.00002594 Ry
     electrostatic embedding   =      -0.21534398 Ry
     correction to one-el term =     -10.86729509 Ry

     iteration # 17     ecut=    30.00 Ry     beta=0.40
     Davidson diagonalization with overlap
     ethr =  8.65E-08,  avg # of iterations =  4.0

     negative rho (up, down):  5.784E-04 0.000E+00

     add environment contribution to local potential

     total cpu time spent up to now is      327.9 secs

     total energy              =     -83.57039916 Ry
     Harris-Foulkes estimate   =     -72.48993321 Ry
     estimated scf accuracy    <       0.00000683 Ry
     electrostatic embedding   =      -0.21618600 Ry
     correction to one-el term =     -10.86428272 Ry

     iteration # 18     ecut=    30.00 Ry     beta=0.40
     Davidson diagonalization with overlap
     ethr =  2.28E-08,  avg # of iterations =  4.0

     negative rho (up, down):  5.705E-04 0.000E+00

     add environment contribution to local potential

     total cpu time spent up to now is      349.2 secs

     total energy              =     -83.57040439 Ry
     Harris-Foulkes estimate   =     -72.49038797 Ry
     estimated scf accuracy    <       0.00000489 Ry
     electrostatic embedding   =      -0.21641545 Ry
     correction to one-el term =     -10.86360243 Ry

     iteration # 19     ecut=    30.00 Ry     beta=0.40
     Davidson diagonalization with overlap
     ethr =  1.63E-08,  avg # of iterations =  2.0

     negative rho (up, down):  5.773E-04 0.000E+00

     add environment contribution to local potential

     total cpu time spent up to now is      370.2 secs

     total energy              =     -83.57040263 Ry
     Harris-Foulkes estimate   =     -72.49097241 Ry
     estimated scf accuracy    <       0.00000195 Ry
     electrostatic embedding   =      -0.21627699 Ry
     correction to one-el term =     -10.86315451 Ry

     iteration # 20     ecut=    30.00 Ry     beta=0.40
     Davidson diagonalization with overlap
     ethr =  6.52E-09,  avg # of iterations =  4.0

     negative rho (up, down):  5.793E-04 0.000E+00

     add environment contribution to local potential

     total cpu time spent up to now is      391.6 secs

     total energy              =     -83.57040207 Ry
     Harris-Foulkes estimate   =     -72.49224970 Ry
     estimated scf accuracy    <       0.00000130 Ry
     electrostatic embedding   =      -0.21609014 Ry
     correction to one-el term =     -10.86206257 Ry

     iteration # 21     ecut=    30.00 Ry     beta=0.40
     Davidson diagonalization with overlap
     ethr =  4.34E-09,  avg # of iterations =  2.0

     negative rho (up, down):  5.826E-04 0.000E+00

     add environment contribution to local potential

     total cpu time spent up to now is      412.6 secs

     total energy              =     -83.57040201 Ry
     Harris-Foulkes estimate   =     -72.49221947 Ry
     estimated scf accuracy    <       0.00000040 Ry
     electrostatic embedding   =      -0.21609805 Ry
     correction to one-el term =     -10.86208470 Ry

     iteration # 22     ecut=    30.00 Ry     beta=0.40
     Davidson diagonalization with overlap
     ethr =  1.33E-09,  avg # of iterations =  4.0

     negative rho (up, down):  5.863E-04 0.000E+00

     add environment contribution to local potential

     total cpu time spent up to now is      433.8 secs

     total energy              =     -83.57040224 Ry
     Harris-Foulkes estimate   =     -72.49230809 Ry
     estimated scf accuracy    <       0.00000003 Ry
     electrostatic embedding   =      -0.21612587 Ry
     correction to one-el term =     -10.86196829 Ry

     iteration # 23     ecut=    30.00 Ry     beta=0.40
     Davidson diagonalization with overlap
     ethr =  9.95E-11,  avg # of iterations =  2.0

     negative rho (up, down):  5.883E-04 0.000E+00

     add environment contribution to local potential

     total cpu time spent up to now is      454.9 secs

     total energy              =     -83.57040209 Ry
     Harris-Foulkes estimate   =     -72.49255975 Ry
     estimated scf accuracy    <       0.00000002 Ry
     electrostatic embedding   =      -0.21610644 Ry
     correction to one-el term =     -10.86173590 Ry

     iteration # 24     ecut=    30.00 Ry     beta=0.40
     Davidson diagonalization with overlap
     ethr =  5.28E-11,  avg # of iterations =  3.0

     negative rho (up, down):  5.895E-04 0.000E+00

     total cpu time spent up to now is      461.5 secs

     End of self-consistent calculation

          k = 0.0000 0.0000 0.0000 ( 37387 PWs)   bands (ev):

   -25.3804 -20.8596 -20.0095 -16.6617 -16.5156 -14.5192 -12.8424 -12.2333
   -11.7287 -11.3010 -11.2020  -9.5127  -9.3200  -8.2152  -7.4910

     occupation numbers 
     1.0000   1.0000   1.0000   1.0000   1.0000   1.0000   1.0000   1.0000
     1.0000   1.0000   1.0000   1.0000   1.0000   1.0000   1.0000

     highest occupied level (ev):    -7.4910

!    total energy              =     -83.57040196 Ry
     Harris-Foulkes estimate   =     -72.49264444 Ry
     estimated scf accuracy    <          2.4E-09 Ry

     The total energy is the sum of the following terms:

     one-electron contribution =    -540.88641692 Ry
     hartree contribution      =     272.15221820 Ry
     xc contribution           =     -26.15826875 Ry
     ewald contribution        =     222.39982302 Ry
     electrostatic embedding   =      -0.21609550 Ry
     correction to one-el term =     -10.86166202 Ry

     convergence has been achieved in  24 iterations
     The global environment contribution to forces
     atom    1 type  3   force =    -0.05851154   -0.00000005    0.00002687
     atom    2 type  1   force =    -0.15437489   -0.00000005    0.00006075
     atom    3 type  2   force =    -0.08173561   -0.01046017    0.00002554
     atom    4 type  2   force =    -0.04058613    0.00181557    0.00000671
     atom    5 type  2   force =    -0.02365545    0.00000011    0.00000147
     atom    6 type  2   force =    -0.04058622   -0.00181537    0.00001947
     atom    7 type  2   force =    -0.08173587    0.01046010    0.00003292
     atom    8 type  3   force =    -0.01988062   -0.00404347    0.00000564
     atom    9 type  3   force =    -0.00470242    0.00433891   -0.00000062
     atom   10 type  3   force =     0.00183568    0.00000002   -0.00000424
     atom   11 type  3   force =    -0.00470244   -0.00433882    0.00000517
     atom   12 type  3   force =    -0.01988079    0.00404334    0.00000698
 

     Forces acting on atoms (cartesian axes, Ry/au):

     atom    1 type  3   force =     0.11824747   -0.00000009   -0.00004519
     atom    2 type  1   force =    -0.11227886    0.00000044    0.00005237
     atom    3 type  2   force =    -0.00974812   -0.00486401    0.00000757
     atom    4 type  2   force =     0.00426872    0.00420800   -0.00003930
     atom    5 type  2   force =     0.00641662   -0.00000014   -0.00000225
     atom    6 type  2   force =     0.00426885   -0.00420734    0.00000464
     atom    7 type  2   force =    -0.00974859    0.00486321    0.00002534
     atom    8 type  3   force =     0.00377529   -0.00636724    0.00001217
     atom    9 type  3   force =    -0.00191393   -0.00535419   -0.00000648
     atom   10 type  3   force =    -0.00514850    0.00000004    0.00003107
     atom   11 type  3   force =    -0.00191397    0.00535427   -0.00002029
     atom   12 type  3   force =     0.00377502    0.00636704   -0.00001965
     The Martyna-Tuckerman correction term to forces
     atom    1 type  3   force =    -0.00112818    0.00000000    0.00000015
     atom    2 type  1   force =    -0.00188623    0.00000000   -0.00000000
     atom    3 type  2   force =     0.00012749    0.00294409   -0.00000082
     atom    4 type  2   force =     0.00364126    0.00288476   -0.00000124
     atom    5 type  2   force =     0.00570692    0.00000000   -0.00000137
     atom    6 type  2   force =     0.00364126   -0.00288476   -0.00000027
     atom    7 type  2   force =     0.00012749   -0.00294408    0.00000051
     atom    8 type  3   force =    -0.00033758    0.00132547   -0.00000027
     atom    9 type  3   force =     0.00119273    0.00130028   -0.00000039
     atom   10 type  3   force =     0.00230071   -0.00000000   -0.00000053
     atom   11 type  3   force =     0.00119273   -0.00130028    0.00000006
     atom   12 type  3   force =    -0.00033758   -0.00132547    0.00000041
     The non-local contrib.  to forces
     atom    1 type  3   force =     0.14874108   -0.00000002   -0.00005297
     atom    2 type  1   force =     0.21611448    0.00000050    0.00009904
     atom    3 type  2   force =    -0.07479282   -0.31317904    0.00008046
     atom    4 type  2   force =    -0.09873623   -0.09711961    0.00000819
     atom    5 type  2   force =    -0.11024127   -0.00000009    0.00005573
     atom    6 type  2   force =    -0.09873616    0.09711985    0.00001095
     atom    7 type  2   force =    -0.07479311    0.31317872   -0.00011460
     atom    8 type  3   force =     0.08845224   -0.13021742    0.00003024
     atom    9 type  3   force =    -0.07306155   -0.13462456    0.00004739
     atom   10 type  3   force =    -0.15325021    0.00000003    0.00010096
     atom   11 type  3   force =    -0.07306157    0.13462455   -0.00004408
     atom   12 type  3   force =     0.08845216    0.13021738   -0.00010405
     The ionic contribution  to forces
     atom    1 type  3   force =    -3.67662235    0.00000030    0.00120661
     atom    2 type  1   force =    -9.04849803    0.00000171    0.00169003
     atom    3 type  2   force =    -2.83977690    7.52144298   -0.00133586
     atom    4 type  2   force =     4.02437577    6.36088992   -0.00184150
     atom    5 type  2   force =     7.36794953   -0.00000117   -0.00322235
     atom    6 type  2   force =     4.02437703   -6.36089004    0.00065933
     atom    7 type  2   force =    -2.83977442   -7.52144383    0.00358714
     atom    8 type  3   force =    -1.82448732    2.93050811   -0.00062241
     atom    9 type  3   force =     1.64556719    2.93750987   -0.00103497
     atom   10 type  3   force =     3.34580838   -0.00000047   -0.00200043
     atom   11 type  3   force =     1.64556750   -2.93750962    0.00079776
     atom   12 type  3   force =    -1.82448637   -2.93050776    0.00211666
     The local contribution  to forces
     atom    1 type  3   force =     3.70585771   -0.00000029   -0.00122654
     atom    2 type  1   force =     8.87642428   -0.00000132   -0.00179816
     atom    3 type  2   force =     2.98648452   -7.20564608    0.00123755
     atom    4 type  2   force =    -3.88434961   -6.26425946    0.00178785
     atom    5 type  2   force =    -7.23326812    0.00000091    0.00316356
     atom    6 type  2   force =    -3.88435032    6.26425981   -0.00068555
     atom    7 type  2   force =     2.98648228    7.20564667   -0.00348134
     atom    8 type  3   force =     1.76010939   -2.80394036    0.00059827
     atom    9 type  3   force =    -1.57082686   -2.81387794    0.00098140
     atom   10 type  3   force =    -3.20175804    0.00000046    0.00193459
     atom   11 type  3   force =    -1.57082717    2.81387775   -0.00077993
     atom   12 type  3   force =     1.76010838    2.80393996   -0.00204038
     The core correction contribution to forces
     atom    1 type  3   force =     0.00000000    0.00000000    0.00000000
     atom    2 type  1   force =     0.00000000    0.00000000    0.00000000
     atom    3 type  2   force =     0.00000000    0.00000000    0.00000000
     atom    4 type  2   force =     0.00000000    0.00000000    0.00000000
     atom    5 type  2   force =     0.00000000    0.00000000    0.00000000
     atom    6 type  2   force =     0.00000000    0.00000000    0.00000000
     atom    7 type  2   force =     0.00000000    0.00000000    0.00000000
     atom    8 type  3   force =     0.00000000    0.00000000    0.00000000
     atom    9 type  3   force =     0.00000000    0.00000000    0.00000000
     atom   10 type  3   force =     0.00000000    0.00000000    0.00000000
     atom   11 type  3   force =     0.00000000    0.00000000    0.00000000
     atom   12 type  3   force =     0.00000000    0.00000000    0.00000000
     The Hubbard contrib.    to forces
     atom    1 type  3   force =     0.00000000    0.00000000    0.00000000
     atom    2 type  1   force =     0.00000000    0.00000000    0.00000000
     atom    3 type  2   force =     0.00000000    0.00000000    0.00000000
     atom    4 type  2   force =     0.00000000    0.00000000    0.00000000
     atom    5 type  2   force =     0.00000000    0.00000000    0.00000000
     atom    6 type  2   force =     0.00000000    0.00000000    0.00000000
     atom    7 type  2   force =     0.00000000    0.00000000    0.00000000
     atom    8 type  3   force =     0.00000000    0.00000000    0.00000000
     atom    9 type  3   force =     0.00000000    0.00000000    0.00000000
     atom   10 type  3   force =     0.00000000    0.00000000    0.00000000
     atom   11 type  3   force =     0.00000000    0.00000000    0.00000000
     atom   12 type  3   force =     0.00000000    0.00000000    0.00000000
     The SCF correction term to forces
     atom    1 type  3   force =    -0.00000581   -0.00000001   -0.00000002
     atom    2 type  1   force =     0.00002497   -0.00000039    0.00000000
     atom    3 type  2   force =     0.00002865    0.00003423   -0.00000002
     atom    4 type  2   force =     0.00000709   -0.00000316   -0.00000002
     atom    5 type  2   force =     0.00000846    0.00000012   -0.00000002
     atom    6 type  2   force =     0.00000670    0.00000319   -0.00000002
     atom    7 type  2   force =     0.00002849   -0.00003436   -0.00000000
     atom    8 type  3   force =     0.00000263    0.00000044   -0.00000001
     atom    9 type  3   force =     0.00000041   -0.00000074   -0.00000001
     atom   10 type  3   force =    -0.00000158    0.00000001    0.00000001
     atom   11 type  3   force =     0.00000042    0.00000072   -0.00000000
     atom   12 type  3   force =     0.00000267   -0.00000039    0.00000001

     Total force =     0.164743     Total SCF correction =     0.000070

     Writing output data file pyridine_water_martyna-tuckerman.save
 
     init_run     :     10.38s CPU     10.94s WALL (       1 calls)
     electrons    :    406.36s CPU    450.65s WALL (       1 calls)
     forces       :      3.47s CPU      3.70s WALL (       1 calls)

     Called by init_run:
     wfcinit      :      0.52s CPU      0.52s WALL (       1 calls)
     wfcinit:atom :      0.01s CPU      0.01s WALL (       1 calls)
     wfcinit:wfcr :      0.46s CPU      0.47s WALL (       1 calls)
     potinit      :      3.92s CPU      4.14s WALL (       1 calls)

     Called by electrons:
     c_bands      :     18.81s CPU     18.92s WALL (      24 calls)
     sum_band     :     37.74s CPU     41.53s WALL (      24 calls)
     v_of_rho     :     36.88s CPU     39.23s WALL (      25 calls)
     v_h          :     94.18s CPU    107.64s WALL (     765 calls)
     v_xc         :     33.79s CPU     35.83s WALL (      25 calls)
     newd         :     17.64s CPU     21.08s WALL (      25 calls)
     mix_rho      :      6.16s CPU      6.38s WALL (      24 calls)

     Called by c_bands:
     init_us_2    :      0.67s CPU      0.66s WALL (      49 calls)
     regterg      :     17.38s CPU     17.50s WALL (      24 calls)

     Called by sum_band:
     sum_band:bec :      0.00s CPU      0.00s WALL (      24 calls)
     addusdens    :     26.19s CPU     29.43s WALL (      24 calls)

     Called by *egterg:
     h_psi        :     15.63s CPU     15.65s WALL (      91 calls)
     s_psi        :      0.65s CPU      0.65s WALL (      91 calls)
     g_psi        :      0.12s CPU      0.13s WALL (      66 calls)
     rdiaghg      :      0.05s CPU      0.03s WALL (      90 calls)
     regterg:over :      0.43s CPU      0.42s WALL (      66 calls)
     regterg:upda :      0.38s CPU      0.38s WALL (      66 calls)
     regterg:last :      0.15s CPU      0.16s WALL (      24 calls)

     Called by h_psi:
     h_psi:pot    :     15.51s CPU     15.54s WALL (      91 calls)
     h_psi:calbec :      0.48s CPU      0.47s WALL (      91 calls)
     vloc_psi     :     14.38s CPU     14.42s WALL (      91 calls)
     add_vuspsi   :      0.65s CPU      0.65s WALL (      91 calls)

     General routines
     calbec       :      0.66s CPU      0.65s WALL (     119 calls)
     fft          :    174.41s CPU    185.00s WALL (    2191 calls)
     ffts         :      0.74s CPU      0.73s WALL (      49 calls)
     fftw         :     11.86s CPU     11.83s WALL (    1240 calls)
     interpolate  :      5.43s CPU      6.07s WALL (      49 calls)
     davcio       :      0.00s CPU      0.00s WALL (       1 calls)
 
     Parallel routines
     fft_scatter  :     41.88s CPU     46.51s WALL (    3480 calls)
 
     Environ routines
     calc_eelect  :      0.24s CPU      0.23s WALL (      48 calls)
     calc_velect  :    229.90s CPU    260.69s WALL (      40 calls)
     dielectric   :      4.34s CPU      4.46s WALL (      26 calls)
     calc_felect  :      0.81s CPU      0.85s WALL (       1 calls)
 
     PWSCF        :  7m 0.52s CPU     7m45.63s WALL

 
   This run was terminated on:  15:21:57  29Jan2018            

=------------------------------------------------------------------------------=
   JOB DONE.
=------------------------------------------------------------------------------=
