
     Program PWSCF v.6.1 (svn rev. 13369) starts on 29Jan2018 at 15:21:57 

     This program is part of the open-source Quantum ESPRESSO suite
     for quantum simulation of materials; please cite
         "P. Giannozzi et al., J. Phys.:Condens. Matter 21 395502 (2009);
          URL http://www.quantum-espresso.org", 
     in publications or presentations arising from this work. More details at
     http://www.quantum-espresso.org/quote

     Parallel version (MPI), running on     1 processors
     Waiting for input...
     Reading input from standard input
Warning: card  &IONS ignored
Warning: card    ION_DYNAMICS    = 'BFGS' ignored
Warning: card  / ignored

     Current dimensions of program PWSCF are:
     Max number of different atomic species (ntypx) = 10
     Max number of k-points (npk) =  40000
     Max angular momentum in pseudopotentials (lmaxx) =  3
Warning: card  &BOUNDARY ignored
Warning: card  / ignored
Warning: card  &ELECTROSTATIC ignored
Warning: card    TOL = 1.D-12 ignored
Warning: card  / ignored
               file N.pbe-rrkjus.UPF: wavefunction(s)  2S renormalized
               file C.pbe-rrkjus.UPF: wavefunction(s)  2S 2P renormalized
               file H.pbe-rrkjus.UPF: wavefunction(s)  1S renormalized

     gamma-point specific algorithms are used

     Subspace diagonalization in iterative solution of the eigenvalue problem:
     a serial algorithm will be used

 
     G-vector sticks info
     --------------------
     sticks:   dense  smooth     PW     G-vecs:    dense   smooth      PW
     Sum       21465    8585   2145              2368925   599161   74773
 


     bravais-lattice index     =            1
     lattice parameter (alat)  =      30.0000  a.u.
     unit-cell volume          =   27000.0000 (a.u.)^3
     number of atoms/cell      =           12
     number of atomic types    =            3
     number of electrons       =        30.00
     number of Kohn-Sham states=           15
     kinetic-energy cutoff     =      30.0000  Ry
     charge density cutoff     =     300.0000  Ry
     convergence threshold     =      5.0E-09
     mixing beta               =       0.4000
     number of iterations used =            8  plain     mixing
     Exchange-correlation      =  SLA  PW   PBE  PBE ( 1  4  3  4 0 0)
 

     Environ Module
     ==============

     Plese cite
         O. Andreussi, I. Dabo and N. Marzari, J. Chem. Phys. 136, 064102 (2012)         
     in publications or presentations arising from this work.

     compensation onset threshold      =               0.1000E+00 

     Electrostatic Setup
     -------------------
     electrostatic problem to solve    = poisson                  
     numerical solver adopted          = direct                   
     type of auxiliary density adopted = none                     
     type of core tool for poisson     = fft                      
     type of core tool for s(r) deriv  = analytic                 



     celldm(1)=  30.000000  celldm(2)=   0.000000  celldm(3)=   0.000000
     celldm(4)=   0.000000  celldm(5)=   0.000000  celldm(6)=   0.000000

     crystal axes: (cart. coord. in units of alat)
               a(1) = (   1.000000   0.000000   0.000000 )  
               a(2) = (   0.000000   1.000000   0.000000 )  
               a(3) = (   0.000000   0.000000   1.000000 )  

     reciprocal axes: (cart. coord. in units 2 pi/alat)
               b(1) = (  1.000000  0.000000  0.000000 )  
               b(2) = (  0.000000  1.000000  0.000000 )  
               b(3) = (  0.000000  0.000000  1.000000 )  


     PseudoPot. # 1 for N  read from file:
     /home/fnattino/Programs/qe-6.1/pseudo/N.pbe-rrkjus.UPF
     MD5 check sum: 0c3fbe5807a93f9ba59d5a7019aa238b
     Pseudo is Ultrasoft, Zval =  5.0
     Generated by new atomic code, or converted to UPF format
     Using radial grid of 1257 points,  4 beta functions with: 
                l(1) =   0
                l(2) =   0
                l(3) =   1
                l(4) =   1
     Q(r) pseudized with 0 coefficients 


     PseudoPot. # 2 for C  read from file:
     /home/fnattino/Programs/qe-6.1/pseudo/C.pbe-rrkjus.UPF
     MD5 check sum: 00fb224312de0c5b6853bd333518df6f
     Pseudo is Ultrasoft, Zval =  4.0
     Generated by new atomic code, or converted to UPF format
     Using radial grid of  627 points,  4 beta functions with: 
                l(1) =   0
                l(2) =   0
                l(3) =   1
                l(4) =   1
     Q(r) pseudized with 0 coefficients 


     PseudoPot. # 3 for H  read from file:
     /home/fnattino/Programs/qe-6.1/pseudo/H.pbe-rrkjus.UPF
     MD5 check sum: 7cc9d459525c9a0585f487a71c3c9563
     Pseudo is Ultrasoft, Zval =  1.0
     Generated by new atomic code, or converted to UPF format
     Using radial grid of 1061 points,  2 beta functions with: 
                l(1) =   0
                l(2) =   0
     Q(r) pseudized with 0 coefficients 


     atomic species   valence    mass     pseudopotential
        N              5.00    14.00000     N ( 1.00)
        C              4.00    12.00000     C ( 1.00)
        H              1.00     1.00000     H ( 1.00)

     No symmetry found


                                    s                        frac. trans.

      isym =  1     identity                                     

 cryst.   s( 1) = (     1          0          0      )
                  (     0          1          0      )
                  (     0          0          1      )

 cart.    s( 1) = (  1.0000000  0.0000000  0.0000000 )
                  (  0.0000000  1.0000000  0.0000000 )
                  (  0.0000000  0.0000000  1.0000000 )


     point group C_1 (1)    
     there are  1 classes
     the character table:

       E    
A      1.00

     the symmetry operations in each class and the name of the first element:

     E        1
          identity                                               

   Cartesian axes

     site n.     atom                  positions (alat units)
         1           H   tau(   1) = (  -0.1523532   0.0000000   0.0001258  )
         2           N   tau(   2) = (  -0.0815136   0.0000000   0.0001009  )
         3           C   tau(   3) = (  -0.0411048   0.0749119   0.0000692  )
         4           C   tau(   4) = (   0.0459374   0.0761731   0.0000488  )
         5           C   tau(   5) = (   0.0897978   0.0000000   0.0000440  )
         6           C   tau(   6) = (   0.0459374  -0.0761731   0.0000884  )
         7           C   tau(   7) = (  -0.0411048  -0.0749119   0.0001182  )
         8           H   tau(   8) = (  -0.0804244   0.1312714   0.0000570  )
         9           H   tau(   9) = (   0.0786365   0.1366241   0.0000268  )
        10           H   tau(  10) = (   0.1586195  -0.0000000   0.0000007  )
        11           H   tau(  11) = (   0.0786366  -0.1366241   0.0001069  )
        12           H   tau(  12) = (  -0.0804243  -0.1312713   0.0001627  )

   Crystallographic axes

     site n.     atom                  positions (cryst. coord.)
         1           H   tau(   1) = ( -0.1523532  0.0000000  0.0001258  )
         2           N   tau(   2) = ( -0.0815136  0.0000000  0.0001009  )
         3           C   tau(   3) = ( -0.0411048  0.0749119  0.0000692  )
         4           C   tau(   4) = (  0.0459374  0.0761731  0.0000488  )
         5           C   tau(   5) = (  0.0897978  0.0000000  0.0000440  )
         6           C   tau(   6) = (  0.0459374 -0.0761731  0.0000884  )
         7           C   tau(   7) = ( -0.0411048 -0.0749119  0.0001182  )
         8           H   tau(   8) = ( -0.0804244  0.1312714  0.0000570  )
         9           H   tau(   9) = (  0.0786365  0.1366241  0.0000268  )
        10           H   tau(  10) = (  0.1586195 -0.0000000  0.0000007  )
        11           H   tau(  11) = (  0.0786366 -0.1366241  0.0001069  )
        12           H   tau(  12) = ( -0.0804243 -0.1312713  0.0001627  )

     number of k points=     1
                       cart. coord. in units 2pi/alat
        k(    1) = (   0.0000000   0.0000000   0.0000000), wk =   2.0000000

                       cryst. coord.
        k(    1) = (   0.0000000   0.0000000   0.0000000), wk =   2.0000000

     Dense  grid:  1184463 G-vectors     FFT dimensions: ( 180, 180, 180)

     Smooth grid:   299581 G-vectors     FFT dimensions: ( 108, 108, 108)

     Estimated max dynamical RAM per process >    1015.80MB

     Initial potential from superposition of free atoms
     Check: negative starting charge=   -0.002323

     starting charge   30.42250, renormalised to   30.00000

     negative rho (up, down):  2.291E-03 0.000E+00
     Starting wfc are   30 randomized atomic wfcs

     total cpu time spent up to now is        8.6 secs

     per-process dynamical memory:  1110.9 Mb

     Self-consistent Calculation

     iteration #  1     ecut=    30.00 Ry     beta=0.40
     Davidson diagonalization with overlap
     ethr =  1.00E-02,  avg # of iterations =  2.0

     negative rho (up, down):  1.386E-03 0.000E+00

     total cpu time spent up to now is       14.4 secs

     total energy              =     -83.54656341 Ry
     Harris-Foulkes estimate   =     -84.86523102 Ry
     estimated scf accuracy    <       2.72278105 Ry
     electrostatic embedding   =       0.00180351 Ry
     correction to one-el term =       0.00000000 Ry

     iteration #  2     ecut=    30.00 Ry     beta=0.40
     Davidson diagonalization with overlap
     ethr =  9.08E-03,  avg # of iterations =  1.0

     negative rho (up, down):  1.914E-03 0.000E+00

     total cpu time spent up to now is       19.7 secs

     total energy              =     -83.41702104 Ry
     Harris-Foulkes estimate   =     -83.72410441 Ry
     estimated scf accuracy    <       0.50577489 Ry
     electrostatic embedding   =       0.00180351 Ry
     correction to one-el term =       0.00000000 Ry

     iteration #  3     ecut=    30.00 Ry     beta=0.40
     Davidson diagonalization with overlap
     ethr =  1.69E-03,  avg # of iterations =  2.0

     negative rho (up, down):  1.502E-03 0.000E+00

     add environment contribution to local potential

     total cpu time spent up to now is       25.9 secs

     total energy              =     -83.45059799 Ry
     Harris-Foulkes estimate   =     -83.49852548 Ry
     estimated scf accuracy    <       0.08280634 Ry
     electrostatic embedding   =       0.00180351 Ry
     correction to one-el term =       0.00000000 Ry

     iteration #  4     ecut=    30.00 Ry     beta=0.40
     Davidson diagonalization with overlap
     ethr =  2.76E-04,  avg # of iterations =  4.0

     negative rho (up, down):  1.151E-03 0.000E+00

     add environment contribution to local potential

     total cpu time spent up to now is       32.2 secs

     total energy              =     -83.36097894 Ry
     Harris-Foulkes estimate   =     -89.34404333 Ry
     estimated scf accuracy    <       0.03520048 Ry
     electrostatic embedding   =       0.10457050 Ry
     correction to one-el term =       5.86205811 Ry

     iteration #  5     ecut=    30.00 Ry     beta=0.40
     Davidson diagonalization with overlap
     ethr =  1.17E-04,  avg # of iterations =  3.0

     negative rho (up, down):  7.803E-04 0.000E+00

     add environment contribution to local potential

     total cpu time spent up to now is       38.4 secs

     total energy              =     -83.36495885 Ry
     Harris-Foulkes estimate   =     -89.29748178 Ry
     estimated scf accuracy    <       0.00174001 Ry
     electrostatic embedding   =       0.10343585 Ry
     correction to one-el term =       5.82823938 Ry

     iteration #  6     ecut=    30.00 Ry     beta=0.40
     Davidson diagonalization with overlap
     ethr =  5.80E-06,  avg # of iterations =  3.0

     negative rho (up, down):  6.616E-04 0.000E+00

     add environment contribution to local potential

     total cpu time spent up to now is       44.8 secs

     total energy              =     -83.36564897 Ry
     Harris-Foulkes estimate   =     -89.28814896 Ry
     estimated scf accuracy    <       0.00040502 Ry
     electrostatic embedding   =       0.10313479 Ry
     correction to one-el term =       5.81933401 Ry

     iteration #  7     ecut=    30.00 Ry     beta=0.40
     Davidson diagonalization with overlap
     ethr =  1.35E-06,  avg # of iterations =  3.0

     negative rho (up, down):  5.800E-04 0.000E+00

     add environment contribution to local potential

     total cpu time spent up to now is       51.0 secs

     total energy              =     -83.36573727 Ry
     Harris-Foulkes estimate   =     -89.28342192 Ry
     estimated scf accuracy    <       0.00003012 Ry
     electrostatic embedding   =       0.10296921 Ry
     correction to one-el term =       5.81471751 Ry

     iteration #  8     ecut=    30.00 Ry     beta=0.40
     Davidson diagonalization with overlap
     ethr =  1.00E-07,  avg # of iterations =  4.0

     negative rho (up, down):  6.945E-04 0.000E+00

     add environment contribution to local potential

     total cpu time spent up to now is       57.3 secs

     total energy              =     -83.36574918 Ry
     Harris-Foulkes estimate   =     -89.28212656 Ry
     estimated scf accuracy    <       0.00000602 Ry
     electrostatic embedding   =       0.10292696 Ry
     correction to one-el term =       5.81345313 Ry

     iteration #  9     ecut=    30.00 Ry     beta=0.40
     Davidson diagonalization with overlap
     ethr =  2.01E-08,  avg # of iterations =  3.0

     negative rho (up, down):  6.288E-04 0.000E+00

     add environment contribution to local potential

     total cpu time spent up to now is       63.7 secs

     total energy              =     -83.36575037 Ry
     Harris-Foulkes estimate   =     -89.28141654 Ry
     estimated scf accuracy    <       0.00000013 Ry
     electrostatic embedding   =       0.10290253 Ry
     correction to one-el term =       5.81276358 Ry

     iteration # 10     ecut=    30.00 Ry     beta=0.40
     Davidson diagonalization with overlap
     ethr =  4.26E-10,  avg # of iterations =  2.0

     negative rho (up, down):  6.198E-04 0.000E+00

     add environment contribution to local potential

     total cpu time spent up to now is       70.0 secs

     total energy              =     -83.36575040 Ry
     Harris-Foulkes estimate   =     -89.28147634 Ry
     estimated scf accuracy    <       0.00000006 Ry
     electrostatic embedding   =       0.10290453 Ry
     correction to one-el term =       5.81282140 Ry

     iteration # 11     ecut=    30.00 Ry     beta=0.40
     Davidson diagonalization with overlap
     ethr =  2.07E-10,  avg # of iterations =  3.0

     negative rho (up, down):  6.158E-04 0.000E+00

     add environment contribution to local potential

     total cpu time spent up to now is       76.2 secs

     total energy              =     -83.36575041 Ry
     Harris-Foulkes estimate   =     -89.28144595 Ry
     estimated scf accuracy    <          5.7E-09 Ry
     electrostatic embedding   =       0.10290357 Ry
     correction to one-el term =       5.81279196 Ry

     iteration # 12     ecut=    30.00 Ry     beta=0.40
     Davidson diagonalization with overlap
     ethr =  1.91E-11,  avg # of iterations =  4.0

     negative rho (up, down):  6.116E-04 0.000E+00

     total cpu time spent up to now is       81.5 secs

     End of self-consistent calculation

          k = 0.0000 0.0000 0.0000 ( 37387 PWs)   bands (ev):

   -30.5591 -25.7908 -25.0186 -21.6693 -21.5298 -19.7278 -17.8138 -17.3344
   -16.6696 -16.3007 -16.2756 -14.4257 -14.2816 -13.0953 -12.3864

     occupation numbers 
     1.0000   1.0000   1.0000   1.0000   1.0000   1.0000   1.0000   1.0000
     1.0000   1.0000   1.0000   1.0000   1.0000   1.0000   1.0000

     highest occupied level (ev):   -12.3864

!    total energy              =     -83.36575040 Ry
     Harris-Foulkes estimate   =     -89.28144258 Ry
     estimated scf accuracy    <          3.4E-09 Ry

     The total energy is the sum of the following terms:

     one-electron contribution =    -384.59476147 Ry
     hartree contribution      =     188.47910178 Ry
     xc contribution           =     -26.14602091 Ry
     ewald contribution        =     132.98023803 Ry
     electrostatic embedding   =       0.10290343 Ry
     correction to one-el term =       5.81278874 Ry

     convergence has been achieved in  12 iterations
     The global environment contribution to forces
     atom    1 type  3   force =    -0.00118222    0.00000000    0.00000035
     atom    2 type  1   force =    -0.00261408    0.00000000    0.00000059
     atom    3 type  2   force =    -0.00058670    0.00278925   -0.00000071
     atom    4 type  2   force =     0.00265421    0.00283621   -0.00000147
     atom    5 type  2   force =     0.00428729    0.00000000   -0.00000165
     atom    6 type  2   force =     0.00265421   -0.00283620    0.00000000
     atom    7 type  2   force =    -0.00058670   -0.00278925    0.00000111
     atom    8 type  3   force =    -0.00051268    0.00122193   -0.00000029
     atom    9 type  3   force =     0.00096793    0.00127175   -0.00000057
     atom   10 type  3   force =     0.00171244    0.00000000   -0.00000082
     atom   11 type  3   force =     0.00096793   -0.00127175    0.00000017
     atom   12 type  3   force =    -0.00051268   -0.00122193    0.00000069
 

     Forces acting on atoms (cartesian axes, Ry/au):

     atom    1 type  3   force =     0.12182825   -0.00000023   -0.00005204
     atom    2 type  1   force =    -0.11577669    0.00000070    0.00006773
     atom    3 type  2   force =    -0.00691533    0.00270736    0.00000535
     atom    4 type  2   force =     0.00119484    0.00363447   -0.00003860
     atom    5 type  2   force =     0.00620632   -0.00000029   -0.00000531
     atom    6 type  2   force =     0.00119423   -0.00363430    0.00000576
     atom    7 type  2   force =    -0.00691487   -0.00270824    0.00002659
     atom    8 type  3   force =     0.00323884   -0.00345899    0.00000945
     atom    9 type  3   force =    -0.00164623   -0.00404168   -0.00000825
     atom   10 type  3   force =    -0.00400212   -0.00000014    0.00002816
     atom   11 type  3   force =    -0.00164664    0.00404178   -0.00002072
     atom   12 type  3   force =     0.00323941    0.00345955   -0.00001810
     The non-local contrib.  to forces
     atom    1 type  3   force =     0.14166408   -0.00000003   -0.00005033
     atom    2 type  1   force =    -0.01324304   -0.00000073    0.00020363
     atom    3 type  2   force =    -0.10267885   -0.31295283    0.00008286
     atom    4 type  2   force =    -0.11797100   -0.10268162    0.00001594
     atom    5 type  2   force =    -0.12330959   -0.00000052    0.00006119
     atom    6 type  2   force =    -0.11797144    0.10268162    0.00001907
     atom    7 type  2   force =    -0.10267857    0.31295242   -0.00010365
     atom    8 type  3   force =     0.08645623   -0.12986410    0.00003047
     atom    9 type  3   force =    -0.07361571   -0.13464411    0.00004758
     atom   10 type  3   force =    -0.15366535    0.00000002    0.00010093
     atom   11 type  3   force =    -0.07361573    0.13464406   -0.00004353
     atom   12 type  3   force =     0.08645614    0.12986403   -0.00010269
     The ionic contribution  to forces
     atom    1 type  3   force =    -3.67662235    0.00000030    0.00120661
     atom    2 type  1   force =    -9.04849803    0.00000171    0.00169003
     atom    3 type  2   force =    -2.83977690    7.52144298   -0.00133586
     atom    4 type  2   force =     4.02437577    6.36088992   -0.00184150
     atom    5 type  2   force =     7.36794953   -0.00000117   -0.00322235
     atom    6 type  2   force =     4.02437703   -6.36089004    0.00065933
     atom    7 type  2   force =    -2.83977442   -7.52144383    0.00358714
     atom    8 type  3   force =    -1.82448732    2.93050811   -0.00062241
     atom    9 type  3   force =     1.64556719    2.93750987   -0.00103497
     atom   10 type  3   force =     3.34580838   -0.00000047   -0.00200043
     atom   11 type  3   force =     1.64556750   -2.93750962    0.00079776
     atom   12 type  3   force =    -1.82448637   -2.93050776    0.00211666
     The local contribution  to forces
     atom    1 type  3   force =     3.65798117   -0.00000058   -0.00120709
     atom    2 type  1   force =     8.94863544   -0.00000450   -0.00182488
     atom    3 type  2   force =     2.93618689   -7.20855567    0.00126064
     atom    4 type  2   force =    -3.90781057   -6.25744099    0.00179004
     atom    5 type  2   force =    -7.24271097   -0.00000039    0.00315897
     atom    6 type  2   force =    -3.90781468    6.25743987   -0.00067116
     atom    7 type  2   force =     2.93618600    7.20855452   -0.00345651
     atom    8 type  3   force =     1.74180262   -2.80532137    0.00060319
     atom    9 type  3   force =    -1.57454489   -2.80818115    0.00098113
     atom   10 type  3   force =    -3.19784278    0.00000028    0.00193001
     atom   11 type  3   force =    -1.57454593    2.80818143   -0.00077373
     atom   12 type  3   force =     1.74180270    2.80532213   -0.00203123
     The core correction contribution to forces
     atom    1 type  3   force =     0.00000000    0.00000000    0.00000000
     atom    2 type  1   force =     0.00000000    0.00000000    0.00000000
     atom    3 type  2   force =     0.00000000    0.00000000    0.00000000
     atom    4 type  2   force =     0.00000000    0.00000000    0.00000000
     atom    5 type  2   force =     0.00000000    0.00000000    0.00000000
     atom    6 type  2   force =     0.00000000    0.00000000    0.00000000
     atom    7 type  2   force =     0.00000000    0.00000000    0.00000000
     atom    8 type  3   force =     0.00000000    0.00000000    0.00000000
     atom    9 type  3   force =     0.00000000    0.00000000    0.00000000
     atom   10 type  3   force =     0.00000000    0.00000000    0.00000000
     atom   11 type  3   force =     0.00000000    0.00000000    0.00000000
     atom   12 type  3   force =     0.00000000    0.00000000    0.00000000
     The Hubbard contrib.    to forces
     atom    1 type  3   force =     0.00000000    0.00000000    0.00000000
     atom    2 type  1   force =     0.00000000    0.00000000    0.00000000
     atom    3 type  2   force =     0.00000000    0.00000000    0.00000000
     atom    4 type  2   force =     0.00000000    0.00000000    0.00000000
     atom    5 type  2   force =     0.00000000    0.00000000    0.00000000
     atom    6 type  2   force =     0.00000000    0.00000000    0.00000000
     atom    7 type  2   force =     0.00000000    0.00000000    0.00000000
     atom    8 type  3   force =     0.00000000    0.00000000    0.00000000
     atom    9 type  3   force =     0.00000000    0.00000000    0.00000000
     atom   10 type  3   force =     0.00000000    0.00000000    0.00000000
     atom   11 type  3   force =     0.00000000    0.00000000    0.00000000
     atom   12 type  3   force =     0.00000000    0.00000000    0.00000000
     The SCF correction term to forces
     atom    1 type  3   force =     0.00000661    0.00000017   -0.00000008
     atom    2 type  1   force =    -0.00003794    0.00000431   -0.00000014
     atom    3 type  2   force =    -0.00004074   -0.00001628   -0.00000008
     atom    4 type  2   force =    -0.00003453    0.00003103   -0.00000013
     atom    5 type  2   force =     0.00000910    0.00000188    0.00000002
     atom    6 type  2   force =    -0.00003186   -0.00002947    0.00000000
     atom    7 type  2   force =    -0.00004214    0.00001798   -0.00000002
     atom    8 type  3   force =    -0.00000097   -0.00000348   -0.00000001
     atom    9 type  3   force =    -0.00000171    0.00000205    0.00000007
     atom   10 type  3   force =     0.00000422    0.00000012   -0.00000003
     atom   11 type  3   force =    -0.00000137   -0.00000224    0.00000010
     atom   12 type  3   force =    -0.00000135    0.00000317   -0.00000004

     Total force =     0.168889     Total SCF correction =     0.000099

     Writing output data file pyridine_vacuum_pcc.save
 
     init_run     :      8.03s CPU      8.48s WALL (       1 calls)
     electrons    :     67.63s CPU     73.06s WALL (       1 calls)
     forces       :      3.08s CPU      3.30s WALL (       1 calls)

     Called by init_run:
     wfcinit      :      0.52s CPU      0.53s WALL (       1 calls)
     wfcinit:atom :      0.01s CPU      0.01s WALL (       1 calls)
     wfcinit:wfcr :      0.47s CPU      0.48s WALL (       1 calls)
     potinit      :      2.32s CPU      2.46s WALL (       1 calls)

     Called by electrons:
     c_bands      :      9.92s CPU      9.98s WALL (      12 calls)
     sum_band     :     18.84s CPU     20.69s WALL (      12 calls)
     v_of_rho     :     19.36s CPU     20.54s WALL (      13 calls)
     v_h          :      3.34s CPU      3.75s WALL (      31 calls)
     v_xc         :     17.97s CPU     18.97s WALL (      13 calls)
     newd         :      9.27s CPU     11.05s WALL (      13 calls)
     mix_rho      :      2.77s CPU      2.91s WALL (      12 calls)

     Called by c_bands:
     init_us_2    :      0.32s CPU      0.34s WALL (      25 calls)
     regterg      :      9.22s CPU      9.27s WALL (      12 calls)

     Called by sum_band:
     sum_band:bec :      0.00s CPU      0.00s WALL (      12 calls)
     addusdens    :     13.08s CPU     14.64s WALL (      12 calls)

     Called by *egterg:
     h_psi        :      8.49s CPU      8.49s WALL (      47 calls)
     s_psi        :      0.33s CPU      0.35s WALL (      47 calls)
     g_psi        :      0.07s CPU      0.07s WALL (      34 calls)
     rdiaghg      :      0.03s CPU      0.01s WALL (      46 calls)
     regterg:over :      0.23s CPU      0.23s WALL (      34 calls)
     regterg:upda :      0.19s CPU      0.20s WALL (      34 calls)
     regterg:last :      0.09s CPU      0.09s WALL (      12 calls)

     Called by h_psi:
     h_psi:pot    :      8.44s CPU      8.43s WALL (      47 calls)
     h_psi:calbec :      0.24s CPU      0.25s WALL (      47 calls)
     vloc_psi     :      7.84s CPU      7.84s WALL (      47 calls)
     add_vuspsi   :      0.35s CPU      0.34s WALL (      47 calls)

     General routines
     calbec       :      0.35s CPU      0.35s WALL (      63 calls)
     fft          :     19.37s CPU     20.50s WALL (     243 calls)
     ffts         :      0.38s CPU      0.37s WALL (      25 calls)
     fftw         :      6.33s CPU      6.36s WALL (     662 calls)
     interpolate  :      2.80s CPU      3.10s WALL (      25 calls)
     davcio       :      0.00s CPU      0.00s WALL (       1 calls)
 
     Parallel routines
     fft_scatter  :      5.42s CPU      5.90s WALL (     930 calls)
 
     Environ routines
     calc_eelect  :      0.13s CPU      0.12s WALL (      24 calls)
     calc_velect  :      6.94s CPU      7.47s WALL (      18 calls)
     calc_felect  :      0.70s CPU      0.72s WALL (       1 calls)
 
     PWSCF        :  1m19.02s CPU     1m25.17s WALL

 
   This run was terminated on:  15:23:22  29Jan2018            

=------------------------------------------------------------------------------=
   JOB DONE.
=------------------------------------------------------------------------------=
