
     Program PWSCF v.6.1 (svn rev. 13369) starts on 29Jan2018 at 15:23:22 

     This program is part of the open-source Quantum ESPRESSO suite
     for quantum simulation of materials; please cite
         "P. Giannozzi et al., J. Phys.:Condens. Matter 21 395502 (2009);
          URL http://www.quantum-espresso.org", 
     in publications or presentations arising from this work. More details at
     http://www.quantum-espresso.org/quote

     Parallel version (MPI), running on     1 processors
     Waiting for input...
     Reading input from standard input
Warning: card  &IONS ignored
Warning: card    ION_DYNAMICS    = 'BFGS' ignored
Warning: card  / ignored

     Current dimensions of program PWSCF are:
     Max number of different atomic species (ntypx) = 10
     Max number of k-points (npk) =  40000
     Max angular momentum in pseudopotentials (lmaxx) =  3
               file N.pbe-rrkjus.UPF: wavefunction(s)  2S renormalized
               file C.pbe-rrkjus.UPF: wavefunction(s)  2S 2P renormalized
               file H.pbe-rrkjus.UPF: wavefunction(s)  1S renormalized

     gamma-point specific algorithms are used

     Subspace diagonalization in iterative solution of the eigenvalue problem:
     a serial algorithm will be used

 
     G-vector sticks info
     --------------------
     sticks:   dense  smooth     PW     G-vecs:    dense   smooth      PW
     Sum       21465    8585   2145              2368925   599161   74773
 


     bravais-lattice index     =            1
     lattice parameter (alat)  =      30.0000  a.u.
     unit-cell volume          =   27000.0000 (a.u.)^3
     number of atoms/cell      =           12
     number of atomic types    =            3
     number of electrons       =        30.00
     number of Kohn-Sham states=           15
     kinetic-energy cutoff     =      30.0000  Ry
     charge density cutoff     =     300.0000  Ry
     convergence threshold     =      5.0E-09
     mixing beta               =       0.4000
     number of iterations used =            8  plain     mixing
     Exchange-correlation      =  SLA  PW   PBE  PBE ( 1  4  3  4 0 0)
 

     Environ Module
     ==============

     Plese cite
         O. Andreussi, I. Dabo and N. Marzari, J. Chem. Phys. 136, 064102 (2012)         
     in publications or presentations arising from this work.

     compensation onset threshold      =               0.1000E+00 
     static permittivity               =                    80.00 
     epsilon calculation mode          =               electronic 

     Electrostatic Setup
     -------------------
     electrostatic problem to solve    = generalized              
     numerical solver adopted          = cg                       
     type of auxiliary density adopted = none                     
     type of core tool for poisson     = fft                      
     type of core tool for s(r) deriv  = analytic                 



     celldm(1)=  30.000000  celldm(2)=   0.000000  celldm(3)=   0.000000
     celldm(4)=   0.000000  celldm(5)=   0.000000  celldm(6)=   0.000000

     crystal axes: (cart. coord. in units of alat)
               a(1) = (   1.000000   0.000000   0.000000 )  
               a(2) = (   0.000000   1.000000   0.000000 )  
               a(3) = (   0.000000   0.000000   1.000000 )  

     reciprocal axes: (cart. coord. in units 2 pi/alat)
               b(1) = (  1.000000  0.000000  0.000000 )  
               b(2) = (  0.000000  1.000000  0.000000 )  
               b(3) = (  0.000000  0.000000  1.000000 )  


     PseudoPot. # 1 for N  read from file:
     /home/fnattino/Programs/qe-6.1/pseudo/N.pbe-rrkjus.UPF
     MD5 check sum: 0c3fbe5807a93f9ba59d5a7019aa238b
     Pseudo is Ultrasoft, Zval =  5.0
     Generated by new atomic code, or converted to UPF format
     Using radial grid of 1257 points,  4 beta functions with: 
                l(1) =   0
                l(2) =   0
                l(3) =   1
                l(4) =   1
     Q(r) pseudized with 0 coefficients 


     PseudoPot. # 2 for C  read from file:
     /home/fnattino/Programs/qe-6.1/pseudo/C.pbe-rrkjus.UPF
     MD5 check sum: 00fb224312de0c5b6853bd333518df6f
     Pseudo is Ultrasoft, Zval =  4.0
     Generated by new atomic code, or converted to UPF format
     Using radial grid of  627 points,  4 beta functions with: 
                l(1) =   0
                l(2) =   0
                l(3) =   1
                l(4) =   1
     Q(r) pseudized with 0 coefficients 


     PseudoPot. # 3 for H  read from file:
     /home/fnattino/Programs/qe-6.1/pseudo/H.pbe-rrkjus.UPF
     MD5 check sum: 7cc9d459525c9a0585f487a71c3c9563
     Pseudo is Ultrasoft, Zval =  1.0
     Generated by new atomic code, or converted to UPF format
     Using radial grid of 1061 points,  2 beta functions with: 
                l(1) =   0
                l(2) =   0
     Q(r) pseudized with 0 coefficients 


     atomic species   valence    mass     pseudopotential
        N              5.00    14.00000     N ( 1.00)
        C              4.00    12.00000     C ( 1.00)
        H              1.00     1.00000     H ( 1.00)

     No symmetry found


                                    s                        frac. trans.

      isym =  1     identity                                     

 cryst.   s( 1) = (     1          0          0      )
                  (     0          1          0      )
                  (     0          0          1      )

 cart.    s( 1) = (  1.0000000  0.0000000  0.0000000 )
                  (  0.0000000  1.0000000  0.0000000 )
                  (  0.0000000  0.0000000  1.0000000 )


     point group C_1 (1)    
     there are  1 classes
     the character table:

       E    
A      1.00

     the symmetry operations in each class and the name of the first element:

     E        1
          identity                                               

   Cartesian axes

     site n.     atom                  positions (alat units)
         1           H   tau(   1) = (  -0.1523532   0.0000000   0.0001258  )
         2           N   tau(   2) = (  -0.0815136   0.0000000   0.0001009  )
         3           C   tau(   3) = (  -0.0411048   0.0749119   0.0000692  )
         4           C   tau(   4) = (   0.0459374   0.0761731   0.0000488  )
         5           C   tau(   5) = (   0.0897978   0.0000000   0.0000440  )
         6           C   tau(   6) = (   0.0459374  -0.0761731   0.0000884  )
         7           C   tau(   7) = (  -0.0411048  -0.0749119   0.0001182  )
         8           H   tau(   8) = (  -0.0804244   0.1312714   0.0000570  )
         9           H   tau(   9) = (   0.0786365   0.1366241   0.0000268  )
        10           H   tau(  10) = (   0.1586195  -0.0000000   0.0000007  )
        11           H   tau(  11) = (   0.0786366  -0.1366241   0.0001069  )
        12           H   tau(  12) = (  -0.0804243  -0.1312713   0.0001627  )

   Crystallographic axes

     site n.     atom                  positions (cryst. coord.)
         1           H   tau(   1) = ( -0.1523532  0.0000000  0.0001258  )
         2           N   tau(   2) = ( -0.0815136  0.0000000  0.0001009  )
         3           C   tau(   3) = ( -0.0411048  0.0749119  0.0000692  )
         4           C   tau(   4) = (  0.0459374  0.0761731  0.0000488  )
         5           C   tau(   5) = (  0.0897978  0.0000000  0.0000440  )
         6           C   tau(   6) = (  0.0459374 -0.0761731  0.0000884  )
         7           C   tau(   7) = ( -0.0411048 -0.0749119  0.0001182  )
         8           H   tau(   8) = ( -0.0804244  0.1312714  0.0000570  )
         9           H   tau(   9) = (  0.0786365  0.1366241  0.0000268  )
        10           H   tau(  10) = (  0.1586195 -0.0000000  0.0000007  )
        11           H   tau(  11) = (  0.0786366 -0.1366241  0.0001069  )
        12           H   tau(  12) = ( -0.0804243 -0.1312713  0.0001627  )

     number of k points=     1
                       cart. coord. in units 2pi/alat
        k(    1) = (   0.0000000   0.0000000   0.0000000), wk =   2.0000000

                       cryst. coord.
        k(    1) = (   0.0000000   0.0000000   0.0000000), wk =   2.0000000

     Dense  grid:  1184463 G-vectors     FFT dimensions: ( 180, 180, 180)

     Smooth grid:   299581 G-vectors     FFT dimensions: ( 108, 108, 108)

     Estimated max dynamical RAM per process >    1015.80MB

     Initial potential from superposition of free atoms
     Check: negative starting charge=   -0.002323

     starting charge   30.42250, renormalised to   30.00000

     negative rho (up, down):  2.291E-03 0.000E+00
     Starting wfc are   30 randomized atomic wfcs

     total cpu time spent up to now is       10.4 secs

     per-process dynamical memory:  1976.6 Mb

     Self-consistent Calculation

     iteration #  1     ecut=    30.00 Ry     beta=0.40
     Davidson diagonalization with overlap
     ethr =  1.00E-02,  avg # of iterations =  2.0

     negative rho (up, down):  1.386E-03 0.000E+00

     total cpu time spent up to now is       17.8 secs

     total energy              =     -83.54656341 Ry
     Harris-Foulkes estimate   =     -84.86523102 Ry
     estimated scf accuracy    <       2.72278105 Ry
     electrostatic embedding   =       0.00180351 Ry
     correction to one-el term =       0.00000000 Ry

     iteration #  2     ecut=    30.00 Ry     beta=0.40
     Davidson diagonalization with overlap
     ethr =  9.08E-03,  avg # of iterations =  1.0

     negative rho (up, down):  1.914E-03 0.000E+00

     total cpu time spent up to now is       24.6 secs

     total energy              =     -83.41702104 Ry
     Harris-Foulkes estimate   =     -83.72410441 Ry
     estimated scf accuracy    <       0.50577489 Ry
     electrostatic embedding   =       0.00180351 Ry
     correction to one-el term =       0.00000000 Ry

     iteration #  3     ecut=    30.00 Ry     beta=0.40
     Davidson diagonalization with overlap
     ethr =  1.69E-03,  avg # of iterations =  2.0

     negative rho (up, down):  1.502E-03 0.000E+00

     add environment contribution to local potential

     total cpu time spent up to now is       55.2 secs

     total energy              =     -83.45059799 Ry
     Harris-Foulkes estimate   =     -83.49852548 Ry
     estimated scf accuracy    <       0.08280634 Ry
     electrostatic embedding   =       0.00180351 Ry
     correction to one-el term =       0.00000000 Ry

     iteration #  4     ecut=    30.00 Ry     beta=0.40
     Davidson diagonalization with overlap
     ethr =  2.76E-04,  avg # of iterations =  4.0

     negative rho (up, down):  1.191E-03 0.000E+00

     add environment contribution to local potential

     total cpu time spent up to now is       88.0 secs

     total energy              =     -83.56148201 Ry
     Harris-Foulkes estimate   =     -77.97366881 Ry
     estimated scf accuracy    <       0.05232083 Ry
     electrostatic embedding   =      -0.11024473 Ry
     correction to one-el term =      -5.49927650 Ry

     iteration #  5     ecut=    30.00 Ry     beta=0.40
     Davidson diagonalization with overlap
     ethr =  1.74E-04,  avg # of iterations =  2.0

     negative rho (up, down):  7.897E-04 0.000E+00

     add environment contribution to local potential

     total cpu time spent up to now is      120.6 secs

     total energy              =     -83.56596658 Ry
     Harris-Foulkes estimate   =     -78.21918097 Ry
     estimated scf accuracy    <       0.00859830 Ry
     electrostatic embedding   =      -0.10358829 Ry
     correction to one-el term =      -5.24704897 Ry

     iteration #  6     ecut=    30.00 Ry     beta=0.40
     Davidson diagonalization with overlap
     ethr =  2.87E-05,  avg # of iterations =  3.0

     negative rho (up, down):  6.981E-04 0.000E+00

     add environment contribution to local potential

     total cpu time spent up to now is      153.9 secs

     total energy              =     -83.56929219 Ry
     Harris-Foulkes estimate   =     -78.30051265 Ry
     estimated scf accuracy    <       0.00097580 Ry
     electrostatic embedding   =      -0.10639609 Ry
     correction to one-el term =      -5.16261615 Ry

     iteration #  7     ecut=    30.00 Ry     beta=0.40
     Davidson diagonalization with overlap
     ethr =  3.25E-06,  avg # of iterations =  4.0

     negative rho (up, down):  1.125E-03 0.000E+00

     add environment contribution to local potential

     total cpu time spent up to now is      187.3 secs

     total energy              =     -83.56976152 Ry
     Harris-Foulkes estimate   =     -78.38286943 Ry
     estimated scf accuracy    <       0.00081965 Ry
     electrostatic embedding   =      -0.10583860 Ry
     correction to one-el term =      -5.08135786 Ry

     iteration #  8     ecut=    30.00 Ry     beta=0.40
     Davidson diagonalization with overlap
     ethr =  2.73E-06,  avg # of iterations =  2.0

     negative rho (up, down):  1.161E-03 0.000E+00

     add environment contribution to local potential

     total cpu time spent up to now is      220.5 secs

     total energy              =     -83.57007571 Ry
     Harris-Foulkes estimate   =     -78.41338070 Ry
     estimated scf accuracy    <       0.00029328 Ry
     electrostatic embedding   =      -0.10841656 Ry
     correction to one-el term =      -5.04843738 Ry

     iteration #  9     ecut=    30.00 Ry     beta=0.40
     Davidson diagonalization with overlap
     ethr =  9.78E-07,  avg # of iterations =  3.0

     negative rho (up, down):  7.695E-04 0.000E+00

     add environment contribution to local potential

     total cpu time spent up to now is      254.0 secs

     total energy              =     -83.57029247 Ry
     Harris-Foulkes estimate   =     -78.41306835 Ry
     estimated scf accuracy    <       0.00002885 Ry
     electrostatic embedding   =      -0.11059275 Ry
     correction to one-el term =      -5.04664275 Ry

     iteration # 10     ecut=    30.00 Ry     beta=0.40
     Davidson diagonalization with overlap
     ethr =  9.62E-08,  avg # of iterations =  3.0

     negative rho (up, down):  7.119E-04 0.000E+00

     add environment contribution to local potential

     total cpu time spent up to now is      287.5 secs

     total energy              =     -83.57032728 Ry
     Harris-Foulkes estimate   =     -78.40674626 Ry
     estimated scf accuracy    <       0.00000601 Ry
     electrostatic embedding   =      -0.11148255 Ry
     correction to one-el term =      -5.05210064 Ry

     iteration # 11     ecut=    30.00 Ry     beta=0.40
     Davidson diagonalization with overlap
     ethr =  2.00E-08,  avg # of iterations =  4.0

     negative rho (up, down):  6.192E-04 0.000E+00

     add environment contribution to local potential

     total cpu time spent up to now is      321.0 secs

     total energy              =     -83.57037289 Ry
     Harris-Foulkes estimate   =     -78.40314438 Ry
     estimated scf accuracy    <       0.00000083 Ry
     electrostatic embedding   =      -0.11260224 Ry
     correction to one-el term =      -5.05462604 Ry

     iteration # 12     ecut=    30.00 Ry     beta=0.40
     Davidson diagonalization with overlap
     ethr =  2.77E-09,  avg # of iterations =  4.0

     negative rho (up, down):  5.849E-04 0.000E+00

     add environment contribution to local potential

     total cpu time spent up to now is      354.6 secs

     total energy              =     -83.57038964 Ry
     Harris-Foulkes estimate   =     -78.39948499 Ry
     estimated scf accuracy    <       0.00000023 Ry
     electrostatic embedding   =      -0.11315900 Ry
     correction to one-el term =      -5.05774566 Ry

     iteration # 13     ecut=    30.00 Ry     beta=0.40
     Davidson diagonalization with overlap
     ethr =  7.78E-10,  avg # of iterations =  3.0

     negative rho (up, down):  5.865E-04 0.000E+00

     add environment contribution to local potential

     total cpu time spent up to now is      388.0 secs

     total energy              =     -83.57039168 Ry
     Harris-Foulkes estimate   =     -78.39853419 Ry
     estimated scf accuracy    <       0.00000008 Ry
     electrostatic embedding   =      -0.11318640 Ry
     correction to one-el term =      -5.05867112 Ry

     iteration # 14     ecut=    30.00 Ry     beta=0.40
     Davidson diagonalization with overlap
     ethr =  2.53E-10,  avg # of iterations =  3.0

     negative rho (up, down):  5.870E-04 0.000E+00

     add environment contribution to local potential

     total cpu time spent up to now is      421.5 secs

     total energy              =     -83.57039423 Ry
     Harris-Foulkes estimate   =     -78.39845994 Ry
     estimated scf accuracy    <       0.00000006 Ry
     electrostatic embedding   =      -0.11324730 Ry
     correction to one-el term =      -5.05868701 Ry

     iteration # 15     ecut=    30.00 Ry     beta=0.40
     Davidson diagonalization with overlap
     ethr =  2.04E-10,  avg # of iterations =  3.0

     negative rho (up, down):  5.878E-04 0.000E+00

     add environment contribution to local potential

     total cpu time spent up to now is      455.0 secs

     total energy              =     -83.57039620 Ry
     Harris-Foulkes estimate   =     -78.39832492 Ry
     estimated scf accuracy    <          7.2E-09 Ry
     electrostatic embedding   =      -0.11329086 Ry
     correction to one-el term =      -5.05878043 Ry

     iteration # 16     ecut=    30.00 Ry     beta=0.40
     Davidson diagonalization with overlap
     ethr =  2.39E-11,  avg # of iterations =  3.0

     negative rho (up, down):  5.895E-04 0.000E+00

     total cpu time spent up to now is      461.8 secs

     End of self-consistent calculation

          k = 0.0000 0.0000 0.0000 ( 37387 PWs)   bands (ev):

   -25.3559 -20.8352 -19.9850 -16.6372 -16.4912 -14.4948 -12.8180 -12.2090
   -11.7043 -11.2766 -11.1775  -9.4883  -9.2957  -8.1907  -7.4666

     occupation numbers 
     1.0000   1.0000   1.0000   1.0000   1.0000   1.0000   1.0000   1.0000
     1.0000   1.0000   1.0000   1.0000   1.0000   1.0000   1.0000

     highest occupied level (ev):    -7.4666

!    total energy              =     -83.57039690 Ry
     Harris-Foulkes estimate   =     -78.39834487 Ry
     estimated scf accuracy    <          1.3E-09 Ry

     The total energy is the sum of the following terms:

     one-electron contribution =    -373.91235544 Ry
     hartree contribution      =     188.69200728 Ry
     xc contribution           =     -26.15823474 Ry
     ewald contribution        =     132.98023803 Ry
     electrostatic embedding   =      -0.11330085 Ry
     correction to one-el term =      -5.05875118 Ry

     convergence has been achieved in  16 iterations
     The global environment contribution to forces
     atom    1 type  3   force =    -0.05956906   -0.00000007    0.00002704
     atom    2 type  1   force =    -0.15620738   -0.00000011    0.00006070
     atom    3 type  2   force =    -0.08159658   -0.00751496    0.00002467
     atom    4 type  2   force =    -0.03694896    0.00469841    0.00000541
     atom    5 type  2   force =    -0.01797006    0.00000011    0.00000004
     atom    6 type  2   force =    -0.03694908   -0.00469824    0.00001918
     atom    7 type  2   force =    -0.08159687    0.00751484    0.00003342
     atom    8 type  3   force =    -0.02021845   -0.00271868    0.00000535
     atom    9 type  3   force =    -0.00351124    0.00563841   -0.00000103
     atom   10 type  3   force =     0.00412150    0.00000002   -0.00000479
     atom   11 type  3   force =    -0.00351127   -0.00563834    0.00000522
     atom   12 type  3   force =    -0.02021862    0.00271855    0.00000740
 

     Forces acting on atoms (cartesian axes, Ry/au):

     atom    1 type  3   force =     0.11824014   -0.00000010   -0.00004523
     atom    2 type  1   force =    -0.11228657    0.00000034    0.00005236
     atom    3 type  2   force =    -0.00974796   -0.00485752    0.00000756
     atom    4 type  2   force =     0.00427396    0.00419908   -0.00003929
     atom    5 type  2   force =     0.00641341   -0.00000010   -0.00000223
     atom    6 type  2   force =     0.00427400   -0.00419845    0.00000465
     atom    7 type  2   force =    -0.00974845    0.00485671    0.00002534
     atom    8 type  3   force =     0.00377984   -0.00636717    0.00001219
     atom    9 type  3   force =    -0.00191173   -0.00535685   -0.00000652
     atom   10 type  3   force =    -0.00515449    0.00000003    0.00003111
     atom   11 type  3   force =    -0.00191178    0.00535693   -0.00002030
     atom   12 type  3   force =     0.00377964    0.00636709   -0.00001963
     The non-local contrib.  to forces
     atom    1 type  3   force =     0.14873292   -0.00000002   -0.00005298
     atom    2 type  1   force =     0.21596685    0.00000028    0.00009909
     atom    3 type  2   force =    -0.07479110   -0.31317913    0.00008047
     atom    4 type  2   force =    -0.09873424   -0.09712834    0.00000820
     atom    5 type  2   force =    -0.11022673   -0.00000006    0.00005574
     atom    6 type  2   force =    -0.09873426    0.09712860    0.00001096
     atom    7 type  2   force =    -0.07479134    0.31317877   -0.00011463
     atom    8 type  3   force =     0.08845290   -0.13021756    0.00003024
     atom    9 type  3   force =    -0.07306145   -0.13462454    0.00004739
     atom   10 type  3   force =    -0.15324785    0.00000003    0.00010096
     atom   11 type  3   force =    -0.07306147    0.13462453   -0.00004407
     atom   12 type  3   force =     0.08845282    0.13021751   -0.00010405
     The ionic contribution  to forces
     atom    1 type  3   force =    -3.67662235    0.00000030    0.00120661
     atom    2 type  1   force =    -9.04849803    0.00000171    0.00169003
     atom    3 type  2   force =    -2.83977690    7.52144298   -0.00133586
     atom    4 type  2   force =     4.02437577    6.36088992   -0.00184150
     atom    5 type  2   force =     7.36794953   -0.00000117   -0.00322235
     atom    6 type  2   force =     4.02437703   -6.36089004    0.00065933
     atom    7 type  2   force =    -2.83977442   -7.52144383    0.00358714
     atom    8 type  3   force =    -1.82448732    2.93050811   -0.00062241
     atom    9 type  3   force =     1.64556719    2.93750987   -0.00103497
     atom   10 type  3   force =     3.34580838   -0.00000047   -0.00200043
     atom   11 type  3   force =     1.64556750   -2.93750962    0.00079776
     atom   12 type  3   force =    -1.82448637   -2.93050776    0.00211666
     The local contribution  to forces
     atom    1 type  3   force =     3.70577395   -0.00000032   -0.00122654
     atom    2 type  1   force =     8.87653712   -0.00000168   -0.00179818
     atom    3 type  2   force =     2.98651513   -7.20559288    0.00123755
     atom    4 type  2   force =    -3.88431715   -6.26427705    0.00178785
     atom    5 type  2   force =    -7.23325820    0.00000096    0.00316360
     atom    6 type  2   force =    -3.88431830    6.26427739   -0.00068556
     atom    7 type  2   force =     2.98651274    7.20559339   -0.00348132
     atom    8 type  3   force =     1.76011285   -2.80393712    0.00059828
     atom    9 type  3   force =    -1.57082433   -2.81388165    0.00098141
     atom   10 type  3   force =    -3.20175833    0.00000047    0.00193461
     atom   11 type  3   force =    -1.57082466    2.81388145   -0.00077993
     atom   12 type  3   force =     1.76011196    2.80393689   -0.00204038
     The core correction contribution to forces
     atom    1 type  3   force =     0.00000000    0.00000000    0.00000000
     atom    2 type  1   force =     0.00000000    0.00000000    0.00000000
     atom    3 type  2   force =     0.00000000    0.00000000    0.00000000
     atom    4 type  2   force =     0.00000000    0.00000000    0.00000000
     atom    5 type  2   force =     0.00000000    0.00000000    0.00000000
     atom    6 type  2   force =     0.00000000    0.00000000    0.00000000
     atom    7 type  2   force =     0.00000000    0.00000000    0.00000000
     atom    8 type  3   force =     0.00000000    0.00000000    0.00000000
     atom    9 type  3   force =     0.00000000    0.00000000    0.00000000
     atom   10 type  3   force =     0.00000000    0.00000000    0.00000000
     atom   11 type  3   force =     0.00000000    0.00000000    0.00000000
     atom   12 type  3   force =     0.00000000    0.00000000    0.00000000
     The Hubbard contrib.    to forces
     atom    1 type  3   force =     0.00000000    0.00000000    0.00000000
     atom    2 type  1   force =     0.00000000    0.00000000    0.00000000
     atom    3 type  2   force =     0.00000000    0.00000000    0.00000000
     atom    4 type  2   force =     0.00000000    0.00000000    0.00000000
     atom    5 type  2   force =     0.00000000    0.00000000    0.00000000
     atom    6 type  2   force =     0.00000000    0.00000000    0.00000000
     atom    7 type  2   force =     0.00000000    0.00000000    0.00000000
     atom    8 type  3   force =     0.00000000    0.00000000    0.00000000
     atom    9 type  3   force =     0.00000000    0.00000000    0.00000000
     atom   10 type  3   force =     0.00000000    0.00000000    0.00000000
     atom   11 type  3   force =     0.00000000    0.00000000    0.00000000
     atom   12 type  3   force =     0.00000000    0.00000000    0.00000000
     The SCF correction term to forces
     atom    1 type  3   force =     0.00000547    0.00000004   -0.00000009
     atom    2 type  1   force =    -0.00000436    0.00000016   -0.00000000
     atom    3 type  2   force =    -0.00001774   -0.00001351    0.00000001
     atom    4 type  2   force =    -0.00002070    0.00001616    0.00000002
     atom    5 type  2   force =    -0.00000036    0.00000008    0.00000001
     atom    6 type  2   force =    -0.00002062   -0.00001614    0.00000002
     atom    7 type  2   force =    -0.00001778    0.00001357   -0.00000002
     atom    8 type  3   force =     0.00000063   -0.00000189    0.00000001
     atom    9 type  3   force =    -0.00000113    0.00000108   -0.00000006
     atom   10 type  3   force =     0.00000258    0.00000001    0.00000004
     atom   11 type  3   force =    -0.00000111   -0.00000106   -0.00000001
     atom   12 type  3   force =     0.00000063    0.00000192    0.00000002

     Total force =     0.164743     Total SCF correction =     0.000049

     Writing output data file pyridine_water_pcc.save
 
     init_run     :      9.74s CPU     10.32s WALL (       1 calls)
     electrons    :    423.12s CPU    451.60s WALL (       1 calls)
     forces       :      3.15s CPU      3.37s WALL (       1 calls)

     Called by init_run:
     wfcinit      :      0.52s CPU      0.53s WALL (       1 calls)
     wfcinit:atom :      0.00s CPU      0.01s WALL (       1 calls)
     wfcinit:wfcr :      0.47s CPU      0.47s WALL (       1 calls)
     potinit      :      3.95s CPU      4.15s WALL (       1 calls)

     Called by electrons:
     c_bands      :     13.69s CPU     13.76s WALL (      16 calls)
     sum_band     :     25.27s CPU     27.71s WALL (      16 calls)
     v_of_rho     :     25.14s CPU     26.70s WALL (      17 calls)
     v_h          :     54.59s CPU     60.96s WALL (     505 calls)
     v_xc         :     23.31s CPU     24.65s WALL (      17 calls)
     newd         :     12.08s CPU     14.36s WALL (      17 calls)
     mix_rho      :      3.90s CPU      4.07s WALL (      16 calls)

     Called by c_bands:
     init_us_2    :      0.44s CPU      0.45s WALL (      33 calls)
     regterg      :     12.75s CPU     12.81s WALL (      16 calls)

     Called by sum_band:
     sum_band:bec :      0.00s CPU      0.00s WALL (      16 calls)
     addusdens    :     17.54s CPU     19.64s WALL (      16 calls)

     Called by *egterg:
     h_psi        :     11.50s CPU     11.53s WALL (      63 calls)
     s_psi        :      0.51s CPU      0.49s WALL (      63 calls)
     g_psi        :      0.12s CPU      0.10s WALL (      46 calls)
     rdiaghg      :      0.02s CPU      0.02s WALL (      62 calls)
     regterg:over :      0.31s CPU      0.33s WALL (      46 calls)
     regterg:upda :      0.30s CPU      0.32s WALL (      46 calls)
     regterg:last :      0.12s CPU      0.12s WALL (      16 calls)

     Called by h_psi:
     h_psi:pot    :     11.41s CPU     11.44s WALL (      63 calls)
     h_psi:calbec :      0.35s CPU      0.34s WALL (      63 calls)
     vloc_psi     :     10.60s CPU     10.62s WALL (      63 calls)
     add_vuspsi   :      0.46s CPU      0.48s WALL (      63 calls)

     General routines
     calbec       :      0.49s CPU      0.47s WALL (      83 calls)
     fft          :    115.54s CPU    122.92s WALL (    1453 calls)
     ffts         :      0.50s CPU      0.49s WALL (      33 calls)
     fftw         :      8.51s CPU      8.59s WALL (     898 calls)
     interpolate  :      3.64s CPU      4.09s WALL (      33 calls)
     davcio       :      0.00s CPU      0.00s WALL (       1 calls)
 
     Parallel routines
     fft_scatter  :     27.78s CPU     30.96s WALL (    2384 calls)
 
     Environ routines
     calc_eelect  :      0.15s CPU      0.16s WALL (      32 calls)
     calc_velect  :    304.56s CPU    324.22s WALL (      26 calls)
     dielectric   :      2.97s CPU      3.03s WALL (      18 calls)
     calc_felect  :      0.72s CPU      0.75s WALL (       1 calls)
 
     PWSCF        :  7m16.31s CPU     7m45.63s WALL

 
   This run was terminated on:  15:31: 8  29Jan2018            

=------------------------------------------------------------------------------=
   JOB DONE.
=------------------------------------------------------------------------------=
