
     Program PWSCF v.6.7MaX starts on 25Sep2021 at 15: 8:13 

     This program is part of the open-source Quantum ESPRESSO suite
     for quantum simulation of materials; please cite
         "P. Giannozzi et al., J. Phys.:Condens. Matter 21 395502 (2009);
         "P. Giannozzi et al., J. Phys.:Condens. Matter 29 465901 (2017);
          URL http://www.quantum-espresso.org", 
     in publications or presentations arising from this work. More details at
     http://www.quantum-espresso.org/quote

     Parallel version (MPI), running on     1 processors

     MPI processes distributed on     1 nodes
     Waiting for input...
     Reading input from standard input

     Current dimensions of program PWSCF are:
     Max number of different atomic species (ntypx) = 10
     Max number of k-points (npk) =  40000
     Max angular momentum in pseudopotentials (lmaxx) =  3

     Reading input from environ.in

     ================================================================================

     Reading ENVIRON namelist

     Reading BOUNDARY namelist

     Checking boundary derivatives
     derivatives               = chain          ! SCCS default

     Reading ELECTROSTATIC namelist

     Setting up electrostatic problem
     problem                   = generalized    
     solver                    = cg             

     Checking PBC correction
     pbc_correction            = none           ! default

     ================================================================================
 
     file N.pbe-rrkjus.UPF: wavefunction(s)  2S renormalized
     file C.pbe-rrkjus.UPF: wavefunction(s)  2S 2P renormalized
     file H.pbe-rrkjus.UPF: wavefunction(s)  1S renormalized

     gamma-point specific algorithms are used

     Subspace diagonalization in iterative solution of the eigenvalue problem:
     a serial algorithm will be used

 
     G-vector sticks info
     --------------------
     sticks:   dense  smooth     PW     G-vecs:    dense   smooth      PW
     Sum       21465    8585   2145              2368925   599161   74773
 


     bravais-lattice index     =            1
     lattice parameter (alat)  =      30.0000  a.u.
     unit-cell volume          =   27000.0000 (a.u.)^3
     number of atoms/cell      =           12
     number of atomic types    =            3
     number of electrons       =        30.00
     number of Kohn-Sham states=           15
     kinetic-energy cutoff     =      30.0000  Ry
     charge density cutoff     =     300.0000  Ry
     scf convergence threshold =      5.0E-09
     mixing beta               =       0.4000
     number of iterations used =            8  plain     mixing
     Exchange-correlation= SLA  PW   PBE  PBE
                           (   1   4   3   4   0   0   0)
 

     Environ Module
     ==============

     Please cite
         O. Andreussi, I. Dabo and N. Marzari, J. Chem. Phys. 136, 064102 (2012)         
     in publications or presentations arising from this work.

     compensation onset threshold      =               0.1000E+00
     static permittivity               =                    80.00
     epsilon calculation mode          =               electronic

     Electrostatic Setup
     -------------------
     electrostatic problem to solve    = generalized             
     numerical solver adopted          = cg                      
     type of auxiliary density adopted = none                    
     type of core tool for poisson     = fft                     


     Assuming isolated system, Martyna-Tuckerman method


     celldm(1)=  30.000000  celldm(2)=   0.000000  celldm(3)=   0.000000
     celldm(4)=   0.000000  celldm(5)=   0.000000  celldm(6)=   0.000000

     crystal axes: (cart. coord. in units of alat)
               a(1) = (   1.000000   0.000000   0.000000 )  
               a(2) = (   0.000000   1.000000   0.000000 )  
               a(3) = (   0.000000   0.000000   1.000000 )  

     reciprocal axes: (cart. coord. in units 2 pi/alat)
               b(1) = (  1.000000  0.000000  0.000000 )  
               b(2) = (  0.000000  1.000000  0.000000 )  
               b(3) = (  0.000000  0.000000  1.000000 )  


     PseudoPot. # 1 for N  read from file:
     /home/simplogic86/Work/QE1/pseudo/N.pbe-rrkjus.UPF
     MD5 check sum: 28c76d763763edb36c62a6ca2be9aebd
     Pseudo is Ultrasoft, Zval =  5.0
     Generated by new atomic code, or converted to UPF format
     Using radial grid of 1257 points,  4 beta functions with: 
                l(1) =   0
                l(2) =   0
                l(3) =   1
                l(4) =   1
     Q(r) pseudized with 0 coefficients 


     PseudoPot. # 2 for C  read from file:
     /home/simplogic86/Work/QE1/pseudo/C.pbe-rrkjus.UPF
     MD5 check sum: c9ac5a99bc85b198593446162950cd17
     Pseudo is Ultrasoft, Zval =  4.0
     Generated by new atomic code, or converted to UPF format
     Using radial grid of  627 points,  4 beta functions with: 
                l(1) =   0
                l(2) =   0
                l(3) =   1
                l(4) =   1
     Q(r) pseudized with 0 coefficients 


     PseudoPot. # 3 for H  read from file:
     /home/simplogic86/Work/QE1/pseudo/H.pbe-rrkjus.UPF
     MD5 check sum: 2d52a7f45632fd764c17cc6affed14c8
     Pseudo is Ultrasoft, Zval =  1.0
     Generated by new atomic code, or converted to UPF format
     Using radial grid of 1061 points,  2 beta functions with: 
                l(1) =   0
                l(2) =   0
     Q(r) pseudized with 0 coefficients 


     atomic species   valence    mass     pseudopotential
        N              5.00    14.00000     N ( 1.00)
        C              4.00    12.00000     C ( 1.00)
        H              1.00     1.00000     H ( 1.00)

     No symmetry found


                                    s                        frac. trans.

      isym =  1     identity                                     

 cryst.   s( 1) = (     1          0          0      )
                  (     0          1          0      )
                  (     0          0          1      )

 cart.    s( 1) = (  1.0000000  0.0000000  0.0000000 )
                  (  0.0000000  1.0000000  0.0000000 )
                  (  0.0000000  0.0000000  1.0000000 )


     point group C_1 (1)    
     there are  1 classes
     the character table:

       E    
A      1.00

     the symmetry operations in each class and the name of the first element:

     E        1
          identity                                               

   Cartesian axes

     site n.     atom                  positions (alat units)
         1           H   tau(   1) = (  -0.1523532   0.0000000   0.0001258  )
         2           N   tau(   2) = (  -0.0815136   0.0000000   0.0001009  )
         3           C   tau(   3) = (  -0.0411048   0.0749119   0.0000692  )
         4           C   tau(   4) = (   0.0459374   0.0761731   0.0000488  )
         5           C   tau(   5) = (   0.0897978   0.0000000   0.0000440  )
         6           C   tau(   6) = (   0.0459374  -0.0761731   0.0000884  )
         7           C   tau(   7) = (  -0.0411048  -0.0749119   0.0001182  )
         8           H   tau(   8) = (  -0.0804244   0.1312714   0.0000570  )
         9           H   tau(   9) = (   0.0786365   0.1366241   0.0000268  )
        10           H   tau(  10) = (   0.1586195  -0.0000000   0.0000007  )
        11           H   tau(  11) = (   0.0786366  -0.1366241   0.0001069  )
        12           H   tau(  12) = (  -0.0804243  -0.1312713   0.0001627  )

   Crystallographic axes

     site n.     atom                  positions (cryst. coord.)
         1           H   tau(   1) = ( -0.1523532  0.0000000  0.0001258  )
         2           N   tau(   2) = ( -0.0815136  0.0000000  0.0001009  )
         3           C   tau(   3) = ( -0.0411048  0.0749119  0.0000692  )
         4           C   tau(   4) = (  0.0459374  0.0761731  0.0000488  )
         5           C   tau(   5) = (  0.0897978  0.0000000  0.0000440  )
         6           C   tau(   6) = (  0.0459374 -0.0761731  0.0000884  )
         7           C   tau(   7) = ( -0.0411048 -0.0749119  0.0001182  )
         8           H   tau(   8) = ( -0.0804244  0.1312714  0.0000570  )
         9           H   tau(   9) = (  0.0786365  0.1366241  0.0000268  )
        10           H   tau(  10) = (  0.1586195 -0.0000000  0.0000007  )
        11           H   tau(  11) = (  0.0786366 -0.1366241  0.0001069  )
        12           H   tau(  12) = ( -0.0804243 -0.1312713  0.0001627  )

     number of k points=     1
                       cart. coord. in units 2pi/alat
        k(    1) = (   0.0000000   0.0000000   0.0000000), wk =   2.0000000

                       cryst. coord.
        k(    1) = (   0.0000000   0.0000000   0.0000000), wk =   2.0000000

     Dense  grid:  1184463 G-vectors     FFT dimensions: ( 180, 180, 180)

     Smooth grid:   299581 G-vectors     FFT dimensions: ( 108, 108, 108)

     Dynamical RAM for                 wfc:       8.57 MB

     Dynamical RAM for     wfc (w. buffer):       8.57 MB

     Dynamical RAM for           str. fact:      54.22 MB

     Dynamical RAM for           local pot:       0.00 MB

     Dynamical RAM for          nlocal pot:      34.30 MB

     Dynamical RAM for                qrad:       1.19 MB

     Dynamical RAM for          rho,v,vnew:     187.70 MB

     Dynamical RAM for               rhoin:      62.57 MB

     Dynamical RAM for            rho*nmix:     289.18 MB

     Dynamical RAM for           G-vectors:      70.06 MB

     Dynamical RAM for          h,s,v(r/c):       0.02 MB

     Dynamical RAM for          <psi|beta>:       0.01 MB

     Dynamical RAM for                 psi:      17.15 MB

     Dynamical RAM for                hpsi:      17.15 MB

     Dynamical RAM for                spsi:      17.15 MB

     Dynamical RAM for      wfcinit/wfcrot:      34.32 MB

     Dynamical RAM for           addusdens:     885.60 MB

     Dynamical RAM for          addusforce:    1075.38 MB

     Estimated static dynamical RAM per process >    1002.56 MB

     Estimated max dynamical RAM per process >       2.03 GB

     Initial potential from superposition of free atoms

     starting charge   30.42250, renormalised to   30.00000

     negative rho (up, down):  2.291E-03 0.000E+00
     Starting wfcs are   30 randomized atomic wfcs

     total cpu time spent up to now is       22.9 secs

     Self-consistent Calculation

     iteration #  1     ecut=    30.00 Ry     beta= 0.40
     Davidson diagonalization with overlap
     ethr =  1.00E-02,  avg # of iterations =  2.0

     negative rho (up, down):  1.182E-03 0.000E+00

     total cpu time spent up to now is       32.2 secs

     total energy              =     -83.53625655 Ry
     estimated scf accuracy    <       2.44773044 Ry
     electrostatic embedding   =       0.00000000 Ry
     correction to one-el term =       0.00000000 Ry

     iteration #  2     ecut=    30.00 Ry     beta= 0.40
     Davidson diagonalization with overlap
     ethr =  8.16E-03,  avg # of iterations =  1.0

     negative rho (up, down):  2.872E-03 0.000E+00

     total cpu time spent up to now is       40.7 secs

     total energy              =     -83.21949748 Ry
     estimated scf accuracy    <       0.62511969 Ry
     electrostatic embedding   =       0.00000000 Ry
     correction to one-el term =       0.00000000 Ry

     iteration #  3     ecut=    30.00 Ry     beta= 0.40
     Davidson diagonalization with overlap
     ethr =  2.08E-03,  avg # of iterations =  4.0

     negative rho (up, down):  9.650E-04 0.000E+00

     total cpu time spent up to now is       49.5 secs

     total energy              =     -83.34836902 Ry
     estimated scf accuracy    <       0.10167941 Ry
     electrostatic embedding   =       0.00000000 Ry
     correction to one-el term =       0.00000000 Ry

     iteration #  4     ecut=    30.00 Ry     beta= 0.40
     Davidson diagonalization with overlap
     ethr =  3.39E-04,  avg # of iterations =  4.0

     negative rho (up, down):  1.137E-03 0.000E+00

     add environment contribution to local potential

     total cpu time spent up to now is       75.2 secs

     total energy              =     -83.37142387 Ry
     estimated scf accuracy    <       0.04055721 Ry
     electrostatic embedding   =       0.00000000 Ry
     correction to one-el term =       0.00000000 Ry

     iteration #  5     ecut=    30.00 Ry     beta= 0.40
     Davidson diagonalization with overlap
     ethr =  1.35E-04,  avg # of iterations =  2.0

     negative rho (up, down):  6.517E-04 0.000E+00

     add environment contribution to local potential

     total cpu time spent up to now is       99.4 secs

     total energy              =     -83.56174648 Ry
     estimated scf accuracy    <       0.03040512 Ry
     electrostatic embedding   =      -0.20583197 Ry
     correction to one-el term =     -11.10226928 Ry

     iteration #  6     ecut=    30.00 Ry     beta= 0.40
     Davidson diagonalization with overlap
     ethr =  1.01E-04,  avg # of iterations =  2.0

     negative rho (up, down):  6.419E-04 0.000E+00

     add environment contribution to local potential

     total cpu time spent up to now is      123.8 secs

     total energy              =     -83.56907832 Ry
     estimated scf accuracy    <       0.00347852 Ry
     electrostatic embedding   =      -0.20841670 Ry
     correction to one-el term =     -11.01255654 Ry

     iteration #  7     ecut=    30.00 Ry     beta= 0.40
     Davidson diagonalization with overlap
     ethr =  1.16E-05,  avg # of iterations =  2.0

     negative rho (up, down):  7.623E-04 0.000E+00

     add environment contribution to local potential

     total cpu time spent up to now is      150.1 secs

     total energy              =     -83.56930941 Ry
     estimated scf accuracy    <       0.00392153 Ry
     electrostatic embedding   =      -0.21007877 Ry
     correction to one-el term =     -10.99507612 Ry

     iteration #  8     ecut=    30.00 Ry     beta= 0.40
     Davidson diagonalization with overlap
     ethr =  1.16E-05,  avg # of iterations =  2.0

     negative rho (up, down):  6.050E-04 0.000E+00

     add environment contribution to local potential

     total cpu time spent up to now is      176.2 secs

     total energy              =     -83.56929595 Ry
     estimated scf accuracy    <       0.00203284 Ry
     electrostatic embedding   =      -0.21025479 Ry
     correction to one-el term =     -10.87028532 Ry

     iteration #  9     ecut=    30.00 Ry     beta= 0.40
     Davidson diagonalization with overlap
     ethr =  6.78E-06,  avg # of iterations =  4.0

     negative rho (up, down):  5.419E-04 0.000E+00

     add environment contribution to local potential

     total cpu time spent up to now is      202.3 secs

     total energy              =     -83.57028015 Ry
     estimated scf accuracy    <       0.00030438 Ry
     electrostatic embedding   =      -0.21317280 Ry
     correction to one-el term =     -10.85305403 Ry

     iteration # 10     ecut=    30.00 Ry     beta= 0.40
     Davidson diagonalization with overlap
     ethr =  1.01E-06,  avg # of iterations =  2.0

     negative rho (up, down):  5.639E-04 0.000E+00

     add environment contribution to local potential

     total cpu time spent up to now is      226.7 secs

     total energy              =     -83.57030798 Ry
     estimated scf accuracy    <       0.00015457 Ry
     electrostatic embedding   =      -0.21339479 Ry
     correction to one-el term =     -10.85377916 Ry

     iteration # 11     ecut=    30.00 Ry     beta= 0.40
     Davidson diagonalization with overlap
     ethr =  5.15E-07,  avg # of iterations =  2.0

     negative rho (up, down):  6.093E-04 0.000E+00

     add environment contribution to local potential

     total cpu time spent up to now is      251.8 secs

     total energy              =     -83.57031831 Ry
     estimated scf accuracy    <       0.00007706 Ry
     electrostatic embedding   =      -0.21383496 Ry
     correction to one-el term =     -10.85410659 Ry

     iteration # 12     ecut=    30.00 Ry     beta= 0.40
     Davidson diagonalization with overlap
     ethr =  2.57E-07,  avg # of iterations =  4.0

     negative rho (up, down):  6.020E-04 0.000E+00

     add environment contribution to local potential

     total cpu time spent up to now is      278.3 secs

     total energy              =     -83.57035588 Ry
     estimated scf accuracy    <       0.00001207 Ry
     electrostatic embedding   =      -0.21409751 Ry
     correction to one-el term =     -10.85537244 Ry

     iteration # 13     ecut=    30.00 Ry     beta= 0.40
     Davidson diagonalization with overlap
     ethr =  4.02E-08,  avg # of iterations =  4.0

     negative rho (up, down):  6.600E-04 0.000E+00

     add environment contribution to local potential

     total cpu time spent up to now is      304.1 secs

     total energy              =     -83.57035891 Ry
     estimated scf accuracy    <       0.00000929 Ry
     electrostatic embedding   =      -0.21416214 Ry
     correction to one-el term =     -10.85571090 Ry

     iteration # 14     ecut=    30.00 Ry     beta= 0.40
     Davidson diagonalization with overlap
     ethr =  3.10E-08,  avg # of iterations =  4.0

     negative rho (up, down):  6.745E-04 0.000E+00

     add environment contribution to local potential

     total cpu time spent up to now is      329.2 secs

     total energy              =     -83.57038372 Ry
     estimated scf accuracy    <       0.00000973 Ry
     electrostatic embedding   =      -0.21468101 Ry
     correction to one-el term =     -10.85629507 Ry

     iteration # 15     ecut=    30.00 Ry     beta= 0.40
     Davidson diagonalization with overlap
     ethr =  3.10E-08,  avg # of iterations =  5.0

     negative rho (up, down):  6.079E-04 0.000E+00

     add environment contribution to local potential

     total cpu time spent up to now is      354.4 secs

     total energy              =     -83.57041070 Ry
     estimated scf accuracy    <       0.00002204 Ry
     electrostatic embedding   =      -0.21526193 Ry
     correction to one-el term =     -10.85838916 Ry

     iteration # 16     ecut=    30.00 Ry     beta= 0.40
     Davidson diagonalization with overlap
     ethr =  3.10E-08,  avg # of iterations =  5.0

     negative rho (up, down):  6.131E-04 0.000E+00

     add environment contribution to local potential

     total cpu time spent up to now is      379.8 secs

     total energy              =     -83.57042675 Ry
     estimated scf accuracy    <       0.00003199 Ry
     electrostatic embedding   =      -0.21560893 Ry
     correction to one-el term =     -10.85977372 Ry

     iteration # 17     ecut=    30.00 Ry     beta= 0.40
     Davidson diagonalization with overlap
     ethr =  3.10E-08,  avg # of iterations =  3.0

     negative rho (up, down):  5.979E-04 0.000E+00

     add environment contribution to local potential

     total cpu time spent up to now is      405.7 secs

     total energy              =     -83.57042309 Ry
     estimated scf accuracy    <       0.00004344 Ry
     electrostatic embedding   =      -0.21603318 Ry
     correction to one-el term =     -10.86164676 Ry

     iteration # 18     ecut=    30.00 Ry     beta= 0.40
     Davidson diagonalization with overlap
     ethr =  3.10E-08,  avg # of iterations =  4.0

     negative rho (up, down):  5.958E-04 0.000E+00

     add environment contribution to local potential

     total cpu time spent up to now is      431.6 secs

     total energy              =     -83.57042980 Ry
     estimated scf accuracy    <       0.00001459 Ry
     electrostatic embedding   =      -0.21607203 Ry
     correction to one-el term =     -10.86282640 Ry

     iteration # 19     ecut=    30.00 Ry     beta= 0.40
     Davidson diagonalization with overlap
     ethr =  3.10E-08,  avg # of iterations =  1.0

     negative rho (up, down):  6.053E-04 0.000E+00

     add environment contribution to local potential

     total cpu time spent up to now is      455.8 secs

     total energy              =     -83.57042656 Ry
     estimated scf accuracy    <       0.00001275 Ry
     electrostatic embedding   =      -0.21608390 Ry
     correction to one-el term =     -10.86266314 Ry

     iteration # 20     ecut=    30.00 Ry     beta= 0.40
     Davidson diagonalization with overlap
     ethr =  3.10E-08,  avg # of iterations =  4.0

     negative rho (up, down):  5.946E-04 0.000E+00

     add environment contribution to local potential

     total cpu time spent up to now is      479.9 secs

     total energy              =     -83.57042908 Ry
     estimated scf accuracy    <       0.00000206 Ry
     electrostatic embedding   =      -0.21601416 Ry
     correction to one-el term =     -10.86158251 Ry

     iteration # 21     ecut=    30.00 Ry     beta= 0.40
     Davidson diagonalization with overlap
     ethr =  6.86E-09,  avg # of iterations =  5.0

     negative rho (up, down):  5.912E-04 0.000E+00

     add environment contribution to local potential

     total cpu time spent up to now is      505.7 secs

     total energy              =     -83.57043138 Ry
     estimated scf accuracy    <       0.00000051 Ry
     electrostatic embedding   =      -0.21599657 Ry
     correction to one-el term =     -10.86186388 Ry

     iteration # 22     ecut=    30.00 Ry     beta= 0.40
     Davidson diagonalization with overlap
     ethr =  1.69E-09,  avg # of iterations =  4.0

     negative rho (up, down):  5.904E-04 0.000E+00

     add environment contribution to local potential

     total cpu time spent up to now is      531.5 secs

     total energy              =     -83.57043199 Ry
     estimated scf accuracy    <       0.00000006 Ry
     electrostatic embedding   =      -0.21602531 Ry
     correction to one-el term =     -10.86169650 Ry

     iteration # 23     ecut=    30.00 Ry     beta= 0.40
     Davidson diagonalization with overlap
     ethr =  2.08E-10,  avg # of iterations =  4.0

     negative rho (up, down):  5.905E-04 0.000E+00

     add environment contribution to local potential

     total cpu time spent up to now is      556.2 secs

     total energy              =     -83.57043243 Ry
     estimated scf accuracy    <       0.00000002 Ry
     electrostatic embedding   =      -0.21604234 Ry
     correction to one-el term =     -10.86164317 Ry

     iteration # 24     ecut=    30.00 Ry     beta= 0.40
     Davidson diagonalization with overlap
     ethr =  7.01E-11,  avg # of iterations =  2.0

     negative rho (up, down):  5.905E-04 0.000E+00

     add environment contribution to local potential

     total cpu time spent up to now is      580.3 secs

     total energy              =     -83.57043233 Ry
     estimated scf accuracy    <       0.00000001 Ry
     electrostatic embedding   =      -0.21603578 Ry
     correction to one-el term =     -10.86160213 Ry

     iteration # 25     ecut=    30.00 Ry     beta= 0.40
     Davidson diagonalization with overlap
     ethr =  4.37E-11,  avg # of iterations =  3.0

     negative rho (up, down):  5.896E-04 0.000E+00

     the potential shift due to the Gaussian-smeared nuclei is    -0.0245 ev

     total cpu time spent up to now is      588.7 secs

     End of self-consistent calculation

          k = 0.0000 0.0000 0.0000 ( 37387 PWs)   bands (ev):

   -25.3806 -20.8597 -20.0097 -16.6619 -16.5158 -14.5195 -12.8425 -12.2336
   -11.7289 -11.3012 -11.2022  -9.5129  -9.3202  -8.2153  -7.4912

     occupation numbers 
     1.0000   1.0000   1.0000   1.0000   1.0000   1.0000   1.0000   1.0000
     1.0000   1.0000   1.0000   1.0000   1.0000   1.0000   1.0000

     highest occupied level (ev):    -7.4912

!    total energy              =     -83.57043258 Ry
     estimated scf accuracy    <          1.8E-09 Ry

     The total energy is the sum of the following terms:
     one-electron contribution =    -540.88619680 Ry
     hartree contribution      =     272.15182312 Ry
     xc contribution           =     -26.15827087 Ry
     ewald contribution        =     222.39982399 Ry
     electrostatic embedding   =      -0.21604567 Ry
     correction to one-el term =     -10.86156634 Ry

     convergence has been achieved in  25 iterations
     The global environment contribution to forces
     atom    1 type  3   force =    -0.05841473    0.00000000    0.00002656
     atom    2 type  1   force =    -0.15423143   -0.00000002    0.00006040
     atom    3 type  2   force =    -0.08171351   -0.01044355    0.00002538
     atom    4 type  2   force =    -0.04057293    0.00181880    0.00000664
     atom    5 type  2   force =    -0.02364927    0.00000015    0.00000138
     atom    6 type  2   force =    -0.04057303   -0.00181855    0.00001941
     atom    7 type  2   force =    -0.08171380    0.01044352    0.00003275
     atom    8 type  3   force =    -0.01987773   -0.00403370    0.00000560
     atom    9 type  3   force =    -0.00470064    0.00433925   -0.00000063
     atom   10 type  3   force =     0.00183680    0.00000002   -0.00000427
     atom   11 type  3   force =    -0.00470065   -0.00433917    0.00000516
     atom   12 type  3   force =    -0.01987790    0.00403357    0.00000697
 

     Forces acting on atoms (cartesian axes, Ry/au):

     atom    1 type  3   force =     0.11820891   -0.00000006   -0.00004522
     atom    2 type  1   force =    -0.11227065    0.00000028    0.00005228
     atom    3 type  2   force =    -0.00975423   -0.00485666    0.00000752
     atom    4 type  2   force =     0.00427800    0.00419646   -0.00003928
     atom    5 type  2   force =     0.00641996   -0.00000014   -0.00000225
     atom    6 type  2   force =     0.00427800   -0.00419588    0.00000466
     atom    7 type  2   force =    -0.00975461    0.00485584    0.00002526
     atom    8 type  3   force =     0.00378192   -0.00636536    0.00001220
     atom    9 type  3   force =    -0.00191092   -0.00535814   -0.00000643
     atom   10 type  3   force =    -0.00514708    0.00000008    0.00003111
     atom   11 type  3   force =    -0.00191099    0.00535826   -0.00002025
     atom   12 type  3   force =     0.00378169    0.00636531   -0.00001961
     The Martyna-Tuckerman correction term to forces
     atom    1 type  3   force =    -0.00112825   -0.00000000    0.00000015
     atom    2 type  1   force =    -0.00188662   -0.00000000   -0.00000000
     atom    3 type  2   force =     0.00012716    0.00294413   -0.00000082
     atom    4 type  2   force =     0.00364084    0.00288482   -0.00000124
     atom    5 type  2   force =     0.00570642   -0.00000000   -0.00000137
     atom    6 type  2   force =     0.00364084   -0.00288482   -0.00000027
     atom    7 type  2   force =     0.00012716   -0.00294413    0.00000051
     atom    8 type  3   force =    -0.00033765    0.00132549   -0.00000027
     atom    9 type  3   force =     0.00119262    0.00130031   -0.00000039
     atom   10 type  3   force =     0.00230055   -0.00000000   -0.00000053
     atom   11 type  3   force =     0.00119262   -0.00130031    0.00000006
     atom   12 type  3   force =    -0.00033765   -0.00132549    0.00000041
     The non-local contrib.  to forces
     atom    1 type  3   force =     0.14872478   -0.00000003   -0.00005294
     atom    2 type  1   force =     0.21579489    0.00000044    0.00009932
     atom    3 type  2   force =    -0.07479520   -0.31319616    0.00008049
     atom    4 type  2   force =    -0.09874689   -0.09713015    0.00000819
     atom    5 type  2   force =    -0.11024558   -0.00000001    0.00005573
     atom    6 type  2   force =    -0.09874680    0.09713035    0.00001094
     atom    7 type  2   force =    -0.07479550    0.31319581   -0.00011461
     atom    8 type  3   force =     0.08845326   -0.13021903    0.00003024
     atom    9 type  3   force =    -0.07306202   -0.13462471    0.00004739
     atom   10 type  3   force =    -0.15324987    0.00000003    0.00010096
     atom   11 type  3   force =    -0.07306204    0.13462470   -0.00004408
     atom   12 type  3   force =     0.08845317    0.13021898   -0.00010405
     The ionic contribution  to forces
     atom    1 type  3   force =    -3.67662239    0.00000030    0.00120661
     atom    2 type  1   force =    -9.04849811    0.00000171    0.00169003
     atom    3 type  2   force =    -2.83977692    7.52144304   -0.00133586
     atom    4 type  2   force =     4.02437581    6.36088998   -0.00184150
     atom    5 type  2   force =     7.36794959   -0.00000117   -0.00322235
     atom    6 type  2   force =     4.02437706   -6.36089010    0.00065933
     atom    7 type  2   force =    -2.83977445   -7.52144390    0.00358714
     atom    8 type  3   force =    -1.82448734    2.93050813   -0.00062241
     atom    9 type  3   force =     1.64556721    2.93750990   -0.00103497
     atom   10 type  3   force =     3.34580841   -0.00000047   -0.00200043
     atom   11 type  3   force =     1.64556751   -2.93750965    0.00079776
     atom   12 type  3   force =    -1.82448639   -2.93050779    0.00211666
     The local contribution  to forces
     atom    1 type  3   force =     3.70572487   -0.00000035   -0.00122636
     atom    2 type  1   force =     8.87664352   -0.00000168   -0.00179829
     atom    3 type  2   force =     2.98650959   -7.20559993    0.00123752
     atom    4 type  2   force =    -3.88432219   -6.26427550    0.00178782
     atom    5 type  2   force =    -7.23326772    0.00000088    0.00316355
     atom    6 type  2   force =    -3.88432324    6.26427573   -0.00068558
     atom    7 type  2   force =     2.98650728    7.20560031   -0.00348134
     atom    8 type  3   force =     1.76011043   -2.80394406    0.00059828
     atom    9 type  3   force =    -1.57082964   -2.81388563    0.00098139
     atom   10 type  3   force =    -3.20176629    0.00000046    0.00193459
     atom   11 type  3   force =    -1.57082995    2.81388537   -0.00077994
     atom   12 type  3   force =     1.76010950    2.80394377   -0.00204038
     The core correction contribution to forces
     atom    1 type  3   force =     0.00000000    0.00000000    0.00000000
     atom    2 type  1   force =     0.00000000    0.00000000    0.00000000
     atom    3 type  2   force =     0.00000000    0.00000000    0.00000000
     atom    4 type  2   force =     0.00000000    0.00000000    0.00000000
     atom    5 type  2   force =     0.00000000    0.00000000    0.00000000
     atom    6 type  2   force =     0.00000000    0.00000000    0.00000000
     atom    7 type  2   force =     0.00000000    0.00000000    0.00000000
     atom    8 type  3   force =     0.00000000    0.00000000    0.00000000
     atom    9 type  3   force =     0.00000000    0.00000000    0.00000000
     atom   10 type  3   force =     0.00000000    0.00000000    0.00000000
     atom   11 type  3   force =     0.00000000    0.00000000    0.00000000
     atom   12 type  3   force =     0.00000000    0.00000000    0.00000000
     The Hubbard contrib.    to forces
     atom    1 type  3   force =     0.00000000    0.00000000    0.00000000
     atom    2 type  1   force =     0.00000000    0.00000000    0.00000000
     atom    3 type  2   force =     0.00000000    0.00000000    0.00000000
     atom    4 type  2   force =     0.00000000    0.00000000    0.00000000
     atom    5 type  2   force =     0.00000000    0.00000000    0.00000000
     atom    6 type  2   force =     0.00000000    0.00000000    0.00000000
     atom    7 type  2   force =     0.00000000    0.00000000    0.00000000
     atom    8 type  3   force =     0.00000000    0.00000000    0.00000000
     atom    9 type  3   force =     0.00000000    0.00000000    0.00000000
     atom   10 type  3   force =     0.00000000    0.00000000    0.00000000
     atom   11 type  3   force =     0.00000000    0.00000000    0.00000000
     atom   12 type  3   force =     0.00000000    0.00000000    0.00000000
     The SCF correction term to forces
     atom    1 type  3   force =     0.00000307    0.00000000    0.00000001
     atom    2 type  1   force =    -0.00001448   -0.00000019    0.00000007
     atom    3 type  2   force =    -0.00002692   -0.00000421    0.00000006
     atom    4 type  2   force =    -0.00001822    0.00000849    0.00000006
     atom    5 type  2   force =     0.00000493   -0.00000000    0.00000006
     atom    6 type  2   force =    -0.00001841   -0.00000850    0.00000006
     atom    7 type  2   force =    -0.00002687    0.00000420    0.00000006
     atom    8 type  3   force =    -0.00000063   -0.00000220    0.00000002
     atom    9 type  3   force =    -0.00000002    0.00000273    0.00000001
     atom   10 type  3   force =     0.00000174    0.00000002    0.00000003
     atom   11 type  3   force =    -0.00000005   -0.00000269    0.00000003
     atom   12 type  3   force =    -0.00000062    0.00000224    0.00000002

     Total force =     0.164710     Total SCF correction =     0.000051

     Writing output data file /home/simplogic86/Work/QE1/tempdir/pyridine_water_martyna-tuckerman.save/
 
     init_run     :     21.75s CPU     22.87s WALL (       1 calls)
     electrons    :    516.19s CPU    565.85s WALL (       1 calls)
     forces       :      3.83s CPU      4.30s WALL (       1 calls)

     Called by init_run:
     wfcinit      :      0.77s CPU      0.79s WALL (       1 calls)
     wfcinit:atom :      0.01s CPU      0.01s WALL (       1 calls)
     wfcinit:wfcr :      0.72s CPU      0.73s WALL (       1 calls)
     potinit      :      3.26s CPU      3.56s WALL (       1 calls)
     hinit0       :     13.76s CPU     13.93s WALL (       1 calls)

     Called by electrons:
     c_bands      :     27.90s CPU     28.19s WALL (      25 calls)
     sum_band     :     40.17s CPU     47.78s WALL (      25 calls)
     v_of_rho     :     36.38s CPU     41.79s WALL (      26 calls)
     v_h          :      3.66s CPU      4.61s WALL (      26 calls)
     v_xc         :     32.72s CPU     37.18s WALL (      26 calls)
     newd         :     18.09s CPU     24.93s WALL (      26 calls)
     mix_rho      :      8.03s CPU      8.06s WALL (      25 calls)

     Called by c_bands:
     init_us_2    :      0.65s CPU      0.73s WALL (      51 calls)
     regterg      :     26.15s CPU     26.20s WALL (      25 calls)

     Called by sum_band:
     sum_band:wei :      0.00s CPU      0.00s WALL (      25 calls)
     sum_band:loo :      6.10s CPU      6.12s WALL (      25 calls)
     sum_band:buf :      0.00s CPU      0.00s WALL (      25 calls)
     sum_band:ini :      0.35s CPU      0.37s WALL (      25 calls)
     sum_band:cal :      0.18s CPU      0.18s WALL (      25 calls)
     sum_band:bec :      0.00s CPU      0.00s WALL (      25 calls)
     addusdens    :     29.27s CPU     36.46s WALL (      25 calls)
     addusd:skk   :      1.34s CPU      1.84s WALL (      75 calls)
     addusd:dgemm :      4.65s CPU     10.40s WALL (      75 calls)
     addusd:qvan2 :     19.88s CPU     20.03s WALL (      75 calls)

     Called by *egterg:
     rdiaghg      :      0.03s CPU      0.03s WALL (     104 calls)
     regterg:over :      0.39s CPU      0.39s WALL (      79 calls)
     regterg:upda :      0.28s CPU      0.29s WALL (      79 calls)
     regterg:last :      0.57s CPU      0.57s WALL (      54 calls)
     h_psi        :     24.35s CPU     24.38s WALL (     105 calls)
     s_psi        :      0.68s CPU      0.68s WALL (     105 calls)
     g_psi        :      0.08s CPU      0.08s WALL (      79 calls)

     Called by h_psi:
     h_psi:calbec :      0.59s CPU      0.59s WALL (     105 calls)
     vloc_psi     :     23.01s CPU     23.03s WALL (     105 calls)
     add_vuspsi   :      0.66s CPU      0.67s WALL (     105 calls)

     General routines
     calbec       :      0.81s CPU      0.81s WALL (     134 calls)
     fft          :     22.46s CPU     24.23s WALL (     287 calls)
     ffts         :      0.73s CPU      0.73s WALL (      51 calls)
     fftw         :     20.79s CPU     20.80s WALL (    1316 calls)
     interpolate  :      2.70s CPU      3.54s WALL (      26 calls)
 
     Parallel routines
 
     Environ routines
 
     PWSCF        :   9m 1.84s CPU   9m53.15s WALL

 
   This run was terminated on:  15:18: 6  25Sep2021            

=------------------------------------------------------------------------------=
   JOB DONE.
=------------------------------------------------------------------------------=
