
     Program PWSCF v.6.7MaX starts on 24Feb2021 at 11:12:21 

     This program is part of the open-source Quantum ESPRESSO suite
     for quantum simulation of materials; please cite
         "P. Giannozzi et al., J. Phys.:Condens. Matter 21 395502 (2009);
         "P. Giannozzi et al., J. Phys.:Condens. Matter 29 465901 (2017);
          URL http://www.quantum-espresso.org", 
     in publications or presentations arising from this work. More details at
     http://www.quantum-espresso.org/quote

     Parallel version (MPI), running on     1 processors

     MPI processes distributed on     1 nodes
     Waiting for input...
     Reading input from standard input
Warning: card &CELL ignored
Warning: card / ignored

     Current dimensions of program PWSCF are:
     Max number of different atomic species (ntypx) = 10
     Max number of k-points (npk) =  40000
     Max angular momentum in pseudopotentials (lmaxx) =  3
Warning: card &ELECTROSTATIC ignored
Warning: card / ignored
     file H.pbe-rrkjus.UPF: wavefunction(s)  1S renormalized

     gamma-point specific algorithms are used

     Subspace diagonalization in iterative solution of the eigenvalue problem:
     a serial algorithm will be used


     G-vector sticks info
     --------------------
     sticks:   dense  smooth     PW     G-vecs:    dense   smooth      PW
     Sum        2561    1281    325                96969    34265    4337



     bravais-lattice index     =            1
     lattice parameter (alat)  =      10.0000  a.u.
     unit-cell volume          =    1000.0000 (a.u.)^3
     number of atoms/cell      =            1
     number of atomic types    =            1
     number of electrons       =         2.00
     number of Kohn-Sham states=            1
     kinetic-energy cutoff     =      40.0000  Ry
     charge density cutoff     =     320.0000  Ry
     scf convergence threshold =      5.0E-08
     mixing beta               =       0.7000
     number of iterations used =            8  plain     mixing
     Exchange-correlation= SLA  PW   PBE  PBE
                           (   1   4   3   4   0   0   0)


     Environ Module
     ==============

     Plese cite
         O. Andreussi, I. Dabo and N. Marzari, J. Chem. Phys. 136, 064102 (2012)         
     in publications or presentations arising from this work.

     compensation onset threshold      =               0.1000E+02 


     Assuming isolated system, Martyna-Tuckerman method


     celldm(1)=  10.000000  celldm(2)=   0.000000  celldm(3)=   0.000000
     celldm(4)=   0.000000  celldm(5)=   0.000000  celldm(6)=   0.000000

     crystal axes: (cart. coord. in units of alat)
               a(1) = (   1.000000   0.000000   0.000000 )  
               a(2) = (   0.000000   1.000000   0.000000 )  
               a(3) = (   0.000000   0.000000   1.000000 )  

     reciprocal axes: (cart. coord. in units 2 pi/alat)
               b(1) = (  1.000000  0.000000  0.000000 )  
               b(2) = (  0.000000  1.000000  0.000000 )  
               b(3) = (  0.000000  0.000000  1.000000 )  


     PseudoPot. # 1 for H  read from file:
     ../../../pseudo/H.pbe-rrkjus.UPF
     MD5 check sum: 2d52a7f45632fd764c17cc6affed14c8
     Pseudo is Ultrasoft, Zval =  1.0
     Generated by new atomic code, or converted to UPF format
     Using radial grid of 1061 points,  2 beta functions with: 
                l(1) =   0
                l(2) =   0
     Q(r) pseudized with 0 coefficients 


     atomic species   valence    mass     pseudopotential
        H              1.00     1.00000     H ( 1.00)

     No symmetry found



   Cartesian axes

     site n.     atom                  positions (alat units)
         1           H   tau(   1) = (   0.0000000   0.0000000   0.0000000  )

     number of k points=     1
                       cart. coord. in units 2pi/alat
        k(    1) = (   0.0000000   0.0000000   0.0000000), wk =   2.0000000

     Dense  grid:    48485 G-vectors     FFT dimensions: (  60,  60,  60)

     Smooth grid:    17133 G-vectors     FFT dimensions: (  45,  45,  45)

     Estimated max dynamical RAM per process >      40.44 MB

     Initial potential from superposition of free atoms

     starting charge    0.90380, renormalised to    2.00000
     Starting wfcs are    1 randomized atomic wfcs

     total cpu time spent up to now is        3.0 secs

     Self-consistent Calculation

     iteration #  1     ecut=    40.00 Ry     beta= 0.70
     CG style diagonalization
     ethr =  1.00E-02,  avg # of iterations =  3.0

     add environment contribution to local potential

     total cpu time spent up to now is        3.5 secs

     total energy              =      -1.06053244 Ry
     estimated scf accuracy    <       0.04631388 Ry
     confinement energy        =       0.00000000 Ry
     correction to one-el term =      -0.00000000 Ry

     iteration #  2     ecut=    40.00 Ry     beta= 0.70
     CG style diagonalization
     ethr =  2.32E-03,  avg # of iterations =  5.0

     add environment contribution to local potential

     total cpu time spent up to now is        4.1 secs

     total energy              =      -0.89116096 Ry
     estimated scf accuracy    <       0.04999657 Ry
     confinement energy        =       0.26572330 Ry
     correction to one-el term =      -0.26572330 Ry

     iteration #  3     ecut=    40.00 Ry     beta= 0.70
     CG style diagonalization
     ethr =  2.32E-03,  avg # of iterations =  3.0

     negative rho (up, down):  1.318E-02 0.000E+00

     add environment contribution to local potential

     total cpu time spent up to now is        4.7 secs

     total energy              =      -0.87726181 Ry
     estimated scf accuracy    <       0.02514332 Ry
     confinement energy        =       0.23217363 Ry
     correction to one-el term =      -0.23217363 Ry

     iteration #  4     ecut=    40.00 Ry     beta= 0.70
     CG style diagonalization
     ethr =  1.26E-03,  avg # of iterations =  4.0

     add environment contribution to local potential

     total cpu time spent up to now is        5.2 secs

     total energy              =      -0.88122808 Ry
     estimated scf accuracy    <       0.02128892 Ry
     confinement energy        =       0.07216019 Ry
     correction to one-el term =      -0.07216019 Ry

     iteration #  5     ecut=    40.00 Ry     beta= 0.70
     CG style diagonalization
     ethr =  1.06E-03,  avg # of iterations =  4.0

     add environment contribution to local potential

     total cpu time spent up to now is        5.8 secs

     total energy              =      -0.88473117 Ry
     estimated scf accuracy    <       0.00003833 Ry
     confinement energy        =       0.12729775 Ry
     correction to one-el term =      -0.12729775 Ry

     iteration #  6     ecut=    40.00 Ry     beta= 0.70
     CG style diagonalization
     ethr =  1.92E-06,  avg # of iterations =  5.0

     add environment contribution to local potential

     total cpu time spent up to now is        6.4 secs

     total energy              =      -0.88477946 Ry
     estimated scf accuracy    <       0.00006939 Ry
     confinement energy        =       0.13187121 Ry
     correction to one-el term =      -0.13187121 Ry

     iteration #  7     ecut=    40.00 Ry     beta= 0.70
     CG style diagonalization
     ethr =  1.92E-06,  avg # of iterations =  3.0

     add environment contribution to local potential

     total cpu time spent up to now is        6.9 secs

     total energy              =      -0.88477421 Ry
     estimated scf accuracy    <       0.00003083 Ry
     confinement energy        =       0.12995883 Ry
     correction to one-el term =      -0.12995883 Ry

     iteration #  8     ecut=    40.00 Ry     beta= 0.70
     CG style diagonalization
     ethr =  1.54E-06,  avg # of iterations =  3.0

     add environment contribution to local potential

     total cpu time spent up to now is        7.5 secs

     total energy              =      -0.88476968 Ry
     estimated scf accuracy    <       0.00001156 Ry
     confinement energy        =       0.12913820 Ry
     correction to one-el term =      -0.12913820 Ry

     iteration #  9     ecut=    40.00 Ry     beta= 0.70
     CG style diagonalization
     ethr =  5.78E-07,  avg # of iterations =  4.0

     add environment contribution to local potential

     total cpu time spent up to now is        8.1 secs

     total energy              =      -0.88477192 Ry
     estimated scf accuracy    <       0.00000007 Ry
     confinement energy        =       0.12742675 Ry
     correction to one-el term =      -0.12742675 Ry

     iteration # 10     ecut=    40.00 Ry     beta= 0.70
     CG style diagonalization
     ethr =  3.50E-09,  avg # of iterations =  4.0

     add environment contribution to local potential

     total cpu time spent up to now is        8.6 secs

     total energy              =      -0.88477186 Ry
     estimated scf accuracy    <       0.00000013 Ry
     confinement energy        =       0.12743883 Ry
     correction to one-el term =      -0.12743883 Ry

     iteration # 11     ecut=    40.00 Ry     beta= 0.70
     CG style diagonalization
     ethr =  3.50E-09,  avg # of iterations =  4.0

     total cpu time spent up to now is        9.2 secs

     End of self-consistent calculation

          k = 0.0000 0.0000 0.0000 (  2169 PWs)   bands (ev):

     5.2913

     highest occupied level (ev):     5.2913

!    total energy              =      -0.88477189 Ry
     estimated scf accuracy    <          2.5E-10 Ry

     The total energy is the sum of the following terms:
     one-electron contribution =      -1.80592001 Ry
     hartree contribution      =       1.95916207 Ry
     xc contribution           =      -1.03801395 Ry
     ewald contribution        =      -0.00000000 Ry
     confinement energy        =       0.12730769 Ry
     correction to one-el term =      -0.12730769 Ry

     convergence has been achieved in  11 iterations

     Forces acting on atoms (cartesian axes, Ry/au):

     atom    1 type  1   force =     0.00000000    0.00000000    0.00000000

     Total force =     0.000000     Total SCF correction =     0.000000

     Writing output data file ./tmp/pwscf.save/

     init_run     :      2.77s CPU      2.96s WALL (       1 calls)
     electrons    :      5.61s CPU      6.19s WALL (       1 calls)
     forces       :      0.58s CPU      0.66s WALL (       1 calls)

     Called by init_run:
     wfcinit      :      0.00s CPU      0.00s WALL (       1 calls)
     potinit      :      0.45s CPU      0.48s WALL (       1 calls)
     hinit0       :      1.41s CPU      1.46s WALL (       1 calls)

     Called by electrons:
     c_bands      :      0.07s CPU      0.07s WALL (      11 calls)
     sum_band     :      0.07s CPU      0.12s WALL (      11 calls)
     v_of_rho     :      0.81s CPU      0.92s WALL (      12 calls)
     newd         :      0.05s CPU      0.05s WALL (      12 calls)
     mix_rho      :      0.08s CPU      0.09s WALL (      11 calls)

     Called by c_bands:
     init_us_2    :      0.00s CPU      0.00s WALL (      23 calls)
     rcgdiagg     :      0.05s CPU      0.05s WALL (      11 calls)
     wfcrot       :      0.02s CPU      0.02s WALL (      11 calls)

     Called by *cgdiagg:
     h_psi        :      0.07s CPU      0.07s WALL (      43 calls)
     s_psi        :      0.00s CPU      0.00s WALL (      75 calls)

     Called by h_psi:
     h_psi:calbec :      0.00s CPU      0.00s WALL (      43 calls)
     vloc_psi     :      0.07s CPU      0.07s WALL (      43 calls)
     add_vuspsi   :      0.00s CPU      0.00s WALL (      43 calls)
     hs_1psi      :      0.05s CPU      0.05s WALL (      32 calls)
     s_1psi       :      0.00s CPU      0.00s WALL (      32 calls)

     General routines
     calbec       :      0.00s CPU      0.00s WALL (      90 calls)
     fft          :      0.61s CPU      0.64s WALL (     138 calls)
     ffts         :      0.02s CPU      0.02s WALL (      23 calls)
     fftw         :      0.06s CPU      0.06s WALL (      97 calls)
     interpolate  :      0.05s CPU      0.05s WALL (      12 calls)

     Parallel routines
     fft_scatt_xy :      0.03s CPU      0.03s WALL (       4 calls)
     fft_scatt_yz :      0.04s CPU      0.04s WALL (       4 calls)

     Environ routines

     PWSCF        :      8.98s CPU      9.86s WALL


   This run was terminated on:  11:12:31  24Feb2021            

=------------------------------------------------------------------------------=
   JOB DONE.
=------------------------------------------------------------------------------=
