
     Program PWSCF v.6.4.1 starts on  7May2019 at 19:15:39 

     This program is part of the open-source Quantum ESPRESSO suite
     for quantum simulation of materials; please cite
         "P. Giannozzi et al., J. Phys.:Condens. Matter 21 395502 (2009);
         "P. Giannozzi et al., J. Phys.:Condens. Matter 29 465901 (2017);
          URL http://www.quantum-espresso.org", 
     in publications or presentations arising from this work. More details at
     http://www.quantum-espresso.org/quote

     Parallel version (MPI), running on     1 processors

     MPI processes distributed on     1 nodes
     Reading input from pw.in
Warning: card &IONS ignored
Warning: card / ignored
Warning: card &CELL ignored
Warning: card / ignored

     Current dimensions of program PWSCF are:
     Max number of different atomic species (ntypx) = 10
     Max number of k-points (npk) =  40000
     Max angular momentum in pseudopotentials (lmaxx) =  3
Warning: card &ELECTROSTATIC ignored
Warning: card / ignored
               file H.pbe-rrkjus.UPF: wavefunction(s)  1S renormalized

     gamma-point specific algorithms are used

     Subspace diagonalization in iterative solution of the eigenvalue problem:
     a serial algorithm will be used

 
     G-vector sticks info
     --------------------
     sticks:   dense  smooth     PW     G-vecs:    dense   smooth      PW
     Sum       10185    5097   1281               773489   273425   34265
 


     bravais-lattice index     =            1
     lattice parameter (alat)  =      20.0000  a.u.
     unit-cell volume          =    8000.0000 (a.u.)^3
     number of atoms/cell      =            1
     number of atomic types    =            1
     number of electrons       =         2.00
     number of Kohn-Sham states=            1
     kinetic-energy cutoff     =      40.0000  Ry
     charge density cutoff     =     320.0000  Ry
     convergence threshold     =      5.0E-08
     mixing beta               =       0.7000
     number of iterations used =            8  plain     mixing
     Exchange-correlation      = SLA PW PBE PBE ( 1  4  3  4 0 0)
 

     Environ Module
     ==============

     Plese cite
         O. Andreussi, I. Dabo and N. Marzari, J. Chem. Phys. 136, 064102 (2012)         
     in publications or presentations arising from this work.

     compensation onset threshold      =               0.1000E+02 
     switching function adopted        =                     SCCS 
     density limit for vacuum region   =               0.5000E-02 
     density limit for bulk solvent    =               0.1000E-03 


     Assuming isolated system, Martyna-Tuckerman method


     celldm(1)=  20.000000  celldm(2)=   0.000000  celldm(3)=   0.000000
     celldm(4)=   0.000000  celldm(5)=   0.000000  celldm(6)=   0.000000

     crystal axes: (cart. coord. in units of alat)
               a(1) = (   1.000000   0.000000   0.000000 )  
               a(2) = (   0.000000   1.000000   0.000000 )  
               a(3) = (   0.000000   0.000000   1.000000 )  

     reciprocal axes: (cart. coord. in units 2 pi/alat)
               b(1) = (  1.000000  0.000000  0.000000 )  
               b(2) = (  0.000000  1.000000  0.000000 )  
               b(3) = (  0.000000  0.000000  1.000000 )  


     PseudoPot. # 1 for H  read from file:
     /home/fnattino/Programs/quantumespresso/q-e-qe-6.4.1-develop/Environ/tests/../..//pseudo/H.pbe-rrkjus.UPF
     MD5 check sum: 2d52a7f45632fd764c17cc6affed14c8
     Pseudo is Ultrasoft, Zval =  1.0
     Generated by new atomic code, or converted to UPF format
     Using radial grid of 1061 points,  2 beta functions with: 
                l(1) =   0
                l(2) =   0
     Q(r) pseudized with 0 coefficients 


     atomic species   valence    mass     pseudopotential
        H              1.00     1.00000     H ( 1.00)

     No symmetry found



   Cartesian axes

     site n.     atom                  positions (alat units)
         1           H   tau(   1) = (   0.0000000   0.0000000   0.0000000  )

     number of k points=     1
                       cart. coord. in units 2pi/alat
        k(    1) = (   0.0000000   0.0000000   0.0000000), wk =   2.0000000

     Dense  grid:   386745 G-vectors     FFT dimensions: ( 120, 120, 120)

     Smooth grid:   136713 G-vectors     FFT dimensions: (  81,  81,  81)

     Estimated max dynamical RAM per process >     322.73 MB

     Initial potential from superposition of free atoms

     starting charge    0.90380, renormalised to    2.00000

     negative rho (up, down):  1.692E-03 0.000E+00
     Starting wfcs are    1 randomized atomic wfcs

     total cpu time spent up to now is        1.9 secs

     Self-consistent Calculation

     iteration #  1     ecut=    40.00 Ry     beta= 0.70
     CG style diagonalization
     ethr =  1.00E-02,  avg # of iterations =  3.0

     negative rho (up, down):  4.772E-04 0.000E+00

     add environment contribution to local potential

     total cpu time spent up to now is        2.7 secs

     total energy              =      -1.00011793 Ry
     Harris-Foulkes estimate   =      -1.06684449 Ry
     estimated scf accuracy    <       0.11658456 Ry
     confinement energy        =       0.00000000 Ry
     correction to one-el term =       0.00000000 Ry

     iteration #  2     ecut=    40.00 Ry     beta= 0.70
     CG style diagonalization
     ethr =  5.83E-03,  avg # of iterations =  4.0

     negative rho (up, down):  1.137E-04 0.000E+00

     add environment contribution to local potential

     total cpu time spent up to now is        3.4 secs

     total energy              =      -0.94222470 Ry
     Harris-Foulkes estimate   =      -1.00580130 Ry
     estimated scf accuracy    <       0.00992400 Ry
     confinement energy        =       0.17048492 Ry
     correction to one-el term =      -0.10614026 Ry

     iteration #  3     ecut=    40.00 Ry     beta= 0.70
     CG style diagonalization
     ethr =  4.96E-04,  avg # of iterations =  3.0

     negative rho (up, down):  3.840E-05 0.000E+00

     add environment contribution to local potential

     total cpu time spent up to now is        4.2 secs

     total energy              =      -0.94389388 Ry
     Harris-Foulkes estimate   =      -1.00317045 Ry
     estimated scf accuracy    <       0.00090532 Ry
     confinement energy        =       0.10363219 Ry
     correction to one-el term =      -0.04404949 Ry

     iteration #  4     ecut=    40.00 Ry     beta= 0.70
     CG style diagonalization
     ethr =  4.53E-05,  avg # of iterations =  3.0

     negative rho (up, down):  6.473E-06 0.000E+00

     add environment contribution to local potential

     total cpu time spent up to now is        4.9 secs

     total energy              =      -0.94398050 Ry
     Harris-Foulkes estimate   =      -1.00230907 Ry
     estimated scf accuracy    <       0.00000171 Ry
     confinement energy        =       0.07338594 Ry
     correction to one-el term =      -0.01505246 Ry

     iteration #  5     ecut=    40.00 Ry     beta= 0.70
     CG style diagonalization
     ethr =  8.54E-08,  avg # of iterations =  4.0

     negative rho (up, down):  3.272E-06 0.000E+00

     add environment contribution to local potential

     total cpu time spent up to now is        5.6 secs

     total energy              =      -0.94398600 Ry
     Harris-Foulkes estimate   =      -1.00275730 Ry
     estimated scf accuracy    <       0.00000026 Ry
     confinement energy        =       0.07227838 Ry
     correction to one-el term =      -0.01350697 Ry

     iteration #  6     ecut=    40.00 Ry     beta= 0.70
     CG style diagonalization
     ethr =  1.30E-08,  avg # of iterations =  4.0

     negative rho (up, down):  2.881E-06 0.000E+00

     add environment contribution to local potential

     total cpu time spent up to now is        6.3 secs

     total energy              =      -0.94398643 Ry
     Harris-Foulkes estimate   =      -1.00289782 Ry
     estimated scf accuracy    <       0.00000018 Ry
     confinement energy        =       0.07249637 Ry
     correction to one-el term =      -0.01358499 Ry

     iteration #  7     ecut=    40.00 Ry     beta= 0.70
     CG style diagonalization
     ethr =  8.82E-09,  avg # of iterations =  4.0

     negative rho (up, down):  2.733E-06 0.000E+00

     add environment contribution to local potential

     total cpu time spent up to now is        7.1 secs

     total energy              =      -0.94398644 Ry
     Harris-Foulkes estimate   =      -1.00296665 Ry
     estimated scf accuracy    <       0.00000023 Ry
     confinement energy        =       0.07255725 Ry
     correction to one-el term =      -0.01357717 Ry

     iteration #  8     ecut=    40.00 Ry     beta= 0.70
     CG style diagonalization
     ethr =  8.82E-09,  avg # of iterations =  4.0

     negative rho (up, down):  2.672E-06 0.000E+00

     total cpu time spent up to now is        7.7 secs

     End of self-consistent calculation

          k = 0.0000 0.0000 0.0000 ( 17133 PWs)   bands (ev):

     3.4638

     highest occupied level (ev):     3.4638

!    total energy              =      -0.94398647 Ry
     Harris-Foulkes estimate   =      -1.00295202 Ry
     estimated scf accuracy    <          6.2E-09 Ry

     The total energy is the sum of the following terms:

     one-electron contribution =      -1.83207239 Ry
     hartree contribution      =       1.78607350 Ry
     xc contribution           =      -0.95695313 Ry
     ewald contribution        =      -0.00000000 Ry
     confinement energy        =       0.07252695 Ry
     correction to one-el term =      -0.01356141 Ry

     convergence has been achieved in   8 iterations

     Forces acting on atoms (cartesian axes, Ry/au):

     atom    1 type  1   force =     0.00000000    0.00000000    0.00000000

     Total force =     0.000000     Total SCF correction =     0.000002

     Writing output data file pwscf.save/
 
     init_run     :      1.53s CPU      1.72s WALL (       1 calls)
     electrons    :      5.52s CPU      5.90s WALL (       1 calls)
     forces       :      0.27s CPU      0.30s WALL (       1 calls)

     Called by init_run:
     wfcinit      :      0.02s CPU      0.02s WALL (       1 calls)
     potinit      :      0.79s CPU      0.86s WALL (       1 calls)
     hinit0       :      0.58s CPU      0.64s WALL (       1 calls)

     Called by electrons:
     c_bands      :      0.50s CPU      0.50s WALL (       8 calls)
     sum_band     :      0.48s CPU      0.48s WALL (       8 calls)
     v_of_rho     :      3.56s CPU      3.93s WALL (       9 calls)
     newd         :      0.30s CPU      0.30s WALL (       9 calls)
     mix_rho      :      0.46s CPU      0.46s WALL (       8 calls)

     Called by c_bands:
     init_us_2    :      0.01s CPU      0.01s WALL (      17 calls)
     rcgdiagg     :      0.38s CPU      0.37s WALL (       8 calls)
     wfcrot       :      0.13s CPU      0.14s WALL (       8 calls)

     Called by sum_band:
     sum_band:bec :      0.00s CPU      0.00s WALL (       8 calls)
     addusdens    :      0.10s CPU      0.10s WALL (       8 calls)

     Called by *cgdiagg:
     h_psi        :      0.49s CPU      0.50s WALL (      30 calls)
     s_psi        :      0.00s CPU      0.00s WALL (      52 calls)
     rdiaghg      :      0.00s CPU      0.00s WALL (       8 calls)

     Called by h_psi:
     h_psi:pot    :      0.49s CPU      0.50s WALL (      30 calls)
     h_psi:calbec :      0.00s CPU      0.00s WALL (      30 calls)
     vloc_psi     :      0.49s CPU      0.49s WALL (      30 calls)
     add_vuspsi   :      0.00s CPU      0.00s WALL (      30 calls)
     hs_1psi      :      0.36s CPU      0.36s WALL (      22 calls)
     s_1psi       :      0.00s CPU      0.00s WALL (      22 calls)

     General routines
     calbec       :      0.00s CPU      0.00s WALL (      64 calls)
     fft          :      1.82s CPU      1.84s WALL (     100 calls)
     ffts         :      0.12s CPU      0.11s WALL (      17 calls)
     fftw         :      0.49s CPU      0.48s WALL (      68 calls)
     interpolate  :      0.30s CPU      0.30s WALL (       9 calls)
 
     Parallel routines
 
     Environ routines
 
     PWSCF        :      7.46s CPU      8.15s WALL

 
   This run was terminated on:  19:15:47   7May2019            

=------------------------------------------------------------------------------=
   JOB DONE.
=------------------------------------------------------------------------------=
