
     Program PWSCF v.7.0 starts on 22Apr2022 at 20:12:20 

     This program is part of the open-source Quantum ESPRESSO suite
     for quantum simulation of materials; please cite
         "P. Giannozzi et al., J. Phys.:Condens. Matter 21 395502 (2009);
         "P. Giannozzi et al., J. Phys.:Condens. Matter 29 465901 (2017);
         "P. Giannozzi et al., J. Chem. Phys. 152 154105 (2020);
          URL http://www.quantum-espresso.org", 
     in publications or presentations arising from this work. More details at
     http://www.quantum-espresso.org/quote

     Parallel version (MPI), running on     1 processors

     MPI processes distributed on     1 nodes
     22896 MiB available memory on the printing compute node when the environment starts
 
     Reading input from pw.in
Warning: card &CELL ignored
Warning: card / ignored

     Current dimensions of program PWSCF are:
     Max number of different atomic species (ntypx) = 10
     Max number of k-points (npk) =  40000
     Max angular momentum in pseudopotentials (lmaxx) =  4
 
     Reading input from environ.in:
     * setting up vacuum environment
     * using ionic solvent mode
     * setting boundary derivatives method to SSCS default
     * ignoring &ELECTROSTATIC namelist
     
     file H.pbe-rrkjus.UPF: wavefunction(s)  1S renormalized

     gamma-point specific algorithms are used

     Subspace diagonalization in iterative solution of the eigenvalue problem:
     a serial algorithm will be used

 
     G-vector sticks info
     --------------------
     sticks:   dense  smooth     PW     G-vecs:    dense   smooth      PW
     Sum       10185    5097   1281               773489   273425   34265
 
     Using Slab Decomposition
 


     bravais-lattice index     =            1
     lattice parameter (alat)  =      20.0000  a.u.
     unit-cell volume          =    8000.0000 (a.u.)^3
     number of atoms/cell      =            1
     number of atomic types    =            1
     number of electrons       =         2.00
     number of Kohn-Sham states=            1
     kinetic-energy cutoff     =      40.0000  Ry
     charge density cutoff     =     320.0000  Ry
     scf convergence threshold =      5.0E-08
     mixing beta               =       0.7000
     number of iterations used =            8  plain     mixing
     Exchange-correlation= SLA  PW   PBE  PBE
                           (   1   4   3   4   0   0   0)

     ================================================================================
 
                                  Environ Setup Summary

     ================================================================================
 
     Please cite

          O. Andreussi, I. Dabo and N. Marzari, J. Chem. Phys. 136, 064102 (2012)

     in publications or presentations arising from this work.

     ================================================================================
 
     Parameters
     ==========

     compensation onset threshold      =               0.1000E+02

     Solvent Boundary
     ================

     solvent mode                      =                    ionic
     derivatives method                =                   lowmem
     numerical core for derivatives    =                      fft
     switching function adopted        =                     SCCS
     density limit for vacuum region   =               0.5000E-02
     density limit for bulk solvent    =               0.1000E-03
     soft-sphere radius mode           =                      uff
     soft-sphere softness              =                     0.50
     alpha                             =                     1.20

     ================================================================================
 
     Assuming isolated system, Martyna-Tuckerman method


     celldm(1)=  20.000000  celldm(2)=   0.000000  celldm(3)=   0.000000
     celldm(4)=   0.000000  celldm(5)=   0.000000  celldm(6)=   0.000000

     crystal axes: (cart. coord. in units of alat)
               a(1) = (   1.000000   0.000000   0.000000 )  
               a(2) = (   0.000000   1.000000   0.000000 )  
               a(3) = (   0.000000   0.000000   1.000000 )  

     reciprocal axes: (cart. coord. in units 2 pi/alat)
               b(1) = (  1.000000  0.000000  0.000000 )  
               b(2) = (  0.000000  1.000000  0.000000 )  
               b(3) = (  0.000000  0.000000  1.000000 )  


     PseudoPot. # 1 for H  read from file:
     MD5 check sum: 2d52a7f45632fd764c17cc6affed14c8
     Pseudo is Ultrasoft, Zval =  1.0
     Generated by new atomic code, or converted to UPF format
     Using radial grid of 1061 points,  2 beta functions with: 
                l(1) =   0
                l(2) =   0
     Q(r) pseudized with 0 coefficients 


     atomic species   valence    mass     pseudopotential
        H              1.00     1.00000     H ( 1.00)

     No symmetry found



   Cartesian axes

     site n.     atom                  positions (alat units)
         1           H   tau(   1) = (   0.0000000   0.0000000   0.0000000  )

     number of k points=     1
                       cart. coord. in units 2pi/alat
        k(    1) = (   0.0000000   0.0000000   0.0000000), wk =   2.0000000

     Dense  grid:   386745 G-vectors     FFT dimensions: ( 120, 120, 120)

     Smooth grid:   136713 G-vectors     FFT dimensions: (  81,  81,  81)

     Estimated max dynamical RAM per process >     322.64 MB

     Initial potential from superposition of free atoms

     starting charge       0.9038, renormalised to       2.0000

     negative rho (up, down):  1.692E-03 0.000E+00
     Starting wfcs are    1 randomized atomic wfcs

     total cpu time spent up to now is        1.7 secs

     Self-consistent Calculation

     iteration #  1     ecut=    40.00 Ry     beta= 0.70
     CG style diagonalization
     ethr =  1.00E-02,  avg # of iterations =  3.0

     negative rho (up, down):  4.734E-04 0.000E+00

     add environment contribution to local potential

     total cpu time spent up to now is        2.4 secs

     total energy              =      -1.00022228 Ry
     estimated scf accuracy    <       0.11651494 Ry
     confinement energy        =       0.00000000 Ry
     correction to one-el term =       0.00000000 Ry

     iteration #  2     ecut=    40.00 Ry     beta= 0.70
     CG style diagonalization
     ethr =  5.83E-03,  avg # of iterations =  4.0

     negative rho (up, down):  1.752E-02 0.000E+00

     add environment contribution to local potential

     total cpu time spent up to now is        3.0 secs

     total energy              =      -0.86883856 Ry
     estimated scf accuracy    <       0.01958774 Ry
     confinement energy        =       0.22374244 Ry
     correction to one-el term =      -0.22374244 Ry

     iteration #  3     ecut=    40.00 Ry     beta= 0.70
     CG style diagonalization
     ethr =  9.79E-04,  avg # of iterations =  4.0

     negative rho (up, down):  4.441E-03 0.000E+00

     add environment contribution to local potential

     total cpu time spent up to now is        3.6 secs

     total energy              =      -0.87325980 Ry
     estimated scf accuracy    <       0.01069323 Ry
     confinement energy        =       0.07430665 Ry
     correction to one-el term =      -0.07430665 Ry

     iteration #  4     ecut=    40.00 Ry     beta= 0.70
     CG style diagonalization
     ethr =  5.35E-04,  avg # of iterations =  3.0

     negative rho (up, down):  1.514E-06 0.000E+00

     add environment contribution to local potential

     total cpu time spent up to now is        4.2 secs

     total energy              =      -0.87101135 Ry
     estimated scf accuracy    <       0.00450281 Ry
     confinement energy        =       0.09124331 Ry
     correction to one-el term =      -0.09124331 Ry

     iteration #  5     ecut=    40.00 Ry     beta= 0.70
     CG style diagonalization
     ethr =  2.25E-04,  avg # of iterations =  4.0

     negative rho (up, down):  5.530E-07 0.000E+00

     add environment contribution to local potential

     total cpu time spent up to now is        4.8 secs

     total energy              =      -0.87182178 Ry
     estimated scf accuracy    <       0.00001428 Ry
     confinement energy        =       0.11522479 Ry
     correction to one-el term =      -0.11522479 Ry

     iteration #  6     ecut=    40.00 Ry     beta= 0.70
     CG style diagonalization
     ethr =  7.14E-07,  avg # of iterations =  5.0

     negative rho (up, down):  5.117E-07 0.000E+00

     add environment contribution to local potential

     total cpu time spent up to now is        5.5 secs

     total energy              =      -0.87182959 Ry
     estimated scf accuracy    <       0.00000758 Ry
     confinement energy        =       0.11355122 Ry
     correction to one-el term =      -0.11355122 Ry

     iteration #  7     ecut=    40.00 Ry     beta= 0.70
     CG style diagonalization
     ethr =  3.79E-07,  avg # of iterations =  3.0

     negative rho (up, down):  6.072E-07 0.000E+00

     add environment contribution to local potential

     total cpu time spent up to now is        6.1 secs

     total energy              =      -0.87182865 Ry
     estimated scf accuracy    <       0.00000169 Ry
     confinement energy        =       0.11247209 Ry
     correction to one-el term =      -0.11247209 Ry

     iteration #  8     ecut=    40.00 Ry     beta= 0.70
     CG style diagonalization
     ethr =  8.46E-08,  avg # of iterations =  4.0

     negative rho (up, down):  6.528E-07 0.000E+00

     total cpu time spent up to now is        6.7 secs

     End of self-consistent calculation

          k = 0.0000 0.0000 0.0000 ( 17133 PWs)   bands (ev):

     5.5550

     highest occupied level (ev):     5.5550

!    total energy              =      -0.87182872 Ry
     estimated scf accuracy    <       0.00000002 Ry

     The total energy is the sum of the following terms:
     one-electron contribution =      -1.80738696 Ry
     hartree contribution      =       1.99080664 Ry
     xc contribution           =      -1.05524840 Ry
     ewald contribution        =      -0.00000000 Ry
     confinement energy        =       0.11197128 Ry
     correction to one-el term =      -0.11197128 Ry

     convergence has been achieved in   8 iterations

     Forces acting on atoms (cartesian axes, Ry/au):

     atom    1 type  1   force =     0.00000000    0.00000000    0.00000000

     Total force =     0.000000     Total SCF correction =     0.000000

 
     init_run     :      1.64s CPU      1.72s WALL (       1 calls)
     electrons    :      4.59s CPU      4.95s WALL (       1 calls)
     forces       :      0.22s CPU      0.22s WALL (       1 calls)

     Called by init_run:
     wfcinit      :      0.01s CPU      0.02s WALL (       1 calls)
     potinit      :      0.48s CPU      0.51s WALL (       1 calls)
     hinit0       :      0.61s CPU      0.63s WALL (       1 calls)

     Called by electrons:
     c_bands      :      0.42s CPU      0.45s WALL (       8 calls)
     sum_band     :      0.43s CPU      0.44s WALL (       8 calls)
     v_of_rho     :      2.90s CPU      3.16s WALL (       9 calls)
     newd         :      0.26s CPU      0.34s WALL (       9 calls)
     mix_rho      :      0.45s CPU      0.45s WALL (       8 calls)

     Called by c_bands:
     init_us_2    :      0.01s CPU      0.01s WALL (      17 calls)
     init_us_2:cp :      0.01s CPU      0.01s WALL (      17 calls)
     rcgdiagg     :      0.33s CPU      0.35s WALL (       8 calls)
     wfcrot       :      0.10s CPU      0.11s WALL (       8 calls)

     Called by *cgdiagg:
     h_psi        :      0.42s CPU      0.45s WALL (      31 calls)
     s_psi        :      0.00s CPU      0.00s WALL (      54 calls)

     Called by h_psi:
     h_psi:calbec :      0.00s CPU      0.00s WALL (      31 calls)
     vloc_psi     :      0.42s CPU      0.44s WALL (      31 calls)
     add_vuspsi   :      0.00s CPU      0.00s WALL (      31 calls)
     hs_1psi      :      0.32s CPU      0.34s WALL (      23 calls)
     s_1psi       :      0.00s CPU      0.00s WALL (      23 calls)

     General routines
     calbec       :      0.00s CPU      0.00s WALL (      66 calls)
     fft          :      1.59s CPU      1.63s WALL (     100 calls)
     ffts         :      0.09s CPU      0.09s WALL (      17 calls)
     fftw         :      0.37s CPU      0.38s WALL (      70 calls)
     interpolate  :      0.25s CPU      0.25s WALL (       9 calls)
 
     Parallel routines
 
     Environ routines
 
     PWSCF        :      6.48s CPU      6.94s WALL

 
   This run was terminated on:  20:12:27  22Apr2022            

=------------------------------------------------------------------------------=
   JOB DONE.
=------------------------------------------------------------------------------=
