
     Program PWSCF v.6.4.1 starts on  7May2019 at 19:15:55 

     This program is part of the open-source Quantum ESPRESSO suite
     for quantum simulation of materials; please cite
         "P. Giannozzi et al., J. Phys.:Condens. Matter 21 395502 (2009);
         "P. Giannozzi et al., J. Phys.:Condens. Matter 29 465901 (2017);
          URL http://www.quantum-espresso.org", 
     in publications or presentations arising from this work. More details at
     http://www.quantum-espresso.org/quote

     Parallel version (MPI), running on     1 processors

     MPI processes distributed on     1 nodes
     Reading input from pw.in
Warning: card &IONS ignored
Warning: card / ignored
Warning: card &CELL ignored
Warning: card / ignored

     Current dimensions of program PWSCF are:
     Max number of different atomic species (ntypx) = 10
     Max number of k-points (npk) =  40000
     Max angular momentum in pseudopotentials (lmaxx) =  3
Warning: card &ELECTROSTATIC ignored
Warning: card / ignored
               file H.pbe-rrkjus.UPF: wavefunction(s)  1S renormalized

     gamma-point specific algorithms are used

     Subspace diagonalization in iterative solution of the eigenvalue problem:
     a serial algorithm will be used

 
     G-vector sticks info
     --------------------
     sticks:   dense  smooth     PW     G-vecs:    dense   smooth      PW
     Sum       10185    5097   1281               773489   273425   34265
 


     bravais-lattice index     =            1
     lattice parameter (alat)  =      20.0000  a.u.
     unit-cell volume          =    8000.0000 (a.u.)^3
     number of atoms/cell      =            1
     number of atomic types    =            1
     number of electrons       =         2.00
     number of Kohn-Sham states=            1
     kinetic-energy cutoff     =      40.0000  Ry
     charge density cutoff     =     320.0000  Ry
     convergence threshold     =      5.0E-08
     mixing beta               =       0.7000
     number of iterations used =            8  plain     mixing
     Exchange-correlation      = SLA PW PBE PBE ( 1  4  3  4 0 0)
 

     Environ Module
     ==============

     Plese cite
         O. Andreussi, I. Dabo and N. Marzari, J. Chem. Phys. 136, 064102 (2012)         
     in publications or presentations arising from this work.

     compensation onset threshold      =               0.1000E+02 


     Assuming isolated system, Martyna-Tuckerman method


     celldm(1)=  20.000000  celldm(2)=   0.000000  celldm(3)=   0.000000
     celldm(4)=   0.000000  celldm(5)=   0.000000  celldm(6)=   0.000000

     crystal axes: (cart. coord. in units of alat)
               a(1) = (   1.000000   0.000000   0.000000 )  
               a(2) = (   0.000000   1.000000   0.000000 )  
               a(3) = (   0.000000   0.000000   1.000000 )  

     reciprocal axes: (cart. coord. in units 2 pi/alat)
               b(1) = (  1.000000  0.000000  0.000000 )  
               b(2) = (  0.000000  1.000000  0.000000 )  
               b(3) = (  0.000000  0.000000  1.000000 )  


     PseudoPot. # 1 for H  read from file:
     /home/fnattino/Programs/quantumespresso/q-e-qe-6.4.1-develop/Environ/tests/../..//pseudo/H.pbe-rrkjus.UPF
     MD5 check sum: 2d52a7f45632fd764c17cc6affed14c8
     Pseudo is Ultrasoft, Zval =  1.0
     Generated by new atomic code, or converted to UPF format
     Using radial grid of 1061 points,  2 beta functions with: 
                l(1) =   0
                l(2) =   0
     Q(r) pseudized with 0 coefficients 


     atomic species   valence    mass     pseudopotential
        H              1.00     1.00000     H ( 1.00)

     No symmetry found



   Cartesian axes

     site n.     atom                  positions (alat units)
         1           H   tau(   1) = (   0.0000000   0.0000000   0.0000000  )

     number of k points=     1
                       cart. coord. in units 2pi/alat
        k(    1) = (   0.0000000   0.0000000   0.0000000), wk =   2.0000000

     Dense  grid:   386745 G-vectors     FFT dimensions: ( 120, 120, 120)

     Smooth grid:   136713 G-vectors     FFT dimensions: (  81,  81,  81)

     Estimated max dynamical RAM per process >     322.73 MB

     Initial potential from superposition of free atoms

     starting charge    0.90380, renormalised to    2.00000

     negative rho (up, down):  1.692E-03 0.000E+00
     Starting wfcs are    1 randomized atomic wfcs

     total cpu time spent up to now is        1.8 secs

     Self-consistent Calculation

     iteration #  1     ecut=    40.00 Ry     beta= 0.70
     CG style diagonalization
     ethr =  1.00E-02,  avg # of iterations =  3.0

     negative rho (up, down):  4.772E-04 0.000E+00

     add environment contribution to local potential

     total cpu time spent up to now is        2.5 secs

     total energy              =      -1.00011793 Ry
     Harris-Foulkes estimate   =      -1.06684449 Ry
     estimated scf accuracy    <       0.11658456 Ry
     confinement energy        =       0.00000000 Ry
     correction to one-el term =       0.00000000 Ry

     iteration #  2     ecut=    40.00 Ry     beta= 0.70
     CG style diagonalization
     ethr =  5.83E-03,  avg # of iterations =  4.0

     negative rho (up, down):  1.142E-04 0.000E+00

     add environment contribution to local potential

     total cpu time spent up to now is        3.2 secs

     total energy              =      -0.97262451 Ry
     Harris-Foulkes estimate   =      -0.97229020 Ry
     estimated scf accuracy    <       0.00794355 Ry
     confinement energy        =       0.13347992 Ry
     correction to one-el term =      -0.13347992 Ry

     iteration #  3     ecut=    40.00 Ry     beta= 0.70
     CG style diagonalization
     ethr =  3.97E-04,  avg # of iterations =  3.0

     negative rho (up, down):  3.138E-05 0.000E+00

     add environment contribution to local potential

     total cpu time spent up to now is        3.9 secs

     total energy              =      -0.97333350 Ry
     Harris-Foulkes estimate   =      -0.97318057 Ry
     estimated scf accuracy    <       0.00068561 Ry
     confinement energy        =       0.05794301 Ry
     correction to one-el term =      -0.05794301 Ry

     iteration #  4     ecut=    40.00 Ry     beta= 0.70
     CG style diagonalization
     ethr =  3.43E-05,  avg # of iterations =  3.0

     negative rho (up, down):  5.138E-06 0.000E+00

     add environment contribution to local potential

     total cpu time spent up to now is        4.6 secs

     total energy              =      -0.97338432 Ry
     Harris-Foulkes estimate   =      -0.97337135 Ry
     estimated scf accuracy    <       0.00000873 Ry
     confinement energy        =       0.04282611 Ry
     correction to one-el term =      -0.04282611 Ry

     iteration #  5     ecut=    40.00 Ry     beta= 0.70
     CG style diagonalization
     ethr =  4.37E-07,  avg # of iterations =  3.0

     negative rho (up, down):  2.874E-06 0.000E+00

     add environment contribution to local potential

     total cpu time spent up to now is        5.3 secs

     total energy              =      -0.97338430 Ry
     Harris-Foulkes estimate   =      -0.97338458 Ry
     estimated scf accuracy    <       0.00000074 Ry
     confinement energy        =       0.04008259 Ry
     correction to one-el term =      -0.04008259 Ry

     iteration #  6     ecut=    40.00 Ry     beta= 0.70
     CG style diagonalization
     ethr =  3.69E-08,  avg # of iterations =  4.0

     negative rho (up, down):  2.508E-06 0.000E+00

     add environment contribution to local potential

     total cpu time spent up to now is        5.9 secs

     total energy              =      -0.97338439 Ry
     Harris-Foulkes estimate   =      -0.97338449 Ry
     estimated scf accuracy    <       0.00000026 Ry
     confinement energy        =       0.03978140 Ry
     correction to one-el term =      -0.03978140 Ry

     iteration #  7     ecut=    40.00 Ry     beta= 0.70
     CG style diagonalization
     ethr =  1.28E-08,  avg # of iterations =  4.0

     negative rho (up, down):  2.298E-06 0.000E+00

     total cpu time spent up to now is        6.6 secs

     End of self-consistent calculation

          k = 0.0000 0.0000 0.0000 ( 17133 PWs)   bands (ev):

     3.9385

     highest occupied level (ev):     3.9385

!    total energy              =      -0.97338445 Ry
     Harris-Foulkes estimate   =      -0.97338442 Ry
     estimated scf accuracy    <          3.8E-09 Ry

     The total energy is the sum of the following terms:

     one-electron contribution =      -1.82664531 Ry
     hartree contribution      =       1.83233799 Ry
     xc contribution           =      -0.97907714 Ry
     ewald contribution        =      -0.00000000 Ry
     confinement energy        =       0.03985053 Ry
     correction to one-el term =      -0.03985053 Ry

     convergence has been achieved in   7 iterations

     Forces acting on atoms (cartesian axes, Ry/au):

     atom    1 type  1   force =     0.00000000    0.00000000    0.00000000

     Total force =     0.000000     Total SCF correction =     0.000000

     Writing output data file pwscf.save/
 
     init_run     :      1.49s CPU      1.64s WALL (       1 calls)
     electrons    :      4.51s CPU      4.80s WALL (       1 calls)
     forces       :      0.15s CPU      0.17s WALL (       1 calls)

     Called by init_run:
     wfcinit      :      0.02s CPU      0.02s WALL (       1 calls)
     potinit      :      0.67s CPU      0.75s WALL (       1 calls)
     hinit0       :      0.64s CPU      0.68s WALL (       1 calls)

     Called by electrons:
     c_bands      :      0.43s CPU      0.42s WALL (       7 calls)
     sum_band     :      0.40s CPU      0.42s WALL (       7 calls)
     v_of_rho     :      3.17s CPU      3.50s WALL (       8 calls)
     newd         :      0.27s CPU      0.27s WALL (       8 calls)
     mix_rho      :      0.39s CPU      0.39s WALL (       7 calls)

     Called by c_bands:
     init_us_2    :      0.02s CPU      0.01s WALL (      15 calls)
     rcgdiagg     :      0.32s CPU      0.31s WALL (       7 calls)
     wfcrot       :      0.12s CPU      0.13s WALL (       7 calls)

     Called by sum_band:
     sum_band:bec :      0.00s CPU      0.00s WALL (       7 calls)
     addusdens    :      0.08s CPU      0.09s WALL (       7 calls)

     Called by *cgdiagg:
     h_psi        :      0.44s CPU      0.43s WALL (      25 calls)
     s_psi        :      0.00s CPU      0.00s WALL (      43 calls)
     rdiaghg      :      0.00s CPU      0.00s WALL (       7 calls)

     Called by h_psi:
     h_psi:pot    :      0.44s CPU      0.43s WALL (      25 calls)
     h_psi:calbec :      0.00s CPU      0.00s WALL (      25 calls)
     vloc_psi     :      0.44s CPU      0.43s WALL (      25 calls)
     add_vuspsi   :      0.00s CPU      0.00s WALL (      25 calls)
     hs_1psi      :      0.32s CPU      0.30s WALL (      18 calls)
     s_1psi       :      0.00s CPU      0.00s WALL (      18 calls)

     General routines
     calbec       :      0.00s CPU      0.00s WALL (      54 calls)
     fft          :      1.63s CPU      1.61s WALL (      89 calls)
     ffts         :      0.10s CPU      0.10s WALL (      15 calls)
     fftw         :      0.42s CPU      0.42s WALL (      57 calls)
     interpolate  :      0.26s CPU      0.26s WALL (       8 calls)
 
     Parallel routines
 
     Environ routines
 
     PWSCF        :      6.28s CPU      6.76s WALL

 
   This run was terminated on:  19:16: 2   7May2019            

=------------------------------------------------------------------------------=
   JOB DONE.
=------------------------------------------------------------------------------=
