
     Program PWSCF v.6.7MaX starts on  1Oct2021 at 20:18:57 

     This program is part of the open-source Quantum ESPRESSO suite
     for quantum simulation of materials; please cite
         "P. Giannozzi et al., J. Phys.:Condens. Matter 21 395502 (2009);
         "P. Giannozzi et al., J. Phys.:Condens. Matter 29 465901 (2017);
          URL http://www.quantum-espresso.org", 
     in publications or presentations arising from this work. More details at
     http://www.quantum-espresso.org/quote

     Parallel version (MPI), running on     1 processors

     MPI processes distributed on     1 nodes
     Reading input from pw.in
Warning: card &CELL ignored
Warning: card / ignored

     Current dimensions of program PWSCF are:
     Max number of different atomic species (ntypx) = 10
     Max number of k-points (npk) =  40000
     Max angular momentum in pseudopotentials (lmaxx) =  3

     Reading input from environ.in

     ================================================================================

     Reading ENVIRON namelist

     Reading BOUNDARY namelist

     Checking boundary derivatives
     derivatives               = chain          ! SCCS default

     Setting up vacuum environment (solvent mode = full)
     env_static_permittivity   = 1.D0           
     env_optical_permittivity  = 1.D0           
     env_surface_tension       = 0.D0           
     env_pressure              = 0.D0           

     Skipping ELECTROSTATIC namelist

     Setting up electrostatic problem
     problem                   = poisson        
     solver                    = direct         

     Checking PBC correction
     pbc_correction            = none           ! default

     ================================================================================
 
     file H.pbe-rrkjus.UPF: wavefunction(s)  1S renormalized

     gamma-point specific algorithms are used

     Subspace diagonalization in iterative solution of the eigenvalue problem:
     a serial algorithm will be used

 
     G-vector sticks info
     --------------------
     sticks:   dense  smooth     PW     G-vecs:    dense   smooth      PW
     Sum       10185    5097   1281               773489   273425   34265
 


     bravais-lattice index     =            1
     lattice parameter (alat)  =      20.0000  a.u.
     unit-cell volume          =    8000.0000 (a.u.)^3
     number of atoms/cell      =            1
     number of atomic types    =            1
     number of electrons       =         2.00
     number of Kohn-Sham states=            1
     kinetic-energy cutoff     =      40.0000  Ry
     charge density cutoff     =     320.0000  Ry
     scf convergence threshold =      5.0E-08
     mixing beta               =       0.7000
     number of iterations used =            8  plain     mixing
     Exchange-correlation= SLA  PW   PBE  PBE
                           (   1   4   3   4   0   0   0)
 

     Environ Module
     ==============

     Please cite
         O. Andreussi, I. Dabo and N. Marzari, J. Chem. Phys. 136, 064102 (2012)         
     in publications or presentations arising from this work.

     compensation onset threshold      =               0.1000E+02
     switching function adopted        =                     SCCS
     density limit for vacuum region   =               0.5000E-02
     density limit for bulk solvent    =               0.1000E-03


     Assuming isolated system, Martyna-Tuckerman method


     celldm(1)=  20.000000  celldm(2)=   0.000000  celldm(3)=   0.000000
     celldm(4)=   0.000000  celldm(5)=   0.000000  celldm(6)=   0.000000

     crystal axes: (cart. coord. in units of alat)
               a(1) = (   1.000000   0.000000   0.000000 )  
               a(2) = (   0.000000   1.000000   0.000000 )  
               a(3) = (   0.000000   0.000000   1.000000 )  

     reciprocal axes: (cart. coord. in units 2 pi/alat)
               b(1) = (  1.000000  0.000000  0.000000 )  
               b(2) = (  0.000000  1.000000  0.000000 )  
               b(3) = (  0.000000  0.000000  1.000000 )  


     PseudoPot. # 1 for H  read from file:
     /home/simplogic86/Work/QE1/Environ/tests/../..//pseudo/H.pbe-rrkjus.UPF
     MD5 check sum: 2d52a7f45632fd764c17cc6affed14c8
     Pseudo is Ultrasoft, Zval =  1.0
     Generated by new atomic code, or converted to UPF format
     Using radial grid of 1061 points,  2 beta functions with: 
                l(1) =   0
                l(2) =   0
     Q(r) pseudized with 0 coefficients 


     atomic species   valence    mass     pseudopotential
        H              1.00     1.00000     H ( 1.00)

     No symmetry found



   Cartesian axes

     site n.     atom                  positions (alat units)
         1           H   tau(   1) = (   0.0000000   0.0000000   0.0000000  )

     number of k points=     1
                       cart. coord. in units 2pi/alat
        k(    1) = (   0.0000000   0.0000000   0.0000000), wk =   2.0000000

     Dense  grid:   386745 G-vectors     FFT dimensions: ( 120, 120, 120)

     Smooth grid:   136713 G-vectors     FFT dimensions: (  81,  81,  81)

     Estimated max dynamical RAM per process >     322.64 MB

     Initial potential from superposition of free atoms

     starting charge    0.90380, renormalised to    2.00000

     negative rho (up, down):  1.692E-03 0.000E+00
     Starting wfcs are    1 randomized atomic wfcs

     total cpu time spent up to now is        1.5 secs

     Self-consistent Calculation

     iteration #  1     ecut=    40.00 Ry     beta= 0.70
     CG style diagonalization
     ethr =  1.00E-02,  avg # of iterations =  3.0

     negative rho (up, down):  4.734E-04 0.000E+00

     add environment contribution to local potential

     total cpu time spent up to now is        2.2 secs

     total energy              =      -1.00022228 Ry
     estimated scf accuracy    <       0.11651494 Ry
     confinement energy        =       0.00000000 Ry
     correction to one-el term =       0.00000000 Ry

     iteration #  2     ecut=    40.00 Ry     beta= 0.70
     CG style diagonalization
     ethr =  5.83E-03,  avg # of iterations =  4.0

     negative rho (up, down):  1.121E-04 0.000E+00

     add environment contribution to local potential

     total cpu time spent up to now is        2.8 secs

     total energy              =      -0.94222151 Ry
     estimated scf accuracy    <       0.00992263 Ry
     confinement energy        =       0.17056156 Ry
     correction to one-el term =      -0.10620783 Ry

     iteration #  3     ecut=    40.00 Ry     beta= 0.70
     CG style diagonalization
     ethr =  4.96E-04,  avg # of iterations =  3.0

     negative rho (up, down):  3.785E-05 0.000E+00

     add environment contribution to local potential

     total cpu time spent up to now is        3.4 secs

     total energy              =      -0.94389368 Ry
     estimated scf accuracy    <       0.00090568 Ry
     confinement energy        =       0.10365805 Ry
     correction to one-el term =      -0.04407200 Ry

     iteration #  4     ecut=    40.00 Ry     beta= 0.70
     CG style diagonalization
     ethr =  4.53E-05,  avg # of iterations =  3.0

     negative rho (up, down):  6.342E-06 0.000E+00

     add environment contribution to local potential

     total cpu time spent up to now is        4.0 secs

     total energy              =      -0.94398045 Ry
     estimated scf accuracy    <       0.00000170 Ry
     confinement energy        =       0.07339070 Ry
     correction to one-el term =      -0.01505671 Ry

     iteration #  5     ecut=    40.00 Ry     beta= 0.70
     CG style diagonalization
     ethr =  8.52E-08,  avg # of iterations =  4.0

     negative rho (up, down):  3.245E-06 0.000E+00

     add environment contribution to local potential

     total cpu time spent up to now is        4.7 secs

     total energy              =      -0.94398599 Ry
     estimated scf accuracy    <       0.00000027 Ry
     confinement energy        =       0.07228163 Ry
     correction to one-el term =      -0.01350969 Ry

     iteration #  6     ecut=    40.00 Ry     beta= 0.70
     CG style diagonalization
     ethr =  1.33E-08,  avg # of iterations =  4.0

     negative rho (up, down):  2.888E-06 0.000E+00

     add environment contribution to local potential

     total cpu time spent up to now is        5.2 secs

     total energy              =      -0.94398642 Ry
     estimated scf accuracy    <       0.00000018 Ry
     confinement energy        =       0.07249406 Ry
     correction to one-el term =      -0.01358432 Ry

     iteration #  7     ecut=    40.00 Ry     beta= 0.70
     CG style diagonalization
     ethr =  8.75E-09,  avg # of iterations =  4.0

     negative rho (up, down):  2.737E-06 0.000E+00

     add environment contribution to local potential

     total cpu time spent up to now is        5.8 secs

     total energy              =      -0.94398644 Ry
     estimated scf accuracy    <       0.00000023 Ry
     confinement energy        =       0.07255497 Ry
     correction to one-el term =      -0.01357617 Ry

     iteration #  8     ecut=    40.00 Ry     beta= 0.70
     CG style diagonalization
     ethr =  8.75E-09,  avg # of iterations =  4.0

     negative rho (up, down):  2.672E-06 0.000E+00

     total cpu time spent up to now is        6.3 secs

     End of self-consistent calculation

          k = 0.0000 0.0000 0.0000 ( 17133 PWs)   bands (ev):

     3.4638

     highest occupied level (ev):     3.4638

!    total energy              =      -0.94398647 Ry
     estimated scf accuracy    <          5.8E-09 Ry

     The total energy is the sum of the following terms:
     one-electron contribution =      -1.83207119 Ry
     hartree contribution      =       1.78607070 Ry
     xc contribution           =      -0.95695174 Ry
     ewald contribution        =      -0.00000000 Ry
     confinement energy        =       0.07252612 Ry
     correction to one-el term =      -0.01356036 Ry

     convergence has been achieved in   8 iterations

     Forces acting on atoms (cartesian axes, Ry/au):

     atom    1 type  1   force =     0.00000000    0.00000000    0.00000000

     Total force =     0.000000     Total SCF correction =     0.000002

     Writing output data file /home/simplogic86/Work/QE1/Environ/tests/../..//tempdir/pwscf.save/
 
     init_run     :      1.41s CPU      1.53s WALL (       1 calls)
     electrons    :      4.56s CPU      4.76s WALL (       1 calls)
     forces       :      0.23s CPU      0.27s WALL (       1 calls)

     Called by init_run:
     wfcinit      :      0.01s CPU      0.01s WALL (       1 calls)
     potinit      :      0.51s CPU      0.55s WALL (       1 calls)
     hinit0       :      0.50s CPU      0.53s WALL (       1 calls)

     Called by electrons:
     c_bands      :      0.35s CPU      0.36s WALL (       8 calls)
     sum_band     :      0.40s CPU      0.40s WALL (       8 calls)
     v_of_rho     :      2.82s CPU      2.98s WALL (       9 calls)
     newd         :      0.24s CPU      0.24s WALL (       9 calls)
     mix_rho      :      0.40s CPU      0.40s WALL (       8 calls)

     Called by c_bands:
     init_us_2    :      0.01s CPU      0.01s WALL (      17 calls)
     rcgdiagg     :      0.26s CPU      0.27s WALL (       8 calls)
     wfcrot       :      0.10s CPU      0.10s WALL (       8 calls)

     Called by *cgdiagg:
     h_psi        :      0.35s CPU      0.36s WALL (      30 calls)
     s_psi        :      0.00s CPU      0.00s WALL (      52 calls)

     Called by h_psi:
     h_psi:calbec :      0.00s CPU      0.00s WALL (      30 calls)
     vloc_psi     :      0.35s CPU      0.36s WALL (      30 calls)
     add_vuspsi   :      0.00s CPU      0.00s WALL (      30 calls)
     hs_1psi      :      0.25s CPU      0.27s WALL (      22 calls)
     s_1psi       :      0.00s CPU      0.00s WALL (      22 calls)

     General routines
     calbec       :      0.00s CPU      0.00s WALL (      64 calls)
     fft          :      1.43s CPU      1.45s WALL (     100 calls)
     ffts         :      0.08s CPU      0.08s WALL (      17 calls)
     fftw         :      0.31s CPU      0.32s WALL (      68 calls)
     interpolate  :      0.23s CPU      0.25s WALL (       9 calls)
 
     Parallel routines
 
     Environ routines
 
     PWSCF        :      6.23s CPU      6.60s WALL

 
   This run was terminated on:  20:19: 4   1Oct2021            

=------------------------------------------------------------------------------=
   JOB DONE.
=------------------------------------------------------------------------------=
